                               Psi4 1.3.2 release

  ==> Input File <==

--------------------------------------------------------------------------
#psi4
#
memory 32 gb

molecule  {
0 1
  S        1.2619393     0.1306300    -0.0002421
  N       -1.2657710    -0.7786410     0.0002510
  C       -0.0644320     1.2156230    -0.0000300
  C       -1.2905570     0.5944340     0.0002340
  C       -0.0184830    -1.1998720     0.0000480
  H        0.1541650     2.2748950    -0.0001110
  H       -2.2450570     1.1086030     0.0003980
  H        0.2637610    -2.2461300     0.0000230
units angstrom
no_reorient  #important for SAPT in psi4, default
symmetry c1  #important for SAPT in psi4, default
}

set PROPERTIES_ORIGIN ["COM"]
properties('MP2/aug-cc-pvtz', properties = ['dipole'])
--------------------------------------------------------------------------

    Molecular point group: c1
  Charge       = 0
  Multiplicity = 1
  Basis Set: AUG-CC-PVTZ
    Blend: AUG-CC-PVTZ
  Basis Set: (AUG-CC-PVTZ AUX)
    Blend: AUG-CC-PVTZ-JKFIT

    Orbital Energies [Eh]
    ---------------------

    Doubly Occupied:

       1A    -92.005009     2A    -15.587315     3A    -11.326128
       4A    -11.275626     5A    -11.273386     6A     -9.003748
       7A     -6.684587     8A     -6.683872     9A     -6.683305
      10A     -1.276429    11A     -1.067597    12A     -0.991224
      13A     -0.808628    14A     -0.769746    15A     -0.698351
      16A     -0.600140    17A     -0.555081    18A     -0.550884
      19A     -0.514573    20A     -0.438186    21A     -0.400848
      22A     -0.335769

  @DF-RHF Final Energy:  -567.37339102005910

   => Energetics <=

    Nuclear Repulsion Energy =            201.4478755614795205
    One-Electron Energy =               -1178.5816662459480995
    Two-Electron Energy =                 409.7603996644094195
    Total Energy =                       -567.3733910200591026
  Basis Set: (AUG-CC-PVTZ AUX)
    Blend: AUG-CC-PVTZ-RI
    Molecular point group: c1

    Geometry (in Angstrom), charge = 0, multiplicity = 1:

       Center              X                  Y                   Z               Mass
    ------------   -----------------  -----------------  -----------------  -----------------
         S            1.211361587576     0.110139878546    -0.000231638170    31.972071174400
         N           -1.316348712424    -0.799131121454     0.000261461830    14.003074004430
         C           -0.115009712424     1.195132878546    -0.000019538170    12.000000000000
         C           -1.341134712424     0.573943878546     0.000244461830    12.000000000000
         C           -0.069060712424    -1.220362121454     0.000058461830    12.000000000000
         H            0.103587287576     2.254404878546    -0.000100538170     1.007825032230
         H           -2.295634712424     1.088112878546     0.000408461830     1.007825032230
         H            0.213183287576    -2.266620121454     0.000033461830     1.007825032230

  Basis Set: AUG-CC-PVTZ
    Blend: AUG-CC-PVTZ
  Basis Set: (AUG-CC-PVTZ AUX)
    Blend: AUG-CC-PVTZ-JKFIT
	 Reference Energy          =    -567.3733910200591026 [Eh]
	 Singles Energy            =      -0.0000000000000000 [Eh]
	 Same-Spin Energy          =      -0.2455603708572642 [Eh]
	 Opposite-Spin Energy      =      -0.7324990349438871 [Eh]
	 Correlation Energy        =      -0.9780594058011514 [Eh]
	 Total Energy              =    -568.3514504258602074 [Eh]

	 ================> DF-SCS-MP2 Energies <==================
	-----------------------------------------------------------
	 SCS Same-Spin Scale       =       0.3333333333333333 [-]
	 SCS Opposite-Spin Scale   =       1.2000000000000000 [-]
	 SCS Same-Spin Energy      =      -0.0818534569524214 [Eh]
	 SCS Opposite-Spin Energy  =      -0.8789988419326645 [Eh]
	 SCS Correlation Energy    =      -0.9608522988850859 [Eh]
	 SCS Total Energy          =    -568.3342433189442318 [Eh]
	-----------------------------------------------------------

  Dipole Moment: [D]
     X:     1.2096      Y:     1.0684      Z:    -0.0003     Total:     1.6139

*** Psi4 exiting successfully. Buy a developer a beer!
