                               Psi4 1.4a3.dev225

  ==> Input File <==

--------------------------------------------------------------------------
#psi4
#
memory 32 gb

molecule  {
0 1
  S        1.1830230     0.0407500    -0.0002230
  N       -1.2657710    -0.7786410     0.0002510
  C       -0.0644320     1.2156230    -0.0000300
  C       -1.2914594     0.6444259     0.0002334
  C       -0.0184830    -1.1998720     0.0000480
  H        0.1541650     2.2748950    -0.0001110
  H       -2.2450570     1.1086030     0.0003980
  H        0.2637610    -2.2461300     0.0000230
units angstrom
no_reorient  #important for SAPT in psi4, default
symmetry c1  #important for SAPT in psi4, default
}

set PROPERTIES_ORIGIN ["COM"]
properties('MP2/aug-cc-pvtz', properties = ['dipole'])
--------------------------------------------------------------------------

    Molecular point group: c1
  Charge       = 0
  Multiplicity = 1
  Basis Set: AUG-CC-PVTZ
    Blend: AUG-CC-PVTZ
  Basis Set: (AUG-CC-PVTZ AUX)
    Blend: AUG-CC-PVTZ-JKFIT

    Orbital Energies [Eh]
    ---------------------

    Doubly Occupied:

       1A    -92.001758     2A    -15.580584     3A    -11.314293
       4A    -11.274428     5A    -11.270847     6A     -9.002788
       7A     -6.683720     8A     -6.683147     9A     -6.682398
      10A     -1.269244    11A     -1.068835    12A     -1.006562
      13A     -0.800261    14A     -0.781021    15A     -0.698211
      16A     -0.592920    17A     -0.567118    18A     -0.557900
      19A     -0.518632    20A     -0.433711    21A     -0.390038
      22A     -0.349752

  @DF-RHF Final Energy:  -567.38117922001197

   => Energetics <=

    Nuclear Repulsion Energy =            204.2834727533829380
    One-Electron Energy =               -1184.2729630961882776
    Two-Electron Energy =                 412.6083111227933387
    Total Energy =                       -567.3811792200119726
  Basis Set: (AUG-CC-PVTZ AUX)
    Blend: AUG-CC-PVTZ-RI
    Molecular point group: c1

    Geometry (in Angstrom), charge = 0, multiplicity = 1:

       Center              X                  Y                   Z               Mass
    ------------   -----------------  -----------------  -----------------  -----------------
         S            1.162256905132     0.047010276961    -0.000219637892    31.972071174400
         N           -1.286537094868    -0.772380723039     0.000254362108    14.003074004430
         C           -0.085198094868     1.221883276961    -0.000026637892    12.000000000000
         C           -1.312225494868     0.650686176961     0.000236762108    12.000000000000
         C           -0.039249094868    -1.193611723039     0.000051362108    12.000000000000
         H            0.133398905132     2.281155276961    -0.000107637892     1.007825032230
         H           -2.265823094868     1.114863276961     0.000401362108     1.007825032230
         H            0.242994905132    -2.239869723039     0.000026362108     1.007825032230

  Basis Set: AUG-CC-PVTZ
    Blend: AUG-CC-PVTZ
  Basis Set: (AUG-CC-PVTZ AUX)
    Blend: AUG-CC-PVTZ-JKFIT
	 Reference Energy          =    -567.3811792200119726 [Eh]
	 Singles Energy            =      -0.0000000000000000 [Eh]
	 Same-Spin Energy          =      -0.2447827486347701 [Eh]
	 Opposite-Spin Energy      =      -0.7299832712997403 [Eh]
	 Correlation Energy        =      -0.9747660199345104 [Eh]
	 Total Energy              =    -568.3559452399464362 [Eh]

	 ================> DF-SCS-MP2 Energies <==================
	-----------------------------------------------------------
	 SCS Same-Spin Scale       =       0.3333333333333333 [-]
	 SCS Opposite-Spin Scale   =       1.2000000000000000 [-]
	 SCS Same-Spin Energy      =      -0.0815942495449234 [Eh]
	 SCS Opposite-Spin Energy  =      -0.8759799255596883 [Eh]
	 SCS Correlation Energy    =      -0.9575741751046116 [Eh]
	 SCS Total Energy          =    -568.3387533951165551 [Eh]
	-----------------------------------------------------------

  Dipole Moment: [D]
     X:     1.3444      Y:     1.1859      Z:    -0.0003     Total:     1.7927

*** Psi4 exiting successfully. Buy a developer a beer!
