                               Psi4 1.3.2 release

  ==> Input File <==

--------------------------------------------------------------------------
#psi4
#
memory 32 gb

molecule  {
0 1
  S        1.1830230     0.0407500    -0.0002230
  N       -1.2657710    -0.7786410     0.0002510
  C       -0.0644320     1.2156230    -0.0000300
  C       -1.3309022     0.6814773     0.0002388
  C       -0.0184830    -1.1998720     0.0000480
  H        0.1541650     2.2748950    -0.0001110
  H       -2.2450570     1.1086030     0.0003980
  H        0.2637610    -2.2461300     0.0000230
units angstrom
no_reorient  #important for SAPT in psi4, default
symmetry c1  #important for SAPT in psi4, default
}

set PROPERTIES_ORIGIN ["COM"]
properties('MP2/aug-cc-pvtz', properties = ['dipole'])
--------------------------------------------------------------------------

    Molecular point group: c1
  Charge       = 0
  Multiplicity = 1
  Basis Set: AUG-CC-PVTZ
    Blend: AUG-CC-PVTZ
  Basis Set: (AUG-CC-PVTZ AUX)
    Blend: AUG-CC-PVTZ-JKFIT

    Orbital Energies [Eh]
    ---------------------

    Doubly Occupied:

       1A    -92.002397     2A    -15.581785     3A    -11.313373
       4A    -11.277035     5A    -11.275615     6A     -9.003381
       7A     -6.684344     8A     -6.683710     9A     -6.682971
      10A     -1.258653    11A     -1.064827    12A     -1.006700
      13A     -0.797789    14A     -0.788601    15A     -0.696800
      16A     -0.599155    17A     -0.563417    18A     -0.552340
      19A     -0.524796    20A     -0.427401    21A     -0.387754
      22A     -0.348739

  @DF-RHF Final Energy:  -567.37136954718289

   => Energetics <=

    Nuclear Repulsion Energy =            203.2384652596319654
    One-Electron Energy =               -1182.1765086647501448
    Two-Electron Energy =                 411.5666738579353705
    Total Energy =                       -567.3713695471827805
  Basis Set: (AUG-CC-PVTZ AUX)
    Blend: AUG-CC-PVTZ-RI
    Molecular point group: c1

    Geometry (in Angstrom), charge = 0, multiplicity = 1:

       Center              X                  Y                   Z               Mass
    ------------   -----------------  -----------------  -----------------  -----------------
         S            1.167825390814     0.041779406171    -0.000220400257    31.972071174400
         N           -1.280968609186    -0.777611593829     0.000253599743    14.003074004430
         C           -0.079629609186     1.216652406171    -0.000027400257    12.000000000000
         C           -1.346099809186     0.682506706171     0.000241399743    12.000000000000
         C           -0.033680609186    -1.198842593829     0.000050599743    12.000000000000
         H            0.138967390814     2.275924406171    -0.000108400257     1.007825032230
         H           -2.260254609186     1.109632406171     0.000400599743     1.007825032230
         H            0.248563390814    -2.245100593829     0.000025599743     1.007825032230

  Basis Set: AUG-CC-PVTZ
    Blend: AUG-CC-PVTZ
  Basis Set: (AUG-CC-PVTZ AUX)
    Blend: AUG-CC-PVTZ-JKFIT
	 Reference Energy          =    -567.3713695471828942 [Eh]
	 Singles Energy            =      -0.0000000000000000 [Eh]
	 Same-Spin Energy          =      -0.2447954875816893 [Eh]
	 Opposite-Spin Energy      =      -0.7313019874234099 [Eh]
	 Correlation Energy        =      -0.9760974750050992 [Eh]
	 Total Energy              =    -568.3474670221879705 [Eh]

	 ================> DF-SCS-MP2 Energies <==================
	-----------------------------------------------------------
	 SCS Same-Spin Scale       =       0.3333333333333333 [-]
	 SCS Opposite-Spin Scale   =       1.2000000000000000 [-]
	 SCS Same-Spin Energy      =      -0.0815984958605631 [Eh]
	 SCS Opposite-Spin Energy  =      -0.8775623849080919 [Eh]
	 SCS Correlation Energy    =      -0.9591608807686550 [Eh]
	 SCS Total Energy          =    -568.3305304279515440 [Eh]
	-----------------------------------------------------------

  Dipole Moment: [D]
     X:     1.3279      Y:     1.1859      Z:    -0.0003     Total:     1.7803

*** Psi4 exiting successfully. Buy a developer a beer!
