                               Psi4 1.4a3.dev225

  ==> Input File <==

--------------------------------------------------------------------------
#psi4
#
memory 32 gb

molecule  {
0 1
  S        1.1830230     0.0407500    -0.0002230
  N       -1.2657710    -0.7786410     0.0002510
  C       -0.1008304     1.2499036    -0.0000244
  C       -1.2905570     0.5944340     0.0002340
  C       -0.0184830    -1.1998720     0.0000480
  H        0.1541650     2.2748950    -0.0001110
  H       -2.2450570     1.1086030     0.0003980
  H        0.2637610    -2.2461300     0.0000230
units angstrom
no_reorient  #important for SAPT in psi4, default
symmetry c1  #important for SAPT in psi4, default
}

set PROPERTIES_ORIGIN ["COM"]
properties('MP2/aug-cc-pvtz', properties = ['dipole'])
--------------------------------------------------------------------------

    Molecular point group: c1
  Charge       = 0
  Multiplicity = 1
  Basis Set: AUG-CC-PVTZ
    Blend: AUG-CC-PVTZ
  Basis Set: (AUG-CC-PVTZ AUX)
    Blend: AUG-CC-PVTZ-JKFIT

    Orbital Energies [Eh]
    ---------------------

    Doubly Occupied:

       1A    -92.001614     2A    -15.578921     3A    -11.317610
       4A    -11.275503     5A    -11.271519     6A     -9.001715
       7A     -6.682590     8A     -6.682007     9A     -6.681389
      10A     -1.279836    11A     -1.063133    12A     -1.008163
      13A     -0.809269    14A     -0.776939    15A     -0.701236
      16A     -0.598132    17A     -0.573747    18A     -0.560844
      19A     -0.500782    20A     -0.437559    21A     -0.390067
      22A     -0.349267

  @DF-RHF Final Energy:  -567.38223023388957

   => Energetics <=

    Nuclear Repulsion Energy =            204.0668603931734708
    One-Electron Energy =               -1183.8144978877912763
    Two-Electron Energy =                 412.3654072607282615
    Total Energy =                       -567.3822302338895724
  Basis Set: (AUG-CC-PVTZ AUX)
    Blend: AUG-CC-PVTZ-RI
    Molecular point group: c1

    Geometry (in Angstrom), charge = 0, multiplicity = 1:

       Center              X                  Y                   Z               Mass
    ------------   -----------------  -----------------  -----------------  -----------------
         S            1.167268186475     0.049228378848    -0.000220513200    31.972071174400
         N           -1.281525813525    -0.770162621152     0.000253486800    14.003074004430
         C           -0.116585213525     1.258381978848    -0.000021913200    12.000000000000
         C           -1.306311813525     0.602912378848     0.000236486800    12.000000000000
         C           -0.034237813525    -1.191393621152     0.000050486800    12.000000000000
         H            0.138410186475     2.283373378848    -0.000108513200     1.007825032230
         H           -2.260811813525     1.117081378848     0.000400486800     1.007825032230
         H            0.248006186475    -2.237651621152     0.000025486800     1.007825032230

  Basis Set: AUG-CC-PVTZ
    Blend: AUG-CC-PVTZ
  Basis Set: (AUG-CC-PVTZ AUX)
    Blend: AUG-CC-PVTZ-JKFIT
	 Reference Energy          =    -567.3822302338895724 [Eh]
	 Singles Energy            =      -0.0000000000000000 [Eh]
	 Same-Spin Energy          =      -0.2448911692689245 [Eh]
	 Opposite-Spin Energy      =      -0.7296363357985937 [Eh]
	 Correlation Energy        =      -0.9745275050675182 [Eh]
	 Total Energy              =    -568.3567577389570715 [Eh]

	 ================> DF-SCS-MP2 Energies <==================
	-----------------------------------------------------------
	 SCS Same-Spin Scale       =       0.3333333333333333 [-]
	 SCS Opposite-Spin Scale   =       1.2000000000000000 [-]
	 SCS Same-Spin Energy      =      -0.0816303897563082 [Eh]
	 SCS Opposite-Spin Energy  =      -0.8755636029583124 [Eh]
	 SCS Correlation Energy    =      -0.9571939927146206 [Eh]
	 SCS Total Energy          =    -568.3394242266041374 [Eh]
	-----------------------------------------------------------

  Dipole Moment: [D]
     X:     1.3109      Y:     1.1844      Z:    -0.0003     Total:     1.7667

*** Psi4 exiting successfully. Buy a developer a beer!
