                               Psi4 1.3.2 release

  ==> Input File <==

--------------------------------------------------------------------------
#psi4
#
memory 32 gb

molecule  {
0 1
  S        1.1830230     0.0407500    -0.0002230
  N       -1.2657710    -0.7786410     0.0002510
  C       -0.0644320     1.2156230    -0.0000300
  C       -1.2905570     0.5944340     0.0002340
  C       -0.0184830    -1.1998720     0.0000480
  H        0.1541650     2.2748950    -0.0001110
  H       -2.2450570     1.1086030     0.0003980
  H        0.2898065    -2.3426786     0.0000207
units angstrom
no_reorient  #important for SAPT in psi4, default
symmetry c1  #important for SAPT in psi4, default
}

set PROPERTIES_ORIGIN ["COM"]
properties('MP2/aug-cc-pvtz', properties = ['dipole'])
--------------------------------------------------------------------------

    Molecular point group: c1
  Charge       = 0
  Multiplicity = 1
  Basis Set: AUG-CC-PVTZ
    Blend: AUG-CC-PVTZ
  Basis Set: (AUG-CC-PVTZ AUX)
    Blend: AUG-CC-PVTZ-JKFIT

    Orbital Energies [Eh]
    ---------------------

    Doubly Occupied:

       1A    -92.004199     2A    -15.579436     3A    -11.324452
       4A    -11.275897     5A    -11.271303     6A     -9.004911
       7A     -6.685781     8A     -6.685269     9A     -6.684556
      10A     -1.280784    11A     -1.071205    12A     -0.999997
      13A     -0.799759    14A     -0.766559    15A     -0.695350
      16A     -0.590006    17A     -0.563119    18A     -0.562771
      19A     -0.510334    20A     -0.437026    21A     -0.394473
      22A     -0.343386

  @DF-RHF Final Energy:  -567.37539285631260

   => Energetics <=

    Nuclear Repulsion Energy =            204.3334857559108286
    One-Electron Energy =               -1184.3566069870664705
    Two-Electron Energy =                 412.6477283748430409
    Total Energy =                       -567.3753928563126010
  Basis Set: (AUG-CC-PVTZ AUX)
    Blend: AUG-CC-PVTZ-RI
    Molecular point group: c1

    Geometry (in Angstrom), charge = 0, multiplicity = 1:

       Center              X                  Y                   Z               Mass
    ------------   -----------------  -----------------  -----------------  -----------------
         S            1.161820685029     0.055212844175    -0.000219695328    31.972071174400
         N           -1.286973314971    -0.764178155825     0.000254304672    14.003074004430
         C           -0.085634314971     1.230085844175    -0.000026695328    12.000000000000
         C           -1.311759314971     0.608896844175     0.000237304672    12.000000000000
         C           -0.039685314971    -1.185409155825     0.000051304672    12.000000000000
         H            0.132962685029     2.289357844175    -0.000107695328     1.007825032230
         H           -2.266259314971     1.123065844175     0.000401304672     1.007825032230
         H            0.268604185029    -2.328215755825     0.000024004672     1.007825032230

  Basis Set: AUG-CC-PVTZ
    Blend: AUG-CC-PVTZ
  Basis Set: (AUG-CC-PVTZ AUX)
    Blend: AUG-CC-PVTZ-JKFIT
	 Reference Energy          =    -567.3753928563126010 [Eh]
	 Singles Energy            =      -0.0000000000000000 [Eh]
	 Same-Spin Energy          =      -0.2460346628145320 [Eh]
	 Opposite-Spin Energy      =      -0.7308027416617279 [Eh]
	 Correlation Energy        =      -0.9768374044762599 [Eh]
	 Total Energy              =    -568.3522302607888150 [Eh]

	 ================> DF-SCS-MP2 Energies <==================
	-----------------------------------------------------------
	 SCS Same-Spin Scale       =       0.3333333333333333 [-]
	 SCS Opposite-Spin Scale   =       1.2000000000000000 [-]
	 SCS Same-Spin Energy      =      -0.0820115542715107 [Eh]
	 SCS Opposite-Spin Energy  =      -0.8769632899940735 [Eh]
	 SCS Correlation Energy    =      -0.9589748442655841 [Eh]
	 SCS Total Energy          =    -568.3343677005782411 [Eh]
	-----------------------------------------------------------

  Dipole Moment: [D]
     X:     1.3641      Y:     1.1744      Z:    -0.0003     Total:     1.8000

*** Psi4 exiting successfully. Buy a developer a beer!
