                               Psi4 1.3.2 release

  ==> Input File <==

--------------------------------------------------------------------------
#psi4
#
memory 32 gb

molecule  {
0 1
  S        1.1830230     0.0407500    -0.0002230
  N       -1.2657710    -0.7786410     0.0002510
  C        0.0652094     1.3395815    -0.0000589
  C       -1.2905570     0.5944340     0.0002340
  C       -0.0184830    -1.1998720     0.0000480
  H        0.1541650     2.2748950    -0.0001110
  H       -2.2450570     1.1086030     0.0003980
  H        0.2637610    -2.2461300     0.0000230
units angstrom
no_reorient  #important for SAPT in psi4, default
symmetry c1  #important for SAPT in psi4, default
}

set PROPERTIES_ORIGIN ["COM"]
properties('MP2/aug-cc-pvtz', properties = ['dipole'])
--------------------------------------------------------------------------

    Molecular point group: c1
  Charge       = 0
  Multiplicity = 1
  Basis Set: AUG-CC-PVTZ
    Blend: AUG-CC-PVTZ
  Basis Set: (AUG-CC-PVTZ AUX)
    Blend: AUG-CC-PVTZ-JKFIT

    Orbital Energies [Eh]
    ---------------------

    Doubly Occupied:

       1A    -92.012303     2A    -15.587181     3A    -11.316711
       4A    -11.298552     5A    -11.279592     6A     -9.011562
       7A     -6.692361     8A     -6.692128     9A     -6.691492
      10A     -1.275707    11A     -1.073233    12A     -0.988322
      13A     -0.832137    14A     -0.774052    15A     -0.687691
      16A     -0.617086    17A     -0.592438    18A     -0.556224
      19A     -0.484414    20A     -0.442523    21A     -0.400784
      22A     -0.321057

  @DF-RHF Final Energy:  -567.33400434404291

   => Energetics <=

    Nuclear Repulsion Energy =            202.5496413410286891
    One-Electron Energy =               -1180.5121920758936085
    Two-Electron Energy =                 410.6285463908219526
    Total Energy =                       -567.3340043440429099
  Basis Set: (AUG-CC-PVTZ AUX)
    Blend: AUG-CC-PVTZ-RI
    Molecular point group: c1

    Geometry (in Angstrom), charge = 0, multiplicity = 1:

       Center              X                  Y                   Z               Mass
    ------------   -----------------  -----------------  -----------------  -----------------
         S            1.143826893033     0.036567763929    -0.000215642533    31.972071174400
         N           -1.304967106967    -0.782823236071     0.000258357467    14.003074004430
         C            0.026013293033     1.335399263929    -0.000051542533    12.000000000000
         C           -1.329753106967     0.590251763929     0.000241357467    12.000000000000
         C           -0.057679106967    -1.204054236071     0.000055357467    12.000000000000
         H            0.114968893033     2.270712763929    -0.000103642533     1.007825032230
         H           -2.284253106967     1.104420763929     0.000405357467     1.007825032230
         H            0.224564893033    -2.250312236071     0.000030357467     1.007825032230

  Basis Set: AUG-CC-PVTZ
    Blend: AUG-CC-PVTZ
  Basis Set: (AUG-CC-PVTZ AUX)
    Blend: AUG-CC-PVTZ-JKFIT
	 Reference Energy          =    -567.3340043440429099 [Eh]
	 Singles Energy            =      -0.0000000000000000 [Eh]
	 Same-Spin Energy          =      -0.2490365610778298 [Eh]
	 Opposite-Spin Energy      =      -0.7364271985041623 [Eh]
	 Correlation Energy        =      -0.9854637595819921 [Eh]
	 Total Energy              =    -568.3194681036248994 [Eh]

	 ================> DF-SCS-MP2 Energies <==================
	-----------------------------------------------------------
	 SCS Same-Spin Scale       =       0.3333333333333333 [-]
	 SCS Opposite-Spin Scale   =       1.2000000000000000 [-]
	 SCS Same-Spin Energy      =      -0.0830121870259433 [Eh]
	 SCS Opposite-Spin Energy  =      -0.8837126382049947 [Eh]
	 SCS Correlation Energy    =      -0.9667248252309379 [Eh]
	 SCS Total Energy          =    -568.3007291692738363 [Eh]
	-----------------------------------------------------------

  Dipole Moment: [D]
     X:     1.3044      Y:     1.0893      Z:    -0.0003     Total:     1.6994

*** Psi4 exiting successfully. Buy a developer a beer!
