                               Psi4 1.3.2 release

  ==> Input File <==

--------------------------------------------------------------------------
#psi4
#
memory 32 gb

molecule  {
0 1
  S        1.2044918     0.0195919    -0.0002266
  N       -1.2657710    -0.7786410     0.0002510
  C       -0.0644320     1.2156230    -0.0000300
  C       -1.2905570     0.5944340     0.0002340
  C       -0.0184830    -1.1998720     0.0000480
  H        0.1541650     2.2748950    -0.0001110
  H       -2.2450570     1.1086030     0.0003980
  H        0.2637610    -2.2461300     0.0000230
units angstrom
no_reorient  #important for SAPT in psi4, default
symmetry c1  #important for SAPT in psi4, default
}

set PROPERTIES_ORIGIN ["COM"]
properties('MP2/aug-cc-pvtz', properties = ['dipole'])
--------------------------------------------------------------------------

    Molecular point group: c1
  Charge       = 0
  Multiplicity = 1
  Basis Set: AUG-CC-PVTZ
    Blend: AUG-CC-PVTZ
  Basis Set: (AUG-CC-PVTZ AUX)
    Blend: AUG-CC-PVTZ-JKFIT

    Orbital Energies [Eh]
    ---------------------

    Doubly Occupied:

       1A    -92.004483     2A    -15.578975     3A    -11.315785
       4A    -11.276510     5A    -11.273413     6A     -9.004656
       7A     -6.685534     8A     -6.684949     9A     -6.684313
      10A     -1.279286    11A     -1.065078    12A     -1.004963
      13A     -0.805668    14A     -0.775496    15A     -0.696512
      16A     -0.596976    17A     -0.566816    18A     -0.560581
      19A     -0.509114    20A     -0.438207    21A     -0.392586
      22A     -0.344608

  @DF-RHF Final Energy:  -567.38218314392486

   => Energetics <=

    Nuclear Repulsion Energy =            203.9418592123383007
    One-Electron Energy =               -1183.5590659482186311
    Two-Electron Energy =                 412.2350235919556098
    Total Energy =                       -567.3821831439247489
  Basis Set: (AUG-CC-PVTZ AUX)
    Blend: AUG-CC-PVTZ-RI
    Molecular point group: c1

    Geometry (in Angstrom), charge = 0, multiplicity = 1:

       Center              X                  Y                   Z               Mass
    ------------   -----------------  -----------------  -----------------  -----------------
         S            1.175522856669     0.040868551051    -0.000221968466    31.972071174400
         N           -1.294739943331    -0.757364348949     0.000255631534    14.003074004430
         C           -0.093400943331     1.236899651051    -0.000025368466    12.000000000000
         C           -1.319525943331     0.615710651051     0.000238631534    12.000000000000
         C           -0.047451943331    -1.178595348949     0.000052631534    12.000000000000
         H            0.125196056669     2.296171651051    -0.000106368466     1.007825032230
         H           -2.274025943331     1.129879651051     0.000402631534     1.007825032230
         H            0.234792056669    -2.224853348949     0.000027631534     1.007825032230

  Basis Set: AUG-CC-PVTZ
    Blend: AUG-CC-PVTZ
  Basis Set: (AUG-CC-PVTZ AUX)
    Blend: AUG-CC-PVTZ-JKFIT
	 Reference Energy          =    -567.3821831439248626 [Eh]
	 Singles Energy            =      -0.0000000000000000 [Eh]
	 Same-Spin Energy          =      -0.2454285220090607 [Eh]
	 Opposite-Spin Energy      =      -0.7303647616435683 [Eh]
	 Correlation Energy        =      -0.9757932836526291 [Eh]
	 Total Energy              =    -568.3579764275774551 [Eh]

	 ================> DF-SCS-MP2 Energies <==================
	-----------------------------------------------------------
	 SCS Same-Spin Scale       =       0.3333333333333333 [-]
	 SCS Opposite-Spin Scale   =       1.2000000000000000 [-]
	 SCS Same-Spin Energy      =      -0.0818095073363536 [Eh]
	 SCS Opposite-Spin Energy  =      -0.8764377139722820 [Eh]
	 SCS Correlation Energy    =      -0.9582472213086355 [Eh]
	 SCS Total Energy          =    -568.3404303652334875 [Eh]
	-----------------------------------------------------------

  Dipole Moment: [D]
     X:     1.3558      Y:     1.1655      Z:    -0.0003     Total:     1.7879

*** Psi4 exiting successfully. Buy a developer a beer!
