                               Psi4 1.3.2 release

  ==> Input File <==

--------------------------------------------------------------------------
#psi4
#
memory 32 gb

molecule  {
0 1
  S        1.1830230     0.0407500    -0.0002230
  N       -1.2657710    -0.7786410     0.0002510
  C       -0.1372288     1.2841842    -0.0000187
  C       -1.2905570     0.5944340     0.0002340
  C       -0.0184830    -1.1998720     0.0000480
  H        0.1541650     2.2748950    -0.0001110
  H       -2.2450570     1.1086030     0.0003980
  H        0.2637610    -2.2461300     0.0000230
units angstrom
no_reorient  #important for SAPT in psi4, default
symmetry c1  #important for SAPT in psi4, default
}

set PROPERTIES_ORIGIN ["COM"]
properties('MP2/aug-cc-pvtz', properties = ['dipole'])
--------------------------------------------------------------------------

    Molecular point group: c1
  Charge       = 0
  Multiplicity = 1
  Basis Set: AUG-CC-PVTZ
    Blend: AUG-CC-PVTZ
  Basis Set: (AUG-CC-PVTZ AUX)
    Blend: AUG-CC-PVTZ-JKFIT

    Orbital Energies [Eh]
    ---------------------

    Doubly Occupied:

       1A    -91.999311     2A    -15.578904     3A    -11.320447
       4A    -11.276185     5A    -11.272490     6A     -8.998930
       7A     -6.679811     8A     -6.679130     9A     -6.678589
      10A     -1.279230    11A     -1.057387    12A     -1.011828
      13A     -0.813821    14A     -0.777888    15A     -0.705021
      16A     -0.600342    17A     -0.577072    18A     -0.559641
      19A     -0.489761    20A     -0.437055    21A     -0.386444
      22A     -0.355120

  @DF-RHF Final Energy:  -567.37743791150695

   => Energetics <=

    Nuclear Repulsion Energy =            203.3459034511848245
    One-Electron Energy =               -1182.3778672258222286
    Two-Electron Energy =                 411.6545258631305160
    Total Energy =                       -567.3774379115069451
  Basis Set: (AUG-CC-PVTZ AUX)
    Blend: AUG-CC-PVTZ-RI
    Molecular point group: c1

    Geometry (in Angstrom), charge = 0, multiplicity = 1:

       Center              X                  Y                   Z               Mass
    ------------   -----------------  -----------------  -----------------  -----------------
         S            1.172406867533     0.044388686172    -0.000221317919    31.972071174400
         N           -1.276387132467    -0.775002313828     0.000252682081    14.003074004430
         C           -0.147844932467     1.287822886172    -0.000017017919    12.000000000000
         C           -1.301173132467     0.598072686172     0.000235682081    12.000000000000
         C           -0.029099132467    -1.196233313828     0.000049682081    12.000000000000
         H            0.143548867533     2.278533686172    -0.000109317919     1.007825032230
         H           -2.255673132467     1.112241686172     0.000399682081     1.007825032230
         H            0.253144867533    -2.242491313828     0.000024682081     1.007825032230

  Basis Set: AUG-CC-PVTZ
    Blend: AUG-CC-PVTZ
  Basis Set: (AUG-CC-PVTZ AUX)
    Blend: AUG-CC-PVTZ-JKFIT
	 Reference Energy          =    -567.3774379115069451 [Eh]
	 Singles Energy            =      -0.0000000000000000 [Eh]
	 Same-Spin Energy          =      -0.2441778435720999 [Eh]
	 Opposite-Spin Energy      =      -0.7293319276721824 [Eh]
	 Correlation Energy        =      -0.9735097712442823 [Eh]
	 Total Energy              =    -568.3509476827512117 [Eh]

	 ================> DF-SCS-MP2 Energies <==================
	-----------------------------------------------------------
	 SCS Same-Spin Scale       =       0.3333333333333333 [-]
	 SCS Opposite-Spin Scale   =       1.2000000000000000 [-]
	 SCS Same-Spin Energy      =      -0.0813926145240333 [Eh]
	 SCS Opposite-Spin Energy  =      -0.8751983132066188 [Eh]
	 SCS Correlation Energy    =      -0.9565909277306521 [Eh]
	 SCS Total Energy          =    -568.3340288392375896 [Eh]
	-----------------------------------------------------------

  Dipole Moment: [D]
     X:     1.2489      Y:     1.1980      Z:    -0.0003     Total:     1.7305

*** Psi4 exiting successfully. Buy a developer a beer!
