                               Psi4 1.3.2 release

  ==> Input File <==

--------------------------------------------------------------------------
#psi4
#
memory 32 gb

molecule  {
0 1
  S        1.1830230     0.0407500    -0.0002230
  N       -1.2657710    -0.7786410     0.0002510
  C       -0.0644320     1.2156230    -0.0000300
  C       -1.2869473     0.3944666     0.0002365
  C       -0.0184830    -1.1998720     0.0000480
  H        0.1541650     2.2748950    -0.0001110
  H       -2.2450570     1.1086030     0.0003980
  H        0.2637610    -2.2461300     0.0000230
units angstrom
no_reorient  #important for SAPT in psi4, default
symmetry c1  #important for SAPT in psi4, default
}

set PROPERTIES_ORIGIN ["COM"]
properties('MP2/aug-cc-pvtz', properties = ['dipole'])
--------------------------------------------------------------------------

    Molecular point group: c1
  Charge       = 0
  Multiplicity = 1
  Basis Set: AUG-CC-PVTZ
    Blend: AUG-CC-PVTZ
  Basis Set: (AUG-CC-PVTZ AUX)
    Blend: AUG-CC-PVTZ-JKFIT

    Orbital Energies [Eh]
    ---------------------

    Doubly Occupied:

       1A    -92.014365     2A    -15.568780     3A    -11.313820
       4A    -11.278941     5A    -11.272428     6A     -9.013626
       7A     -6.694258     8A     -6.693977     9A     -6.693564
      10A     -1.347877    11A     -1.086889    12A     -0.989537
      13A     -0.824095    14A     -0.757714    15A     -0.708778
      16A     -0.612520    17A     -0.593032    18A     -0.564035
      19A     -0.485714    20A     -0.431630    21A     -0.418056
      22A     -0.316355

  @DF-RHF Final Energy:  -567.32032226039155

   => Energetics <=

    Nuclear Repulsion Energy =            207.3512218965151135
    One-Electron Energy =               -1189.9831058841539289
    Two-Electron Energy =                 415.3115617272473514
    Total Energy =                       -567.3203222603915492
  Basis Set: (AUG-CC-PVTZ AUX)
    Blend: AUG-CC-PVTZ-RI
    Molecular point group: c1

    Geometry (in Angstrom), charge = 0, multiplicity = 1:

       Center              X                  Y                   Z               Mass
    ------------   -----------------  -----------------  -----------------  -----------------
         S            1.161619892439     0.082299221538    -0.000220075546    31.972071174400
         N           -1.287174107561    -0.737091778462     0.000253924454    14.003074004430
         C           -0.085835107561     1.257172221538    -0.000027075546    12.000000000000
         C           -1.308350407561     0.436015821538     0.000239424454    12.000000000000
         C           -0.039886107561    -1.158322778462     0.000050924454    12.000000000000
         H            0.132761892439     2.316444221538    -0.000108075546     1.007825032230
         H           -2.266460107561     1.150152221538     0.000400924454     1.007825032230
         H            0.242357892439    -2.204580778462     0.000025924454     1.007825032230

  Basis Set: AUG-CC-PVTZ
    Blend: AUG-CC-PVTZ
  Basis Set: (AUG-CC-PVTZ AUX)
    Blend: AUG-CC-PVTZ-JKFIT
	 Reference Energy          =    -567.3203222603915492 [Eh]
	 Singles Energy            =      -0.0000000000000000 [Eh]
	 Same-Spin Energy          =      -0.2507495734972160 [Eh]
	 Opposite-Spin Energy      =      -0.7343407909245336 [Eh]
	 Correlation Energy        =      -0.9850903644217497 [Eh]
	 Total Energy              =    -568.3054126248132434 [Eh]

	 ================> DF-SCS-MP2 Energies <==================
	-----------------------------------------------------------
	 SCS Same-Spin Scale       =       0.3333333333333333 [-]
	 SCS Opposite-Spin Scale   =       1.2000000000000000 [-]
	 SCS Same-Spin Energy      =      -0.0835831911657387 [Eh]
	 SCS Opposite-Spin Energy  =      -0.8812089491094404 [Eh]
	 SCS Correlation Energy    =      -0.9647921402751790 [Eh]
	 SCS Total Energy          =    -568.2851144006667710 [Eh]
	-----------------------------------------------------------

  Dipole Moment: [D]
     X:     1.4054      Y:     1.0515      Z:    -0.0003     Total:     1.7552

*** Psi4 exiting successfully. Buy a developer a beer!
