                               Psi4 1.3.2 release

  ==> Input File <==

--------------------------------------------------------------------------
#psi4
#
memory 32 gb

molecule  {
0 1
  S        1.1830230     0.0407500    -0.0002230
  N       -1.2657710    -0.7786410     0.0002510
  C        0.0083648     1.1470618    -0.0000413
  C       -1.2905570     0.5944340     0.0002340
  C       -0.0184830    -1.1998720     0.0000480
  H        0.1541650     2.2748950    -0.0001110
  H       -2.2450570     1.1086030     0.0003980
  H        0.2637610    -2.2461300     0.0000230
units angstrom
no_reorient  #important for SAPT in psi4, default
symmetry c1  #important for SAPT in psi4, default
}

set PROPERTIES_ORIGIN ["COM"]
properties('MP2/aug-cc-pvtz', properties = ['dipole'])
--------------------------------------------------------------------------

    Molecular point group: c1
  Charge       = 0
  Multiplicity = 1
  Basis Set: AUG-CC-PVTZ
    Blend: AUG-CC-PVTZ
  Basis Set: (AUG-CC-PVTZ AUX)
    Blend: AUG-CC-PVTZ-JKFIT

    Orbital Energies [Eh]
    ---------------------

    Doubly Occupied:

       1A    -92.005875     2A    -15.579419     3A    -11.307438
       4A    -11.276075     5A    -11.271930     6A     -9.008759
       7A     -6.689849     8A     -6.689074     9A     -6.688326
      10A     -1.282767    11A     -1.090903    12A     -0.993316
      13A     -0.794269    14A     -0.778962    15A     -0.694404
      16A     -0.593211    17A     -0.566797    18A     -0.563963
      19A     -0.518054    20A     -0.438413    21A     -0.403188
      22A     -0.331080

  @DF-RHF Final Energy:  -567.36901449326376

   => Energetics <=

    Nuclear Repulsion Energy =            206.4312702487962383
    One-Electron Energy =               -1188.4684223369915799
    Two-Electron Energy =                 414.6681375949316930
    Total Energy =                       -567.3690144932636485
  Basis Set: (AUG-CC-PVTZ AUX)
    Blend: AUG-CC-PVTZ-RI
    Molecular point group: c1

    Geometry (in Angstrom), charge = 0, multiplicity = 1:

       Center              X                  Y                   Z               Mass
    ------------   -----------------  -----------------  -----------------  -----------------
         S            1.151852143300     0.063747456876    -0.000218127279    31.972071174400
         N           -1.296941856700    -0.755643543124     0.000255872721    14.003074004430
         C           -0.022806056700     1.170059256876    -0.000036427279    12.000000000000
         C           -1.321727856700     0.617431456876     0.000238872721    12.000000000000
         C           -0.049653856700    -1.176874543124     0.000052872721    12.000000000000
         H            0.122994143300     2.297892456876    -0.000106127279     1.007825032230
         H           -2.276227856700     1.131600456876     0.000402872721     1.007825032230
         H            0.232590143300    -2.223132543124     0.000027872721     1.007825032230

  Basis Set: AUG-CC-PVTZ
    Blend: AUG-CC-PVTZ
  Basis Set: (AUG-CC-PVTZ AUX)
    Blend: AUG-CC-PVTZ-JKFIT
	 Reference Energy          =    -567.3690144932637622 [Eh]
	 Singles Energy            =      -0.0000000000000000 [Eh]
	 Same-Spin Energy          =      -0.2481320385193622 [Eh]
	 Opposite-Spin Energy      =      -0.7320807656126600 [Eh]
	 Correlation Energy        =      -0.9802128041320222 [Eh]
	 Total Energy              =    -568.3492272973958279 [Eh]

	 ================> DF-SCS-MP2 Energies <==================
	-----------------------------------------------------------
	 SCS Same-Spin Scale       =       0.3333333333333333 [-]
	 SCS Opposite-Spin Scale   =       1.2000000000000000 [-]
	 SCS Same-Spin Energy      =      -0.0827106795064541 [Eh]
	 SCS Opposite-Spin Energy  =      -0.8784969187351920 [Eh]
	 SCS Correlation Energy    =      -0.9612075982416460 [Eh]
	 SCS Total Energy          =    -568.3302220915054477 [Eh]
	-----------------------------------------------------------

  Dipole Moment: [D]
     X:     1.4684      Y:     1.1845      Z:    -0.0003     Total:     1.8866

*** Psi4 exiting successfully. Buy a developer a beer!
