                               Psi4 1.3.2 release

  ==> Input File <==

--------------------------------------------------------------------------
#psi4
#
memory 32 gb

molecule  {
0 1
  S        1.1830230     0.0407500    -0.0002230
  N       -1.2657710    -0.7786410     0.0002510
  C       -0.0226696     1.2584429    -0.0000394
  C       -1.2905570     0.5944340     0.0002340
  C       -0.0184830    -1.1998720     0.0000480
  H        0.1541650     2.2748950    -0.0001110
  H       -2.2450570     1.1086030     0.0003980
  H        0.2637610    -2.2461300     0.0000230
units angstrom
no_reorient  #important for SAPT in psi4, default
symmetry c1  #important for SAPT in psi4, default
}

set PROPERTIES_ORIGIN ["COM"]
properties('MP2/aug-cc-pvtz', properties = ['dipole'])
--------------------------------------------------------------------------

    Molecular point group: c1
  Charge       = 0
  Multiplicity = 1
  Basis Set: AUG-CC-PVTZ
    Blend: AUG-CC-PVTZ
  Basis Set: (AUG-CC-PVTZ AUX)
    Blend: AUG-CC-PVTZ-JKFIT

    Orbital Energies [Eh]
    ---------------------

    Doubly Occupied:

       1A    -92.005915     2A    -15.581596     3A    -11.315207
       4A    -11.283688     5A    -11.274282     6A     -9.006261
       7A     -6.687119     8A     -6.686697     9A     -6.686019
      10A     -1.278189    11A     -1.071445    12A     -0.997104
      13A     -0.810724    14A     -0.777263    15A     -0.695946
      16A     -0.598739    17A     -0.582397    18A     -0.559679
      19A     -0.502389    20A     -0.439576    21A     -0.396117
      22A     -0.335197

  @DF-RHF Final Energy:  -567.37575241558102

   => Energetics <=

    Nuclear Repulsion Energy =            204.0015425848640973
    One-Electron Energy =               -1183.6114917573554521
    Two-Electron Energy =                 412.2341967569103645
    Total Energy =                       -567.3757524155810188
  Basis Set: (AUG-CC-PVTZ AUX)
    Blend: AUG-CC-PVTZ-RI
    Molecular point group: c1

    Geometry (in Angstrom), charge = 0, multiplicity = 1:

       Center              X                  Y                   Z               Mass
    ------------   -----------------  -----------------  -----------------  -----------------
         S            1.156233541478     0.048022811044    -0.000218395519    31.972071174400
         N           -1.292560458522    -0.771368188956     0.000255604481    14.003074004430
         C           -0.049459058522     1.265715711044    -0.000034795519    12.000000000000
         C           -1.317346458522     0.601706811044     0.000238604481    12.000000000000
         C           -0.045272458522    -1.192599188956     0.000052604481    12.000000000000
         H            0.127375541478     2.282167811044    -0.000106395519     1.007825032230
         H           -2.271846458522     1.115875811044     0.000402604481     1.007825032230
         H            0.236971541478    -2.238857188956     0.000027604481     1.007825032230

  Basis Set: AUG-CC-PVTZ
    Blend: AUG-CC-PVTZ
  Basis Set: (AUG-CC-PVTZ AUX)
    Blend: AUG-CC-PVTZ-JKFIT
	 Reference Energy          =    -567.3757524155810188 [Eh]
	 Singles Energy            =      -0.0000000000000000 [Eh]
	 Same-Spin Energy          =      -0.2466863066788685 [Eh]
	 Opposite-Spin Energy      =      -0.7317359175195772 [Eh]
	 Correlation Energy        =      -0.9784222241984457 [Eh]
	 Total Energy              =    -568.3541746397794441 [Eh]

	 ================> DF-SCS-MP2 Energies <==================
	-----------------------------------------------------------
	 SCS Same-Spin Scale       =       0.3333333333333333 [-]
	 SCS Opposite-Spin Scale   =       1.2000000000000000 [-]
	 SCS Same-Spin Energy      =      -0.0822287688929562 [Eh]
	 SCS Opposite-Spin Energy  =      -0.8780831010234926 [Eh]
	 SCS Correlation Energy    =      -0.9603118699164488 [Eh]
	 SCS Total Energy          =    -568.3360642854975140 [Eh]
	-----------------------------------------------------------

  Dipole Moment: [D]
     X:     1.3537      Y:     1.1606      Z:    -0.0003     Total:     1.7831

*** Psi4 exiting successfully. Buy a developer a beer!
