                               Psi4 1.3.2 release

  ==> Input File <==

--------------------------------------------------------------------------
#psi4
#
memory 32 gb

molecule  {
0 1
  S        1.1830230     0.0407500    -0.0002230
  N       -1.2657710    -0.7786410     0.0002510
  C       -0.0644320     1.2156230    -0.0000300
  C       -1.2905570     0.5944340     0.0002340
  C       -0.0184830    -1.1998720     0.0000480
  H        0.1137437     2.0790223    -0.0000960
  H       -2.2450570     1.1086030     0.0003980
  H        0.2637610    -2.2461300     0.0000230
units angstrom
no_reorient  #important for SAPT in psi4, default
symmetry c1  #important for SAPT in psi4, default
}

set PROPERTIES_ORIGIN ["COM"]
properties('MP2/aug-cc-pvtz', properties = ['dipole'])
--------------------------------------------------------------------------

    Molecular point group: c1
  Charge       = 0
  Multiplicity = 1
  Basis Set: AUG-CC-PVTZ
    Blend: AUG-CC-PVTZ
  Basis Set: (AUG-CC-PVTZ AUX)
    Blend: AUG-CC-PVTZ-JKFIT

    Orbital Energies [Eh]
    ---------------------

    Doubly Occupied:

       1A    -92.002739     2A    -15.578415     3A    -11.314655
       4A    -11.275289     5A    -11.249361     6A     -9.003572
       7A     -6.684474     8A     -6.683954     9A     -6.683271
      10A     -1.280416    11A     -1.078482    12A     -1.008256
      13A     -0.833696    14A     -0.782014    15A     -0.714234
      16A     -0.599923    17A     -0.585283    18A     -0.562104
      19A     -0.509799    20A     -0.437762    21A     -0.393933
      22A     -0.343554

  @DF-RHF Final Energy:  -567.34662880780695

   => Energetics <=

    Nuclear Repulsion Energy =            205.9768992095428644
    One-Electron Energy =               -1187.4366827308781467
    Two-Electron Energy =                 414.1131547135283881
    Total Energy =                       -567.3466288078069510
  Basis Set: (AUG-CC-PVTZ AUX)
    Blend: AUG-CC-PVTZ-RI
    Molecular point group: c1

    Geometry (in Angstrom), charge = 0, multiplicity = 1:

       Center              X                  Y                   Z               Mass
    ------------   -----------------  -----------------  -----------------  -----------------
         S            1.162608779055     0.056390525813    -0.000219900454    31.972071174400
         N           -1.286185220945    -0.763000474187     0.000254099546    14.003074004430
         C           -0.084846220945     1.231263525813    -0.000026900454    12.000000000000
         C           -1.310971220945     0.610074525813     0.000237099546    12.000000000000
         C           -0.038897220945    -1.184231474187     0.000051099546    12.000000000000
         H            0.093329479055     2.094662825813    -0.000092900454     1.007825032230
         H           -2.265471220945     1.124243525813     0.000401099546     1.007825032230
         H            0.243346779055    -2.230489474187     0.000026099546     1.007825032230

  Basis Set: AUG-CC-PVTZ
    Blend: AUG-CC-PVTZ
  Basis Set: (AUG-CC-PVTZ AUX)
    Blend: AUG-CC-PVTZ-JKFIT
	 Reference Energy          =    -567.3466288078069510 [Eh]
	 Singles Energy            =      -0.0000000000000000 [Eh]
	 Same-Spin Energy          =      -0.2455507003592404 [Eh]
	 Opposite-Spin Energy      =      -0.7301381957999125 [Eh]
	 Correlation Energy        =      -0.9756888961591528 [Eh]
	 Total Energy              =    -568.3223177039660641 [Eh]

	 ================> DF-SCS-MP2 Energies <==================
	-----------------------------------------------------------
	 SCS Same-Spin Scale       =       0.3333333333333333 [-]
	 SCS Opposite-Spin Scale   =       1.2000000000000000 [-]
	 SCS Same-Spin Energy      =      -0.0818502334530801 [Eh]
	 SCS Opposite-Spin Energy  =      -0.8761658349598950 [Eh]
	 SCS Correlation Energy    =      -0.9580160684129750 [Eh]
	 SCS Total Energy          =    -568.3046448762199816 [Eh]
	-----------------------------------------------------------

  Dipole Moment: [D]
     X:     1.3524      Y:     1.1292      Z:    -0.0003     Total:     1.7618

*** Psi4 exiting successfully. Buy a developer a beer!
