                               Psi4 1.3.2 release

  ==> Input File <==

--------------------------------------------------------------------------
#psi4
#
memory 32 gb

molecule  {
0 1
  S        1.1830230     0.0407500    -0.0002230
  N       -1.2657710    -0.7786410     0.0002510
  C       -0.0537775     1.1941296    -0.0000312
  C       -1.2905570     0.5944340     0.0002340
  C       -0.0184830    -1.1998720     0.0000480
  H        0.1541650     2.2748950    -0.0001110
  H       -2.2450570     1.1086030     0.0003980
  H        0.2637610    -2.2461300     0.0000230
units angstrom
no_reorient  #important for SAPT in psi4, default
symmetry c1  #important for SAPT in psi4, default
}

set PROPERTIES_ORIGIN ["COM"]
properties('MP2/aug-cc-pvtz', properties = ['dipole'])
--------------------------------------------------------------------------

    Molecular point group: c1
  Charge       = 0
  Multiplicity = 1
  Basis Set: AUG-CC-PVTZ
    Blend: AUG-CC-PVTZ
  Basis Set: (AUG-CC-PVTZ AUX)
    Blend: AUG-CC-PVTZ-JKFIT

    Orbital Energies [Eh]
    ---------------------

    Doubly Occupied:

       1A    -92.003843     2A    -15.578725     3A    -11.312954
       4A    -11.274247     5A    -11.270742     6A     -9.005061
       7A     -6.685963     8A     -6.685441     9A     -6.684707
      10A     -1.281437    11A     -1.074620    12A     -1.002505
      13A     -0.801931    14A     -0.776934    15A     -0.697077
      16A     -0.595347    17A     -0.565476    18A     -0.563664
      19A     -0.514656    20A     -0.437777    21A     -0.395663
      22A     -0.341731

  @DF-RHF Final Energy:  -567.38177069307903

   => Energetics <=

    Nuclear Repulsion Energy =            205.2840763111251192
    One-Electron Energy =               -1186.2306879084278535
    Two-Electron Energy =                 413.5648409042237290
    Total Energy =                       -567.3817706930790337
  Basis Set: (AUG-CC-PVTZ AUX)
    Blend: AUG-CC-PVTZ-RI
    Molecular point group: c1

    Geometry (in Angstrom), charge = 0, multiplicity = 1:

       Center              X                  Y                   Z               Mass
    ------------   -----------------  -----------------  -----------------  -----------------
         S            1.160625316295     0.057102483132    -0.000219553185    31.972071174400
         N           -1.288168683705    -0.762288516868     0.000254446815    14.003074004430
         C           -0.076175183705     1.210482083132    -0.000027753185    12.000000000000
         C           -1.312954683705     0.610786483132     0.000237446815    12.000000000000
         C           -0.040880683705    -1.183519516868     0.000051446815    12.000000000000
         H            0.131767316295     2.291247483132    -0.000107553185     1.007825032230
         H           -2.267454683705     1.124955483132     0.000401446815     1.007825032230
         H            0.241363316295    -2.229777516868     0.000026446815     1.007825032230

  Basis Set: AUG-CC-PVTZ
    Blend: AUG-CC-PVTZ
  Basis Set: (AUG-CC-PVTZ AUX)
    Blend: AUG-CC-PVTZ-JKFIT
	 Reference Energy          =    -567.3817706930790337 [Eh]
	 Singles Energy            =      -0.0000000000000000 [Eh]
	 Same-Spin Energy          =      -0.2461461006756441 [Eh]
	 Opposite-Spin Energy      =      -0.7303520433053352 [Eh]
	 Correlation Energy        =      -0.9764981439809792 [Eh]
	 Total Energy              =    -568.3582688370599953 [Eh]

	 ================> DF-SCS-MP2 Energies <==================
	-----------------------------------------------------------
	 SCS Same-Spin Scale       =       0.3333333333333333 [-]
	 SCS Opposite-Spin Scale   =       1.2000000000000000 [-]
	 SCS Same-Spin Energy      =      -0.0820487002252147 [Eh]
	 SCS Opposite-Spin Energy  =      -0.8764224519664022 [Eh]
	 SCS Correlation Energy    =      -0.9584711521916169 [Eh]
	 SCS Total Energy          =    -568.3402418452706115 [Eh]
	-----------------------------------------------------------

  Dipole Moment: [D]
     X:     1.3943      Y:     1.1778      Z:    -0.0003     Total:     1.8251

*** Psi4 exiting successfully. Buy a developer a beer!
