                               Psi4 1.4a3.dev225

  ==> Input File <==

--------------------------------------------------------------------------
#psi4
#
memory 32 gb

molecule  {
0 1
  S        1.1830230     0.0407500    -0.0002230
  N       -1.2657710    -0.7786410     0.0002510
  C       -0.0644320     1.2156230    -0.0000300
  C       -1.2905570     0.5944340     0.0002340
  C       -0.0532676    -1.2357890     0.0000558
  H        0.1541650     2.2748950    -0.0001110
  H       -2.2450570     1.1086030     0.0003980
  H        0.2637610    -2.2461300     0.0000230
units angstrom
no_reorient  #important for SAPT in psi4, default
symmetry c1  #important for SAPT in psi4, default
}

set PROPERTIES_ORIGIN ["COM"]
properties('MP2/aug-cc-pvtz', properties = ['dipole'])
--------------------------------------------------------------------------

    Molecular point group: c1
  Charge       = 0
  Multiplicity = 1
  Basis Set: AUG-CC-PVTZ
    Blend: AUG-CC-PVTZ
  Basis Set: (AUG-CC-PVTZ AUX)
    Blend: AUG-CC-PVTZ-JKFIT

    Orbital Energies [Eh]
    ---------------------

    Doubly Occupied:

       1A    -91.999314     2A    -15.580090     3A    -11.315740
       4A    -11.275601     5A    -11.273355     6A     -8.999501
       7A     -6.680357     8A     -6.679839     9A     -6.679169
      10A     -1.284000    11A     -1.068385    12A     -1.001539
      13A     -0.808913    14A     -0.779844    15A     -0.698069
      16A     -0.608101    17A     -0.567189    18A     -0.561727
      19A     -0.507143    20A     -0.431189    21A     -0.396523
      22A     -0.341641

  @DF-RHF Final Energy:  -567.38218293548073

   => Energetics <=

    Nuclear Repulsion Energy =            204.1645238431697464
    One-Electron Energy =               -1184.0189563144426756
    Two-Electron Energy =                 412.4722495357922867
    Total Energy =                       -567.3821829354806141
  Basis Set: (AUG-CC-PVTZ AUX)
    Blend: AUG-CC-PVTZ-RI
    Molecular point group: c1

    Geometry (in Angstrom), charge = 0, multiplicity = 1:

       Center              X                  Y                   Z               Mass
    ------------   -----------------  -----------------  -----------------  -----------------
         S            1.167040352188     0.059138789126    -0.000220823794    31.972071174400
         N           -1.281753647812    -0.760252210874     0.000253176206    14.003074004430
         C           -0.080414647812     1.234011789126    -0.000027823794    12.000000000000
         C           -1.306539647812     0.612822789126     0.000236176206    12.000000000000
         C           -0.069250247812    -1.217400210874     0.000057976206    12.000000000000
         H            0.138182352188     2.293283789126    -0.000108823794     1.007825032230
         H           -2.261039647812     1.126991789126     0.000400176206     1.007825032230
         H            0.247778352188    -2.227741210874     0.000025176206     1.007825032230

  Basis Set: AUG-CC-PVTZ
    Blend: AUG-CC-PVTZ
  Basis Set: (AUG-CC-PVTZ AUX)
    Blend: AUG-CC-PVTZ-JKFIT
	 Reference Energy          =    -567.3821829354807278 [Eh]
	 Singles Energy            =      -0.0000000000000000 [Eh]
	 Same-Spin Energy          =      -0.2451604739419755 [Eh]
	 Opposite-Spin Energy      =      -0.7297341137894229 [Eh]
	 Correlation Energy        =      -0.9748945877313984 [Eh]
	 Total Energy              =    -568.3570775232120695 [Eh]

	 ================> DF-SCS-MP2 Energies <==================
	-----------------------------------------------------------
	 SCS Same-Spin Scale       =       0.3333333333333333 [-]
	 SCS Opposite-Spin Scale   =       1.2000000000000000 [-]
	 SCS Same-Spin Energy      =      -0.0817201579806585 [Eh]
	 SCS Opposite-Spin Energy  =      -0.8756809365473074 [Eh]
	 SCS Correlation Energy    =      -0.9574010945279658 [Eh]
	 SCS Total Energy          =    -568.3395840300087229 [Eh]
	-----------------------------------------------------------

  Dipole Moment: [D]
     X:     1.2078      Y:     1.0726      Z:    -0.0002     Total:     1.6153

*** Psi4 exiting successfully. Buy a developer a beer!
