                               Psi4 1.3.2 release

  ==> Input File <==

--------------------------------------------------------------------------
#psi4
#
memory 32 gb

molecule  {
0 1
  S        1.1830230     0.0407500    -0.0002230
  N       -1.2657710    -0.7786410     0.0002510
  C       -0.0644320     1.2156230    -0.0000300
  C       -1.2905570     0.5944340     0.0002340
  C       -0.0184830    -1.1998720     0.0000480
  H        0.1541650     2.2748950    -0.0001110
  H       -2.2450570     1.1086030     0.0003980
  H        0.2116701    -2.0530328     0.0000276
units angstrom
no_reorient  #important for SAPT in psi4, default
symmetry c1  #important for SAPT in psi4, default
}

set PROPERTIES_ORIGIN ["COM"]
properties('MP2/aug-cc-pvtz', properties = ['dipole'])
--------------------------------------------------------------------------

    Molecular point group: c1
  Charge       = 0
  Multiplicity = 1
  Basis Set: AUG-CC-PVTZ
    Blend: AUG-CC-PVTZ
  Basis Set: (AUG-CC-PVTZ AUX)
    Blend: AUG-CC-PVTZ-JKFIT

    Orbital Energies [Eh]
    ---------------------

    Doubly Occupied:

       1A    -92.002820     2A    -15.579017     3A    -11.292941
       4A    -11.274733     5A    -11.271528     6A     -9.003659
       7A     -6.684560     8A     -6.684051     9A     -6.683371
      10A     -1.281405    11A     -1.070385    12A     -1.018313
      13A     -0.836997    14A     -0.788258    15A     -0.702540
      16A     -0.611045    17A     -0.574715    18A     -0.562223
      19A     -0.510110    20A     -0.439381    21A     -0.393599
      22A     -0.343736

  @DF-RHF Final Energy:  -567.34686453368363

   => Energetics <=

    Nuclear Repulsion Energy =            205.9926619542155777
    One-Electron Energy =               -1187.4602806396692358
    Two-Electron Energy =                 414.1207541517700861
    Total Energy =                       -567.3468645336836289
  Basis Set: (AUG-CC-PVTZ AUX)
    Blend: AUG-CC-PVTZ-RI
    Molecular point group: c1

    Geometry (in Angstrom), charge = 0, multiplicity = 1:

       Center              X                  Y                   Z               Mass
    ------------   -----------------  -----------------  -----------------  -----------------
         S            1.162747145006     0.051778526221    -0.000219777141    31.972071174400
         N           -1.286046854994    -0.767612473779     0.000254222859    14.003074004430
         C           -0.084707854994     1.226651526221    -0.000026777141    12.000000000000
         C           -1.310832854994     0.605462526221     0.000237222859    12.000000000000
         C           -0.038758854994    -1.188843473779     0.000051222859    12.000000000000
         H            0.133889145006     2.285923526221    -0.000107777141     1.007825032230
         H           -2.265332854994     1.119631526221     0.000401222859     1.007825032230
         H            0.191394245006    -2.042004273779     0.000030822859     1.007825032230

  Basis Set: AUG-CC-PVTZ
    Blend: AUG-CC-PVTZ
  Basis Set: (AUG-CC-PVTZ AUX)
    Blend: AUG-CC-PVTZ-JKFIT
	 Reference Energy          =    -567.3468645336836289 [Eh]
	 Singles Energy            =      -0.0000000000000000 [Eh]
	 Same-Spin Energy          =      -0.2456142105818560 [Eh]
	 Opposite-Spin Energy      =      -0.7302729508112999 [Eh]
	 Correlation Energy        =      -0.9758871613931559 [Eh]
	 Total Energy              =    -568.3227516950768177 [Eh]

	 ================> DF-SCS-MP2 Energies <==================
	-----------------------------------------------------------
	 SCS Same-Spin Scale       =       0.3333333333333333 [-]
	 SCS Opposite-Spin Scale   =       1.2000000000000000 [-]
	 SCS Same-Spin Energy      =      -0.0818714035272853 [Eh]
	 SCS Opposite-Spin Energy  =      -0.8763275409735599 [Eh]
	 SCS Correlation Energy    =      -0.9581989445008452 [Eh]
	 SCS Total Energy          =    -568.3050634781844792 [Eh]
	-----------------------------------------------------------

  Dipole Moment: [D]
     X:     1.3699      Y:     1.2267      Z:    -0.0003     Total:     1.8389

*** Psi4 exiting successfully. Buy a developer a beer!
