                               Psi4 1.4a3.dev225

  ==> Input File <==

--------------------------------------------------------------------------
#psi4
#
memory 32 gb

molecule  {
0 1
  S        1.1830230     0.0407500    -0.0002230
  N       -1.2657710    -0.7786410     0.0002510
  C       -0.0498726     1.2019108    -0.0000323
  C       -1.2905570     0.5944340     0.0002340
  C       -0.0184830    -1.1998720     0.0000480
  H        0.1541650     2.2748950    -0.0001110
  H       -2.2450570     1.1086030     0.0003980
  H        0.2637610    -2.2461300     0.0000230
units angstrom
no_reorient  #important for SAPT in psi4, default
symmetry c1  #important for SAPT in psi4, default
}

set PROPERTIES_ORIGIN ["COM"]
properties('MP2/aug-cc-pvtz', properties = ['dipole'])
--------------------------------------------------------------------------

    Molecular point group: c1
  Charge       = 0
  Multiplicity = 1
  Basis Set: AUG-CC-PVTZ
    Blend: AUG-CC-PVTZ
  Basis Set: (AUG-CC-PVTZ AUX)
    Blend: AUG-CC-PVTZ-JKFIT

    Orbital Energies [Eh]
    ---------------------

    Doubly Occupied:

       1A    -92.004069     2A    -15.579056     3A    -11.313195
       4A    -11.275382     5A    -11.271200     6A     -9.005187
       7A     -6.686084     8A     -6.685575     9A     -6.684847
      10A     -1.280955    11A     -1.074278    12A     -1.001731
      13A     -0.802563    14A     -0.777186    15A     -0.696984
      16A     -0.595575    17A     -0.567854    18A     -0.563122
      19A     -0.513180    20A     -0.438001    21A     -0.395727
      22A     -0.340878

  @DF-RHF Final Energy:  -567.38181439142465

   => Energetics <=

    Nuclear Repulsion Energy =            205.1267814973014936
    One-Electron Energy =               -1185.9119348711933526
    Two-Electron Energy =                 413.4033389824672327
    Total Energy =                       -567.3818143914245411
  Basis Set: (AUG-CC-PVTZ AUX)
    Blend: AUG-CC-PVTZ-RI
    Molecular point group: c1

    Geometry (in Angstrom), charge = 0, multiplicity = 1:

       Center              X                  Y                   Z               Mass
    ------------   -----------------  -----------------  -----------------  -----------------
         S            1.160074027346     0.056003942947    -0.000219397888    31.972071174400
         N           -1.288719972654    -0.763387057053     0.000254602112    14.003074004430
         C           -0.072821572654     1.217164742947    -0.000028697888    12.000000000000
         C           -1.313505972654     0.609687942947     0.000237602112    12.000000000000
         C           -0.041431972654    -1.184618057053     0.000051602112    12.000000000000
         H            0.131216027346     2.290148942947    -0.000107397888     1.007825032230
         H           -2.268005972654     1.123856942947     0.000401602112     1.007825032230
         H            0.240812027346    -2.230876057053     0.000026602112     1.007825032230

  Basis Set: AUG-CC-PVTZ
    Blend: AUG-CC-PVTZ
  Basis Set: (AUG-CC-PVTZ AUX)
    Blend: AUG-CC-PVTZ-JKFIT
	 Reference Energy          =    -567.3818143914246548 [Eh]
	 Singles Energy            =      -0.0000000000000000 [Eh]
	 Same-Spin Energy          =      -0.2462017009819989 [Eh]
	 Opposite-Spin Energy      =      -0.7304768544749891 [Eh]
	 Correlation Energy        =      -0.9766785554569880 [Eh]
	 Total Energy              =    -568.3584929468815972 [Eh]

	 ================> DF-SCS-MP2 Energies <==================
	-----------------------------------------------------------
	 SCS Same-Spin Scale       =       0.3333333333333333 [-]
	 SCS Opposite-Spin Scale   =       1.2000000000000000 [-]
	 SCS Same-Spin Energy      =      -0.0820672336606663 [Eh]
	 SCS Opposite-Spin Energy  =      -0.8765722253699869 [Eh]
	 SCS Correlation Energy    =      -0.9586394590306532 [Eh]
	 SCS Total Energy          =    -568.3404538504553329 [Eh]
	-----------------------------------------------------------

  Dipole Moment: [D]
     X:     1.3899      Y:     1.1772      Z:    -0.0003     Total:     1.8214

*** Psi4 exiting successfully. Buy a developer a beer!
