                               Psi4 1.3.2 release

  ==> Input File <==

--------------------------------------------------------------------------
#psi4
#
memory 32 gb

molecule  {
0 1
  S        1.1830230     0.0407500    -0.0002230
  N       -1.2657710    -0.7786410     0.0002510
  C       -0.0644320     1.2156230    -0.0000300
  C       -1.2905570     0.5944340     0.0002340
  C       -0.0184830    -1.1998720     0.0000480
  H        0.1945863     2.4707677    -0.0001260
  H       -2.2450570     1.1086030     0.0003980
  H        0.2637610    -2.2461300     0.0000230
units angstrom
no_reorient  #important for SAPT in psi4, default
symmetry c1  #important for SAPT in psi4, default
}

set PROPERTIES_ORIGIN ["COM"]
properties('MP2/aug-cc-pvtz', properties = ['dipole'])
--------------------------------------------------------------------------

    Molecular point group: c1
  Charge       = 0
  Multiplicity = 1
  Basis Set: AUG-CC-PVTZ
    Blend: AUG-CC-PVTZ
  Basis Set: (AUG-CC-PVTZ AUX)
    Blend: AUG-CC-PVTZ-JKFIT

    Orbital Energies [Eh]
    ---------------------

    Doubly Occupied:

       1A    -92.004980     2A    -15.580139     3A    -11.315103
       4A    -11.290502     5A    -11.276033     6A     -9.005632
       7A     -6.686490     8A     -6.685991     9A     -6.685267
      10A     -1.281503    11A     -1.068098    12A     -1.001919
      13A     -0.795569    14A     -0.770348    15A     -0.681689
      16A     -0.595652    17A     -0.563313    18A     -0.542428
      19A     -0.510999    20A     -0.438368    21A     -0.394678
      22A     -0.343860

  @DF-RHF Final Energy:  -567.35984248296847

   => Energetics <=

    Nuclear Repulsion Energy =            203.9152030196298711
    One-Electron Energy =               -1183.5129690043327173
    Two-Electron Energy =                 412.2379235017342580
    Total Energy =                       -567.3598424829685882
  Basis Set: (AUG-CC-PVTZ AUX)
    Blend: AUG-CC-PVTZ-RI
    Molecular point group: c1

    Geometry (in Angstrom), charge = 0, multiplicity = 1:

       Center              X                  Y                   Z               Mass
    ------------   -----------------  -----------------  -----------------  -----------------
         S            1.161650231778     0.051745617235    -0.000219544745    31.972071174400
         N           -1.287143768222    -0.767645382765     0.000254455255    14.003074004430
         C           -0.085804768222     1.226618617235    -0.000026544745    12.000000000000
         C           -1.311929768222     0.605429617235     0.000237455255    12.000000000000
         C           -0.039855768222    -1.188876382765     0.000051455255    12.000000000000
         H            0.173213531778     2.481763317235    -0.000122544745     1.007825032230
         H           -2.266429768222     1.119598617235     0.000401455255     1.007825032230
         H            0.242388231778    -2.235134382765     0.000026455255     1.007825032230

  Basis Set: AUG-CC-PVTZ
    Blend: AUG-CC-PVTZ
  Basis Set: (AUG-CC-PVTZ AUX)
    Blend: AUG-CC-PVTZ-JKFIT
	 Reference Energy          =    -567.3598424829684745 [Eh]
	 Singles Energy            =      -0.0000000000000000 [Eh]
	 Same-Spin Energy          =      -0.2463215945315426 [Eh]
	 Opposite-Spin Energy      =      -0.7320233506863014 [Eh]
	 Correlation Energy        =      -0.9783449452178441 [Eh]
	 Total Energy              =    -568.3381874281863020 [Eh]

	 ================> DF-SCS-MP2 Energies <==================
	-----------------------------------------------------------
	 SCS Same-Spin Scale       =       0.3333333333333333 [-]
	 SCS Opposite-Spin Scale   =       1.2000000000000000 [-]
	 SCS Same-Spin Energy      =      -0.0821071981771809 [Eh]
	 SCS Opposite-Spin Energy  =      -0.8784280208235616 [Eh]
	 SCS Correlation Energy    =      -0.9605352190007426 [Eh]
	 SCS Total Energy          =    -568.3203777019691643 [Eh]
	-----------------------------------------------------------

  Dipole Moment: [D]
     X:     1.3822      Y:     1.1930      Z:    -0.0003     Total:     1.8259

*** Psi4 exiting successfully. Buy a developer a beer!
