                               Psi4 1.4a3.dev225

  ==> Input File <==

--------------------------------------------------------------------------
#psi4
#
memory 32 gb

molecule  {
0 1
  S        1.1830230     0.0407500    -0.0002230
  N       -1.2657710    -0.7786410     0.0002510
  C       -0.0644320     1.2156230    -0.0000300
  C       -1.3083980     0.5853953     0.0002378
  C       -0.0184830    -1.1998720     0.0000480
  H        0.1541650     2.2748950    -0.0001110
  H       -2.2450570     1.1086030     0.0003980
  H        0.2637610    -2.2461300     0.0000230
units angstrom
no_reorient  #important for SAPT in psi4, default
symmetry c1  #important for SAPT in psi4, default
}

set PROPERTIES_ORIGIN ["COM"]
properties('MP2/aug-cc-pvtz', properties = ['dipole'])
--------------------------------------------------------------------------

    Molecular point group: c1
  Charge       = 0
  Multiplicity = 1
  Basis Set: AUG-CC-PVTZ
    Blend: AUG-CC-PVTZ
  Basis Set: (AUG-CC-PVTZ AUX)
    Blend: AUG-CC-PVTZ-JKFIT

    Orbital Energies [Eh]
    ---------------------

    Doubly Occupied:

       1A    -92.004535     2A    -15.578738     3A    -11.314037
       4A    -11.276563     5A    -11.273215     6A     -9.005161
       7A     -6.686034     8A     -6.685523     9A     -6.684855
      10A     -1.281139    11A     -1.069959    12A     -1.002121
      13A     -0.804360    14A     -0.778467    15A     -0.696726
      16A     -0.601411    17A     -0.568639    18A     -0.561943
      19A     -0.509642    20A     -0.437004    21A     -0.395017
      22A     -0.339586

  @DF-RHF Final Energy:  -567.38143354843385

   => Energetics <=

    Nuclear Repulsion Energy =            204.6055269945525765
    One-Electron Energy =               -1184.8645711014587505
    Two-Electron Energy =                 412.8776105584724405
    Total Energy =                       -567.3814335484337334
  Basis Set: (AUG-CC-PVTZ AUX)
    Blend: AUG-CC-PVTZ-RI
    Molecular point group: c1

    Geometry (in Angstrom), charge = 0, multiplicity = 1:

       Center              X                  Y                   Z               Mass
    ------------   -----------------  -----------------  -----------------  -----------------
         S            1.164648275713     0.055344144002    -0.000220259079    31.972071174400
         N           -1.284145724287    -0.764046855998     0.000253740921    14.003074004430
         C           -0.082806724287     1.230217144002    -0.000027259079    12.000000000000
         C           -1.326772724287     0.599989444002     0.000240540921    12.000000000000
         C           -0.036857724287    -1.185277855998     0.000050740921    12.000000000000
         H            0.135790275713     2.289489144002    -0.000108259079     1.007825032230
         H           -2.263431724287     1.123197144002     0.000400740921     1.007825032230
         H            0.245386275713    -2.231535855998     0.000025740921     1.007825032230

  Basis Set: AUG-CC-PVTZ
    Blend: AUG-CC-PVTZ
  Basis Set: (AUG-CC-PVTZ AUX)
    Blend: AUG-CC-PVTZ-JKFIT
	 Reference Energy          =    -567.3814335484338471 [Eh]
	 Singles Energy            =      -0.0000000000000000 [Eh]
	 Same-Spin Energy          =      -0.2462775154825734 [Eh]
	 Opposite-Spin Energy      =      -0.7307544635550851 [Eh]
	 Correlation Energy        =      -0.9770319790376585 [Eh]
	 Total Energy              =    -568.3584655274714805 [Eh]

	 ================> DF-SCS-MP2 Energies <==================
	-----------------------------------------------------------
	 SCS Same-Spin Scale       =       0.3333333333333333 [-]
	 SCS Opposite-Spin Scale   =       1.2000000000000000 [-]
	 SCS Same-Spin Energy      =      -0.0820925051608578 [Eh]
	 SCS Opposite-Spin Energy  =      -0.8769053562661021 [Eh]
	 SCS Correlation Energy    =      -0.9589978614269599 [Eh]
	 SCS Total Energy          =    -568.3404314098607983 [Eh]
	-----------------------------------------------------------

  Dipole Moment: [D]
     X:     1.3632      Y:     1.1773      Z:    -0.0003     Total:     1.8012

*** Psi4 exiting successfully. Buy a developer a beer!
