                               Psi4 1.3.2 release

  ==> Input File <==

--------------------------------------------------------------------------
#psi4
#
memory 32 gb

molecule  {
0 1
  S        1.1830230     0.0407500    -0.0002230
  N       -1.2657710    -0.7786410     0.0002510
  C       -0.0644320     1.2156230    -0.0000300
  C       -1.3145167     0.5937923     0.0002380
  C       -0.0184830    -1.1998720     0.0000480
  H        0.1541650     2.2748950    -0.0001110
  H       -2.2450570     1.1086030     0.0003980
  H        0.2637610    -2.2461300     0.0000230
units angstrom
no_reorient  #important for SAPT in psi4, default
symmetry c1  #important for SAPT in psi4, default
}

set PROPERTIES_ORIGIN ["COM"]
properties('MP2/aug-cc-pvtz', properties = ['dipole'])
--------------------------------------------------------------------------

    Molecular point group: c1
  Charge       = 0
  Multiplicity = 1
  Basis Set: AUG-CC-PVTZ
    Blend: AUG-CC-PVTZ
  Basis Set: (AUG-CC-PVTZ AUX)
    Blend: AUG-CC-PVTZ-JKFIT

    Orbital Energies [Eh]
    ---------------------

    Doubly Occupied:

       1A    -92.004462     2A    -15.579096     3A    -11.313879
       4A    -11.276780     5A    -11.273857     6A     -9.005102
       7A     -6.685983     8A     -6.685459     9A     -6.684789
      10A     -1.278497    11A     -1.069128    12A     -1.002338
      13A     -0.803308    14A     -0.780017    15A     -0.696202
      16A     -0.602278    17A     -0.568126    18A     -0.560664
      19A     -0.511305    20A     -0.435938    21A     -0.394302
      22A     -0.339878

  @DF-RHF Final Energy:  -567.38101541201138

   => Energetics <=

    Nuclear Repulsion Energy =            204.4103453488806110
    One-Electron Energy =               -1184.4799457525525668
    Two-Electron Energy =                 412.6885849916606617
    Total Energy =                       -567.3810154120112657
  Basis Set: (AUG-CC-PVTZ AUX)
    Blend: AUG-CC-PVTZ-RI
    Molecular point group: c1

    Geometry (in Angstrom), charge = 0, multiplicity = 1:

       Center              X                  Y                   Z               Mass
    ------------   -----------------  -----------------  -----------------  -----------------
         S            1.165512106205     0.054158665936    -0.000220287314    31.972071174400
         N           -1.283281893795    -0.765232334064     0.000253712686    14.003074004430
         C           -0.081942893795     1.229031665936    -0.000027287314    12.000000000000
         C           -1.332027593795     0.607200965936     0.000240712686    12.000000000000
         C           -0.035993893795    -1.186463334064     0.000050712686    12.000000000000
         H            0.136654106205     2.288303665936    -0.000108287314     1.007825032230
         H           -2.262567893795     1.122011665936     0.000400712686     1.007825032230
         H            0.246250106205    -2.232721334064     0.000025712686     1.007825032230

  Basis Set: AUG-CC-PVTZ
    Blend: AUG-CC-PVTZ
  Basis Set: (AUG-CC-PVTZ AUX)
    Blend: AUG-CC-PVTZ-JKFIT
	 Reference Energy          =    -567.3810154120113793 [Eh]
	 Singles Energy            =      -0.0000000000000000 [Eh]
	 Same-Spin Energy          =      -0.2461905436121795 [Eh]
	 Opposite-Spin Energy      =      -0.7308670455122059 [Eh]
	 Correlation Energy        =      -0.9770575891243853 [Eh]
	 Total Energy              =    -568.3580730011357218 [Eh]

	 ================> DF-SCS-MP2 Energies <==================
	-----------------------------------------------------------
	 SCS Same-Spin Scale       =       0.3333333333333333 [-]
	 SCS Opposite-Spin Scale   =       1.2000000000000000 [-]
	 SCS Same-Spin Energy      =      -0.0820635145373931 [Eh]
	 SCS Opposite-Spin Energy  =      -0.8770404546146471 [Eh]
	 SCS Correlation Energy    =      -0.9591039691520402 [Eh]
	 SCS Total Energy          =    -568.3401193811633902 [Eh]
	-----------------------------------------------------------

  Dipole Moment: [D]
     X:     1.3581      Y:     1.1791      Z:    -0.0003     Total:     1.7985

*** Psi4 exiting successfully. Buy a developer a beer!
