                               Psi4 1.4a3.dev225

  ==> Input File <==

--------------------------------------------------------------------------
#psi4
#
memory 32 gb

molecule  {
0 1
  S        1.1830230     0.0407500    -0.0002230
  N       -1.2657710    -0.7786410     0.0002510
  C       -0.0789914     1.2293352    -0.0000277
  C       -1.2905570     0.5944340     0.0002340
  C       -0.0184830    -1.1998720     0.0000480
  H        0.1541650     2.2748950    -0.0001110
  H       -2.2450570     1.1086030     0.0003980
  H        0.2637610    -2.2461300     0.0000230
units angstrom
no_reorient  #important for SAPT in psi4, default
symmetry c1  #important for SAPT in psi4, default
}

set PROPERTIES_ORIGIN ["COM"]
properties('MP2/aug-cc-pvtz', properties = ['dipole'])
--------------------------------------------------------------------------

    Molecular point group: c1
  Charge       = 0
  Multiplicity = 1
  Basis Set: AUG-CC-PVTZ
    Blend: AUG-CC-PVTZ
  Basis Set: (AUG-CC-PVTZ AUX)
    Blend: AUG-CC-PVTZ-JKFIT

    Orbital Energies [Eh]
    ---------------------

    Doubly Occupied:

       1A    -92.002772     2A    -15.578960     3A    -11.315784
       4A    -11.275346     5A    -11.271248     6A     -9.003255
       7A     -6.684131     8A     -6.683598     9A     -6.682929
      10A     -1.280272    11A     -1.067493    12A     -1.005552
      13A     -0.806451    14A     -0.776849    15A     -0.699219
      16A     -0.596959    17A     -0.571285    18A     -0.561728
      19A     -0.506680    20A     -0.437771    21A     -0.392402
      22A     -0.345697

  @DF-RHF Final Energy:  -567.38315277380264

   => Energetics <=

    Nuclear Repulsion Energy =            204.5130825455918000
    One-Electron Energy =               -1184.6997049386955041
    Two-Electron Energy =                 412.8034696193010404
    Total Energy =                       -567.3831527738026352
  Basis Set: (AUG-CC-PVTZ AUX)
    Blend: AUG-CC-PVTZ-RI
    Molecular point group: c1

    Geometry (in Angstrom), charge = 0, multiplicity = 1:

       Center              X                  Y                   Z               Mass
    ------------   -----------------  -----------------  -----------------  -----------------
         S            1.164184983487     0.052132200101    -0.000220047310    31.972071174400
         N           -1.284609016513    -0.767258799899     0.000253952690    14.003074004430
         C           -0.097829416513     1.240717400101    -0.000024747310    12.000000000000
         C           -1.309395016513     0.605816200101     0.000236952690    12.000000000000
         C           -0.037321016513    -1.188489799899     0.000050952690    12.000000000000
         H            0.135326983487     2.286277200101    -0.000108047310     1.007825032230
         H           -2.263895016513     1.119985200101     0.000400952690     1.007825032230
         H            0.244922983487    -2.234747799899     0.000025952690     1.007825032230

  Basis Set: AUG-CC-PVTZ
    Blend: AUG-CC-PVTZ
  Basis Set: (AUG-CC-PVTZ AUX)
    Blend: AUG-CC-PVTZ-JKFIT
	 Reference Energy          =    -567.3831527738026352 [Eh]
	 Singles Energy            =      -0.0000000000000000 [Eh]
	 Same-Spin Energy          =      -0.2454080323807672 [Eh]
	 Opposite-Spin Energy      =      -0.7299347095420053 [Eh]
	 Correlation Energy        =      -0.9753427419227726 [Eh]
	 Total Energy              =    -568.3584955157253944 [Eh]

	 ================> DF-SCS-MP2 Energies <==================
	-----------------------------------------------------------
	 SCS Same-Spin Scale       =       0.3333333333333333 [-]
	 SCS Opposite-Spin Scale   =       1.2000000000000000 [-]
	 SCS Same-Spin Energy      =      -0.0818026774602557 [Eh]
	 SCS Opposite-Spin Energy  =      -0.8759216514504063 [Eh]
	 SCS Correlation Energy    =      -0.9577243289106621 [Eh]
	 SCS Total Energy          =    -568.3408771027133071 [Eh]
	-----------------------------------------------------------

  Dipole Moment: [D]
     X:     1.3459      Y:     1.1796      Z:    -0.0003     Total:     1.7897

*** Psi4 exiting successfully. Buy a developer a beer!
