                               Psi4 1.4a3.dev225

  ==> Input File <==

--------------------------------------------------------------------------
#psi4
#
memory 32 gb

molecule  {
0 1
  S        1.1830230     0.0407500    -0.0002230
  N       -1.2657710    -0.7786410     0.0002510
  C       -0.0644320     1.2156230    -0.0000300
  C       -1.2905570     0.5944340     0.0002340
  C       -0.0184830    -1.1998720     0.0000480
  H        0.1541650     2.2748950    -0.0001110
  H       -2.2274492     1.0991180     0.0003950
  H        0.2637610    -2.2461300     0.0000230
units angstrom
no_reorient  #important for SAPT in psi4, default
symmetry c1  #important for SAPT in psi4, default
}

set PROPERTIES_ORIGIN ["COM"]
properties('MP2/aug-cc-pvtz', properties = ['dipole'])
--------------------------------------------------------------------------

    Molecular point group: c1
  Charge       = 0
  Multiplicity = 1
  Basis Set: AUG-CC-PVTZ
    Blend: AUG-CC-PVTZ
  Basis Set: (AUG-CC-PVTZ AUX)
    Blend: AUG-CC-PVTZ-JKFIT

    Orbital Energies [Eh]
    ---------------------

    Doubly Occupied:

       1A    -92.003361     2A    -15.578819     3A    -11.314370
       4A    -11.273207     5A    -11.270969     6A     -9.004145
       7A     -6.685028     8A     -6.684515     9A     -6.683816
      10A     -1.280511    11A     -1.070640    12A     -1.004606
      13A     -0.804542    14A     -0.779297    15A     -0.699074
      16A     -0.598362    17A     -0.569469    18A     -0.562279
      19A     -0.510959    20A     -0.437818    21A     -0.393937
      22A     -0.343246

  @DF-RHF Final Energy:  -567.38299251382898

   => Energetics <=

    Nuclear Repulsion Energy =            204.9175188640495548
    One-Electron Energy =               -1185.4950838734216632
    Two-Electron Energy =                 413.1945724955432411
    Total Energy =                       -567.3829925138288672
  Basis Set: (AUG-CC-PVTZ AUX)
    Blend: AUG-CC-PVTZ-RI
    Molecular point group: c1

    Geometry (in Angstrom), charge = 0, multiplicity = 1:

       Center              X                  Y                   Z               Mass
    ------------   -----------------  -----------------  -----------------  -----------------
         S            1.161920730479     0.054180534766    -0.000219687028    31.972071174400
         N           -1.286873269521    -0.765210465234     0.000254312972    14.003074004430
         C           -0.085534269521     1.229053534766    -0.000026687028    12.000000000000
         C           -1.311659269521     0.607864534766     0.000237312972    12.000000000000
         C           -0.039585269521    -1.186441465234     0.000051312972    12.000000000000
         H            0.133062730479     2.288325534766    -0.000107687028     1.007825032230
         H           -2.248551469521     1.112548534766     0.000398312972     1.007825032230
         H            0.242658730479    -2.232699465234     0.000026312972     1.007825032230

  Basis Set: AUG-CC-PVTZ
    Blend: AUG-CC-PVTZ
  Basis Set: (AUG-CC-PVTZ AUX)
    Blend: AUG-CC-PVTZ-JKFIT
	 Reference Energy          =    -567.3829925138289809 [Eh]
	 Singles Energy            =      -0.0000000000000000 [Eh]
	 Same-Spin Energy          =      -0.2457497837536979 [Eh]
	 Opposite-Spin Energy      =      -0.7300839486131727 [Eh]
	 Correlation Energy        =      -0.9758337323668707 [Eh]
	 Total Energy              =    -568.3588262461958038 [Eh]

	 ================> DF-SCS-MP2 Energies <==================
	-----------------------------------------------------------
	 SCS Same-Spin Scale       =       0.3333333333333333 [-]
	 SCS Opposite-Spin Scale   =       1.2000000000000000 [-]
	 SCS Same-Spin Energy      =      -0.0819165945845660 [Eh]
	 SCS Opposite-Spin Energy  =      -0.8761007383358073 [Eh]
	 SCS Correlation Energy    =      -0.9580173329203733 [Eh]
	 SCS Total Energy          =    -568.3410098467493299 [Eh]
	-----------------------------------------------------------

  Dipole Moment: [D]
     X:     1.3678      Y:     1.1812      Z:    -0.0003     Total:     1.8072

*** Psi4 exiting successfully. Buy a developer a beer!
