                               Psi4 1.3.2 release

  ==> Input File <==

--------------------------------------------------------------------------
#psi4
#
memory 32 gb

molecule  {
0 1
  S        1.1830230     0.0407500    -0.0002230
  N       -1.2657710    -0.7786410     0.0002510
  C       -0.0644320     1.2156230    -0.0000300
  C       -1.2905570     0.5944340     0.0002340
  C       -0.0184830    -1.1998720     0.0000480
  H        0.1743757     2.3728314    -0.0001185
  H       -2.2450570     1.1086030     0.0003980
  H        0.2637610    -2.2461300     0.0000230
units angstrom
no_reorient  #important for SAPT in psi4, default
symmetry c1  #important for SAPT in psi4, default
}

set PROPERTIES_ORIGIN ["COM"]
properties('MP2/aug-cc-pvtz', properties = ['dipole'])
--------------------------------------------------------------------------

    Molecular point group: c1
  Charge       = 0
  Multiplicity = 1
  Basis Set: AUG-CC-PVTZ
    Blend: AUG-CC-PVTZ
  Basis Set: (AUG-CC-PVTZ AUX)
    Blend: AUG-CC-PVTZ-JKFIT

    Orbital Energies [Eh]
    ---------------------

    Doubly Occupied:

       1A    -92.004128     2A    -15.579500     3A    -11.314715
       4A    -11.281490     5A    -11.275454     6A     -9.004850
       7A     -6.685721     8A     -6.685215     9A     -6.684503
      10A     -1.280964    11A     -1.069008    12A     -1.002516
      13A     -0.798383    14A     -0.773439    15A     -0.689301
      16A     -0.595720    17A     -0.562774    18A     -0.557070
      19A     -0.510576    20A     -0.438092    21A     -0.394285
      22A     -0.343477

  @DF-RHF Final Energy:  -567.37524373561394

   => Energetics <=

    Nuclear Repulsion Energy =            204.3408312492598498
    One-Electron Energy =               -1184.3697934376043577
    Two-Electron Energy =                 412.6537184527305158
    Total Energy =                       -567.3752437356140490
  Basis Set: (AUG-CC-PVTZ AUX)
    Blend: AUG-CC-PVTZ-RI
    Molecular point group: c1

    Geometry (in Angstrom), charge = 0, multiplicity = 1:

       Center              X                  Y                   Z               Mass
    ------------   -----------------  -----------------  -----------------  -----------------
         S            1.161889868005     0.052906843787    -0.000219633672    31.972071174400
         N           -1.286904131995    -0.766484156213     0.000254366328    14.003074004430
         C           -0.085565131995     1.227779843787    -0.000026633672    12.000000000000
         C           -1.311690131995     0.606590843787     0.000237366328    12.000000000000
         C           -0.039616131995    -1.187715156213     0.000051366328    12.000000000000
         H            0.153242568005     2.384988243787    -0.000115133672     1.007825032230
         H           -2.266190131995     1.120759843787     0.000401366328     1.007825032230
         H            0.242627868005    -2.233973156213     0.000026366328     1.007825032230

  Basis Set: AUG-CC-PVTZ
    Blend: AUG-CC-PVTZ
  Basis Set: (AUG-CC-PVTZ AUX)
    Blend: AUG-CC-PVTZ-JKFIT
	 Reference Energy          =    -567.3752437356139353 [Eh]
	 Singles Energy            =      -0.0000000000000000 [Eh]
	 Same-Spin Energy          =      -0.2460341056864623 [Eh]
	 Opposite-Spin Energy      =      -0.7308897339766803 [Eh]
	 Correlation Energy        =      -0.9769238396631426 [Eh]
	 Total Energy              =    -568.3521675752771216 [Eh]

	 ================> DF-SCS-MP2 Energies <==================
	-----------------------------------------------------------
	 SCS Same-Spin Scale       =       0.3333333333333333 [-]
	 SCS Opposite-Spin Scale   =       1.2000000000000000 [-]
	 SCS Same-Spin Energy      =      -0.0820113685621541 [Eh]
	 SCS Opposite-Spin Energy  =      -0.8770676807720164 [Eh]
	 SCS Correlation Energy    =      -0.9590790493341704 [Eh]
	 SCS Total Energy          =    -568.3343227849480854 [Eh]
	-----------------------------------------------------------

  Dipole Moment: [D]
     X:     1.3757      Y:     1.1897      Z:    -0.0003     Total:     1.8187

*** Psi4 exiting successfully. Buy a developer a beer!
