                               Psi4 1.4a3.dev225

  ==> Input File <==

--------------------------------------------------------------------------
#psi4
#
memory 32 gb

molecule  {
0 1
  S        1.1830230     0.0407500    -0.0002230
  N       -1.2657710    -0.7786410     0.0002510
  C       -0.0644320     1.2156230    -0.0000300
  C       -1.2905570     0.5944340     0.0002340
  C       -0.0184830    -1.1998720     0.0000480
  H        0.1541650     2.2748950    -0.0001110
  H       -2.2010374     1.0848906     0.0003904
  H        0.2637610    -2.2461300     0.0000230
units angstrom
no_reorient  #important for SAPT in psi4, default
symmetry c1  #important for SAPT in psi4, default
}

set PROPERTIES_ORIGIN ["COM"]
properties('MP2/aug-cc-pvtz', properties = ['dipole'])
--------------------------------------------------------------------------

    Molecular point group: c1
  Charge       = 0
  Multiplicity = 1
  Basis Set: AUG-CC-PVTZ
    Blend: AUG-CC-PVTZ
  Basis Set: (AUG-CC-PVTZ AUX)
    Blend: AUG-CC-PVTZ-JKFIT

    Orbital Energies [Eh]
    ---------------------

    Doubly Occupied:

       1A    -92.003235     2A    -15.578565     3A    -11.314169
       4A    -11.271356     5A    -11.269289     6A     -9.004023
       7A     -6.684906     8A     -6.684393     9A     -6.683696
      10A     -1.280407    11A     -1.070488    12A     -1.006155
      13A     -0.804642    14A     -0.783106    15A     -0.700637
      16A     -0.601453    17A     -0.569355    18A     -0.562124
      19A     -0.512052    20A     -0.437714    21A     -0.393806
      22A     -0.343190

  @DF-RHF Final Energy:  -567.38204604125895

   => Energetics <=

    Nuclear Repulsion Energy =            205.0731492545382935
    One-Electron Energy =               -1185.7928692186374064
    Two-Electron Energy =                 413.3376739228401675
    Total Energy =                       -567.3820460412589455
  Basis Set: (AUG-CC-PVTZ AUX)
    Blend: AUG-CC-PVTZ-RI
    Molecular point group: c1

    Geometry (in Angstrom), charge = 0, multiplicity = 1:

       Center              X                  Y                   Z               Mass
    ------------   -----------------  -----------------  -----------------  -----------------
         S            1.161607566888     0.054349228444    -0.000219632486    31.972071174400
         N           -1.287186433112    -0.765041771556     0.000254367514    14.003074004430
         C           -0.085847433112     1.229222228444    -0.000026632486    12.000000000000
         C           -1.311972433112     0.608033228444     0.000237367514    12.000000000000
         C           -0.039898433112    -1.186272771556     0.000051367514    12.000000000000
         H            0.132749566888     2.288494228444    -0.000107632486     1.007825032230
         H           -2.222452833112     1.098489828444     0.000393767514     1.007825032230
         H            0.242345566888    -2.232530771556     0.000026367514     1.007825032230

  Basis Set: AUG-CC-PVTZ
    Blend: AUG-CC-PVTZ
  Basis Set: (AUG-CC-PVTZ AUX)
    Blend: AUG-CC-PVTZ-JKFIT
	 Reference Energy          =    -567.3820460412589455 [Eh]
	 Singles Energy            =      -0.0000000000000000 [Eh]
	 Same-Spin Energy          =      -0.2456964608574620 [Eh]
	 Opposite-Spin Energy      =      -0.7299666865919263 [Eh]
	 Correlation Energy        =      -0.9756631474493883 [Eh]
	 Total Energy              =    -568.3577091887083270 [Eh]

	 ================> DF-SCS-MP2 Energies <==================
	-----------------------------------------------------------
	 SCS Same-Spin Scale       =       0.3333333333333333 [-]
	 SCS Opposite-Spin Scale   =       1.2000000000000000 [-]
	 SCS Same-Spin Energy      =      -0.0818988202858207 [Eh]
	 SCS Opposite-Spin Energy  =      -0.8759600239103116 [Eh]
	 SCS Correlation Energy    =      -0.9578588441961322 [Eh]
	 SCS Total Energy          =    -568.3399048854550983 [Eh]
	-----------------------------------------------------------

  Dipole Moment: [D]
     X:     1.3681      Y:     1.1856      Z:    -0.0003     Total:     1.8103

*** Psi4 exiting successfully. Buy a developer a beer!
