                               Psi4 1.3.2 release

  ==> Input File <==

--------------------------------------------------------------------------
#psi4
#
memory 32 gb

molecule  {
0 1
  S        1.1830230     0.0407500    -0.0002230
  N       -1.2657710    -0.7786410     0.0002510
  C       -0.0644320     1.2156230    -0.0000300
  C       -1.2905570     0.5944340     0.0002340
  C        0.1206553    -1.0562039     0.0000166
  H        0.1541650     2.2748950    -0.0001110
  H       -2.2450570     1.1086030     0.0003980
  H        0.2637610    -2.2461300     0.0000230
units angstrom
no_reorient  #important for SAPT in psi4, default
symmetry c1  #important for SAPT in psi4, default
}

set PROPERTIES_ORIGIN ["COM"]
properties('MP2/aug-cc-pvtz', properties = ['dipole'])
--------------------------------------------------------------------------

    Molecular point group: c1
  Charge       = 0
  Multiplicity = 1
  Basis Set: AUG-CC-PVTZ
    Blend: AUG-CC-PVTZ
  Basis Set: (AUG-CC-PVTZ AUX)
    Blend: AUG-CC-PVTZ-JKFIT

    Orbital Energies [Eh]
    ---------------------

    Doubly Occupied:

       1A    -92.014336     2A    -15.576152     3A    -11.310721
       4A    -11.275453     5A    -11.260249     6A     -9.020274
       7A     -6.701852     8A     -6.700081     9A     -6.699605
      10A     -1.273785    11A     -1.098334    12A     -1.002344
      13A     -0.788972    14A     -0.769565    15A     -0.696680
      16A     -0.582706    17A     -0.572736    18A     -0.544366
      19A     -0.512907    20A     -0.452598    21A     -0.394888
      22A     -0.340733

  @DF-RHF Final Energy:  -567.33293240877231

   => Energetics <=

    Nuclear Repulsion Energy =            207.8494140279534008
    One-Electron Energy =               -1191.1860197166117814
    Two-Electron Energy =                 416.0036732798861294
    Total Energy =                       -567.3329324087723080
  Basis Set: (AUG-CC-PVTZ AUX)
    Blend: AUG-CC-PVTZ-RI
    Molecular point group: c1

    Geometry (in Angstrom), charge = 0, multiplicity = 1:

       Center              X                  Y                   Z               Mass
    ------------   -----------------  -----------------  -----------------  -----------------
         S            1.142486132447     0.033785186997    -0.000215289586    31.972071174400
         N           -1.306307867553    -0.785605813003     0.000258710414    14.003074004430
         C           -0.104968867553     1.208658186997    -0.000022289586    12.000000000000
         C           -1.331093867553     0.587469186997     0.000241710414    12.000000000000
         C            0.080118432447    -1.063168713003     0.000024310414    12.000000000000
         H            0.113628132447     2.267930186997    -0.000103289586     1.007825032230
         H           -2.285593867553     1.101638186997     0.000405710414     1.007825032230
         H            0.223224132447    -2.253094813003     0.000030710414     1.007825032230

  Basis Set: AUG-CC-PVTZ
    Blend: AUG-CC-PVTZ
  Basis Set: (AUG-CC-PVTZ AUX)
    Blend: AUG-CC-PVTZ-JKFIT
	 Reference Energy          =    -567.3329324087723080 [Eh]
	 Singles Energy            =      -0.0000000000000000 [Eh]
	 Same-Spin Energy          =      -0.2499909467587096 [Eh]
	 Opposite-Spin Energy      =      -0.7348680310033653 [Eh]
	 Correlation Energy        =      -0.9848589777620749 [Eh]
	 Total Energy              =    -568.3177913865343953 [Eh]

	 ================> DF-SCS-MP2 Energies <==================
	-----------------------------------------------------------
	 SCS Same-Spin Scale       =       0.3333333333333333 [-]
	 SCS Opposite-Spin Scale   =       1.2000000000000000 [-]
	 SCS Same-Spin Energy      =      -0.0833303155862365 [Eh]
	 SCS Opposite-Spin Energy  =      -0.8818416372040383 [Eh]
	 SCS Correlation Energy    =      -0.9651719527902749 [Eh]
	 SCS Total Energy          =    -568.2981043615625367 [Eh]
	-----------------------------------------------------------

  Dipole Moment: [D]
     X:     1.8120      Y:     1.4262      Z:    -0.0004     Total:     2.3059

*** Psi4 exiting successfully. Buy a developer a beer!
