                               Psi4 1.4a3.dev225

  ==> Input File <==

--------------------------------------------------------------------------
#psi4
#
memory 32 gb

molecule  {
0 1
  S        1.1830230     0.0407500    -0.0002230
  N       -1.2657710    -0.7786410     0.0002510
  C       -0.0644320     1.2156230    -0.0000300
  C       -1.2905570     0.5944340     0.0002340
  C        0.0163016    -1.1639550     0.0000402
  H        0.1541650     2.2748950    -0.0001110
  H       -2.2450570     1.1086030     0.0003980
  H        0.2637610    -2.2461300     0.0000230
units angstrom
no_reorient  #important for SAPT in psi4, default
symmetry c1  #important for SAPT in psi4, default
}

set PROPERTIES_ORIGIN ["COM"]
properties('MP2/aug-cc-pvtz', properties = ['dipole'])
--------------------------------------------------------------------------

    Molecular point group: c1
  Charge       = 0
  Multiplicity = 1
  Basis Set: AUG-CC-PVTZ
    Blend: AUG-CC-PVTZ
  Basis Set: (AUG-CC-PVTZ AUX)
    Blend: AUG-CC-PVTZ-JKFIT

    Orbital Energies [Eh]
    ---------------------

    Doubly Occupied:

       1A    -92.007007     2A    -15.578204     3A    -11.313610
       4A    -11.275216     5A    -11.268771     6A     -9.008618
       7A     -6.689580     8A     -6.688960     9A     -6.688267
      10A     -1.277678    11A     -1.074940    12A     -1.004970
      13A     -0.800112    14A     -0.774978    15A     -0.697853
      16A     -0.585177    17A     -0.570166    18A     -0.563779
      19A     -0.513044    20A     -0.443354    21A     -0.392273
      22A     -0.344253

  @DF-RHF Final Energy:  -567.37894026795198

   => Energetics <=

    Nuclear Repulsion Energy =            205.5042819499307996
    One-Electron Energy =               -1186.6448265006890779
    Two-Electron Energy =                 413.7616042828063883
    Total Energy =                       -567.3789402679518616
  Basis Set: (AUG-CC-PVTZ AUX)
    Blend: AUG-CC-PVTZ-RI
    Molecular point group: c1

    Geometry (in Angstrom), charge = 0, multiplicity = 1:

       Center              X                  Y                   Z               Mass
    ------------   -----------------  -----------------  -----------------  -----------------
         S            1.157218658645     0.048997353922    -0.000218621405    31.972071174400
         N           -1.291575341355    -0.770393646078     0.000255378595    14.003074004430
         C           -0.090236341355     1.223870353922    -0.000025621405    12.000000000000
         C           -1.316361341355     0.602681353922     0.000238378595    12.000000000000
         C           -0.009502741355    -1.155707646078     0.000044578595    12.000000000000
         H            0.128360658645     2.283142353922    -0.000106621405     1.007825032230
         H           -2.270861341355     1.116850353922     0.000402378595     1.007825032230
         H            0.237956658645    -2.237882646078     0.000027378595     1.007825032230

  Basis Set: AUG-CC-PVTZ
    Blend: AUG-CC-PVTZ
  Basis Set: (AUG-CC-PVTZ AUX)
    Blend: AUG-CC-PVTZ-JKFIT
	 Reference Energy          =    -567.3789402679519753 [Eh]
	 Singles Energy            =      -0.0000000000000000 [Eh]
	 Same-Spin Energy          =      -0.2466320670224139 [Eh]
	 Opposite-Spin Energy      =      -0.7309501456900962 [Eh]
	 Correlation Energy        =      -0.9775822127125101 [Eh]
	 Total Energy              =    -568.3565224806644665 [Eh]

	 ================> DF-SCS-MP2 Energies <==================
	-----------------------------------------------------------
	 SCS Same-Spin Scale       =       0.3333333333333333 [-]
	 SCS Opposite-Spin Scale   =       1.2000000000000000 [-]
	 SCS Same-Spin Energy      =      -0.0822106890074713 [Eh]
	 SCS Opposite-Spin Energy  =      -0.8771401748281155 [Eh]
	 SCS Correlation Energy    =      -0.9593508638355868 [Eh]
	 SCS Total Energy          =    -568.3382911317875141 [Eh]
	-----------------------------------------------------------

  Dipole Moment: [D]
     X:     1.5071      Y:     1.2664      Z:    -0.0003     Total:     1.9685

*** Psi4 exiting successfully. Buy a developer a beer!
