                               Psi4 1.3.2 release

  ==> Input File <==

--------------------------------------------------------------------------
#psi4
#
memory 32 gb

molecule  {
0 1
  S        1.1830230     0.0407500    -0.0002230
  N       -1.2657710    -0.7786410     0.0002510
  C       -0.0644320     1.2156230    -0.0000300
  C       -1.2905570     0.5944340     0.0002340
  C       -0.0184830    -1.1998720     0.0000480
  H        0.1541650     2.2748950    -0.0001110
  H       -2.0689788     1.0137534     0.0003677
  H        0.2637610    -2.2461300     0.0000230
units angstrom
no_reorient  #important for SAPT in psi4, default
symmetry c1  #important for SAPT in psi4, default
}

set PROPERTIES_ORIGIN ["COM"]
properties('MP2/aug-cc-pvtz', properties = ['dipole'])
--------------------------------------------------------------------------

    Molecular point group: c1
  Charge       = 0
  Multiplicity = 1
  Basis Set: AUG-CC-PVTZ
    Blend: AUG-CC-PVTZ
  Basis Set: (AUG-CC-PVTZ AUX)
    Blend: AUG-CC-PVTZ-JKFIT

    Orbital Energies [Eh]
    ---------------------

    Doubly Occupied:

       1A    -92.002884     2A    -15.577696     3A    -11.313388
       4A    -11.271019     5A    -11.252339     6A     -9.003685
       7A     -6.684569     8A     -6.684057     9A     -6.683367
      10A     -1.280393    11A     -1.069992    12A     -1.017644
      13A     -0.813469    14A     -0.800436    15A     -0.707793
      16A     -0.614703    17A     -0.569011    18A     -0.561639
      19A     -0.516228    20A     -0.437336    21A     -0.393379
      22A     -0.343254

  @DF-RHF Final Energy:  -567.34724766797160

   => Energetics <=

    Nuclear Repulsion Energy =            205.9578320251241053
    One-Electron Energy =               -1187.4135983746400598
    Two-Electron Energy =                 414.1085186815442967
    Total Energy =                       -567.3472476679716010
  Basis Set: (AUG-CC-PVTZ AUX)
    Blend: AUG-CC-PVTZ-RI
    Molecular point group: c1

    Geometry (in Angstrom), charge = 0, multiplicity = 1:

       Center              X                  Y                   Z               Mass
    ------------   -----------------  -----------------  -----------------  -----------------
         S            1.160041753674     0.055192699205    -0.000219363333    31.972071174400
         N           -1.288752246326    -0.764198300795     0.000254636667    14.003074004430
         C           -0.087413246326     1.230065699205    -0.000026363333    12.000000000000
         C           -1.313538246326     0.608876699205     0.000237636667    12.000000000000
         C           -0.041464246326    -1.185429300795     0.000051636667    12.000000000000
         H            0.131183753674     2.289337699205    -0.000107363333     1.007825032230
         H           -2.091960046326     1.028196099205     0.000371336667     1.007825032230
         H            0.240779753674    -2.231687300795     0.000026636667     1.007825032230

  Basis Set: AUG-CC-PVTZ
    Blend: AUG-CC-PVTZ
  Basis Set: (AUG-CC-PVTZ AUX)
    Blend: AUG-CC-PVTZ-JKFIT
	 Reference Energy          =    -567.3472476679716010 [Eh]
	 Singles Energy            =      -0.0000000000000000 [Eh]
	 Same-Spin Energy          =      -0.2455805703473625 [Eh]
	 Opposite-Spin Energy      =      -0.7299652893145698 [Eh]
	 Correlation Energy        =      -0.9755458596619323 [Eh]
	 Total Energy              =    -568.3227935276335074 [Eh]

	 ================> DF-SCS-MP2 Energies <==================
	-----------------------------------------------------------
	 SCS Same-Spin Scale       =       0.3333333333333333 [-]
	 SCS Opposite-Spin Scale   =       1.2000000000000000 [-]
	 SCS Same-Spin Energy      =      -0.0818601901157875 [Eh]
	 SCS Opposite-Spin Energy  =      -0.8759583471774838 [Eh]
	 SCS Correlation Energy    =      -0.9578185372932713 [Eh]
	 SCS Total Energy          =    -568.3050662052648931 [Eh]
	-----------------------------------------------------------

  Dipole Moment: [D]
     X:     1.3866      Y:     1.1979      Z:    -0.0003     Total:     1.8324

*** Psi4 exiting successfully. Buy a developer a beer!
