                               Psi4 1.4a3.dev225

  ==> Input File <==

--------------------------------------------------------------------------
#psi4
#
memory 32 gb

molecule  {
0 1
  N       -0.2982310    -1.1935080     0.0025490
  C       -0.9213218     0.0525752    -0.0040280
  C       -0.1841880     1.2189600    -0.0099150
  C        1.2026150     1.1703940     0.0047080
  C        1.8420660    -0.0728230     0.0063860
  C        1.0476430    -1.2144780     0.0023810
  H       -0.7133830     2.1685580    -0.0289310
  H        1.7801000     2.0918600     0.0058130
  H        2.9246530    -0.1531170     0.0136340
  H        1.4978100    -2.2059300     0.0047600
  N       -2.2903850    -0.0069810    -0.0833000
  H       -2.7551260     0.7553950     0.3966630
  H       -2.6687990    -0.9127910     0.1747070
units angstrom
no_reorient  #important for SAPT in psi4, default
symmetry c1  #important for SAPT in psi4, default
}

set PROPERTIES_ORIGIN ["COM"]
properties('MP2/aug-cc-pvtz', properties = ['dipole'])
--------------------------------------------------------------------------

    Molecular point group: c1
  Charge       = 0
  Multiplicity = 1
  Basis Set: AUG-CC-PVTZ
    Blend: AUG-CC-PVTZ
  Basis Set: (AUG-CC-PVTZ AUX)
    Blend: AUG-CC-PVTZ-JKFIT

    Orbital Energies [Eh]
    ---------------------

    Doubly Occupied:

       1A    -15.572419     2A    -15.555863     3A    -11.316695
       4A    -11.274852     5A    -11.260493     6A    -11.229444
       7A    -11.225863     8A     -1.272488     9A     -1.185230
      10A     -1.080231    11A     -1.006705    12A     -0.860599
      13A     -0.836499    14A     -0.717534    15A     -0.702505
      16A     -0.659484    17A     -0.618392    18A     -0.608765
      19A     -0.566720    20A     -0.559903    21A     -0.522835
      22A     -0.463076    23A     -0.416803    24A     -0.377634
      25A     -0.310563

  @DF-RHF Final Energy:  -301.83835084680578

   => Energetics <=

    Nuclear Repulsion Energy =            274.5582608838153078
    One-Electron Energy =                -952.3900342784667146
    Two-Electron Energy =                 375.9934225478456824
    Total Energy =                       -301.8383508468057812
  Basis Set: (AUG-CC-PVTZ AUX)
    Blend: AUG-CC-PVTZ-RI
    Molecular point group: c1

    Geometry (in Angstrom), charge = 0, multiplicity = 1:

       Center              X                  Y                   Z               Mass
    ------------   -----------------  -----------------  -----------------  -----------------
         N           -0.294604905793    -1.180777146144     0.008559415569    14.003074004430
         C           -0.917695705793     0.065306053856     0.001982415569    12.000000000000
         C           -0.180561905793     1.231690853856    -0.003904584431    12.000000000000
         C            1.206241094207     1.183124853856     0.010718415569    12.000000000000
         C            1.845692094207    -0.060092146144     0.012396415569    12.000000000000
         C            1.051269094207    -1.201747146144     0.008391415569    12.000000000000
         H           -0.709756905793     2.181288853856    -0.022920584431     1.007825032230
         H            1.783726094207     2.104590853856     0.011823415569     1.007825032230
         H            2.928279094207    -0.140386146144     0.019644415569     1.007825032230
         H            1.501436094207    -2.193199146144     0.010770415569     1.007825032230
         N           -2.286758905793     0.005749853856    -0.077289584431    14.003074004430
         H           -2.751499905793     0.768125853856     0.402673415569     1.007825032230
         H           -2.665172905793    -0.900060146144     0.180717415569     1.007825032230

  Basis Set: AUG-CC-PVTZ
    Blend: AUG-CC-PVTZ
  Basis Set: (AUG-CC-PVTZ AUX)
    Blend: AUG-CC-PVTZ-JKFIT
	 Reference Energy          =    -301.8383508468057812 [Eh]
	 Singles Energy            =      -0.0000000000000000 [Eh]
	 Same-Spin Energy          =      -0.3288641002137522 [Eh]
	 Opposite-Spin Energy      =      -1.0141590810965586 [Eh]
	 Correlation Energy        =      -1.3430231813103108 [Eh]
	 Total Energy              =    -303.1813740281160676 [Eh]

	 ================> DF-SCS-MP2 Energies <==================
	-----------------------------------------------------------
	 SCS Same-Spin Scale       =       0.3333333333333333 [-]
	 SCS Opposite-Spin Scale   =       1.2000000000000000 [-]
	 SCS Same-Spin Energy      =      -0.1096213667379174 [Eh]
	 SCS Opposite-Spin Energy  =      -1.2169908973158703 [Eh]
	 SCS Correlation Energy    =      -1.3266122640537876 [Eh]
	 SCS Total Energy          =    -303.1649631108595599 [Eh]
	-----------------------------------------------------------

  Dipole Moment: [D]
     X:    -0.1317      Y:     1.7512      Z:     0.9933     Total:     2.0176

*** Psi4 exiting successfully. Buy a developer a beer!
