                               Psi4 1.3.2 release

  ==> Input File <==

--------------------------------------------------------------------------
#psi4
#
memory 32 gb

molecule  {
0 1
  N       -0.2981960    -1.1935180     0.0024800
  C       -0.8989770     0.0078150    -0.0038810
  C       -0.1842220     1.2188990    -0.0098900
  C        1.2026080     1.1704100     0.0047310
  C        1.8420610    -0.0727780     0.0063770
  C        1.0476300    -1.2144680     0.0024310
  H       -0.7133720     2.1685100    -0.0287310
  H        1.7800030     2.0919190     0.0058730
  H        2.9246290    -0.1531180     0.0135510
  H        1.4978930    -2.2058730     0.0048570
  N       -2.2904670    -0.0069960    -0.0835250
  H       -2.7087914     0.6802202     0.3496294
  H       -2.6685370    -0.9125390     0.1761140
units angstrom
no_reorient  #important for SAPT in psi4, default
symmetry c1  #important for SAPT in psi4, default
}

set PROPERTIES_ORIGIN ["COM"]
properties('MP2/aug-cc-pvtz', properties = ['dipole'])
--------------------------------------------------------------------------

    Molecular point group: c1
  Charge       = 0
  Multiplicity = 1
  Basis Set: AUG-CC-PVTZ
    Blend: AUG-CC-PVTZ
  Basis Set: (AUG-CC-PVTZ AUX)
    Blend: AUG-CC-PVTZ-JKFIT

    Orbital Energies [Eh]
    ---------------------

    Doubly Occupied:

       1A    -15.558476     2A    -15.554527     3A    -11.316719
       4A    -11.276055     5A    -11.260150     6A    -11.233844
       7A    -11.227647     8A     -1.281663     9A     -1.195340
      10A     -1.083342    11A     -1.009257    12A     -0.862480
      13A     -0.842711    14A     -0.727550    15A     -0.703831
      16A     -0.662626    17A     -0.629756    18A     -0.604938
      19A     -0.567392    20A     -0.562676    21A     -0.526865
      22A     -0.461727    23A     -0.419356    24A     -0.380653
      25A     -0.312892

  @DF-RHF Final Energy:  -301.83625682598125

   => Energetics <=

    Nuclear Repulsion Energy =            275.3763437032945944
    One-Electron Energy =                -953.9002548091480094
    Two-Electron Energy =                 376.6876542798721061
    Total Energy =                       -301.8362568259812519
  Basis Set: (AUG-CC-PVTZ AUX)
    Blend: AUG-CC-PVTZ-RI
    Molecular point group: c1

    Geometry (in Angstrom), charge = 0, multiplicity = 1:

       Center              X                  Y                   Z               Mass
    ------------   -----------------  -----------------  -----------------  -----------------
         N           -0.297905313877    -1.174271741148     0.008990052372    14.003074004430
         C           -0.898686313877     0.027061258852     0.002629052372    12.000000000000
         C           -0.183931313877     1.238145258852    -0.003379947628    12.000000000000
         C            1.202898686123     1.189656258852     0.011241052372    12.000000000000
         C            1.842351686123    -0.053531741148     0.012887052372    12.000000000000
         C            1.047920686123    -1.195221741148     0.008941052372    12.000000000000
         H           -0.713081313877     2.187756258852    -0.022220947628     1.007825032230
         H            1.780293686123     2.111165258852     0.012383052372     1.007825032230
         H            2.924919686123    -0.133871741148     0.020061052372     1.007825032230
         H            1.498183686123    -2.186626741148     0.011367052372     1.007825032230
         N           -2.290176313877     0.012250258852    -0.077014947628    14.003074004430
         H           -2.708500713877     0.699466458852     0.356139452372     1.007825032230
         H           -2.668246313877    -0.893292741148     0.182624052372     1.007825032230

  Basis Set: AUG-CC-PVTZ
    Blend: AUG-CC-PVTZ
  Basis Set: (AUG-CC-PVTZ AUX)
    Blend: AUG-CC-PVTZ-JKFIT
	 Reference Energy          =    -301.8362568259812519 [Eh]
	 Singles Energy            =      -0.0000000000000000 [Eh]
	 Same-Spin Energy          =      -0.3277819261863281 [Eh]
	 Opposite-Spin Energy      =      -1.0116148570438477 [Eh]
	 Correlation Energy        =      -1.3393967832301756 [Eh]
	 Total Energy              =    -303.1756536092114516 [Eh]

	 ================> DF-SCS-MP2 Energies <==================
	-----------------------------------------------------------
	 SCS Same-Spin Scale       =       0.3333333333333333 [-]
	 SCS Opposite-Spin Scale   =       1.2000000000000000 [-]
	 SCS Same-Spin Energy      =      -0.1092606420621094 [Eh]
	 SCS Opposite-Spin Energy  =      -1.2139378284526172 [Eh]
	 SCS Correlation Energy    =      -1.3231984705147266 [Eh]
	 SCS Total Energy          =    -303.1594552964959917 [Eh]
	-----------------------------------------------------------

  Dipole Moment: [D]
     X:     0.0637      Y:     1.7019      Z:     0.9804     Total:     1.9651

*** Psi4 exiting successfully. Buy a developer a beer!
