                               Psi4 1.4a3.dev225

  ==> Input File <==

--------------------------------------------------------------------------
#psi4
#
memory 32 gb

molecule  {
0 1
  N       -0.2982310    -1.1935080     0.0025490
  C       -0.8989600     0.0078550    -0.0037920
  C       -0.1841880     1.2189600    -0.0099150
  C        1.2026150     1.1703940     0.0047080
  C        1.8420660    -0.0728230     0.0063860
  C        1.0476430    -1.2144780     0.0023810
  H       -0.7133830     2.1685580    -0.0289310
  H        1.7801000     2.0918600     0.0058130
  H        2.9246530    -0.1531170     0.0136340
  H        1.4978100    -2.2059300     0.0047600
  N       -2.2903850    -0.0069810    -0.0833000
  H       -2.7322028     0.7177910     0.3729889
  H       -2.6687990    -0.9127910     0.1747070
units angstrom
no_reorient  #important for SAPT in psi4, default
symmetry c1  #important for SAPT in psi4, default
}

set PROPERTIES_ORIGIN ["COM"]
properties('MP2/aug-cc-pvtz', properties = ['dipole'])
--------------------------------------------------------------------------

    Molecular point group: c1
  Charge       = 0
  Multiplicity = 1
  Basis Set: AUG-CC-PVTZ
    Blend: AUG-CC-PVTZ
  Basis Set: (AUG-CC-PVTZ AUX)
    Blend: AUG-CC-PVTZ-JKFIT

    Orbital Energies [Eh]
    ---------------------

    Doubly Occupied:

       1A    -15.563997     2A    -15.554405     3A    -11.316645
       4A    -11.275942     5A    -11.259964     6A    -11.233601
       7A    -11.227434     8A     -1.279287     9A     -1.188988
      10A     -1.083111    11A     -1.007303    12A     -0.861871
      13A     -0.840216    14A     -0.721129    15A     -0.701842
      16A     -0.661252    17A     -0.626268    18A     -0.604682
      19A     -0.566992    20A     -0.562325    21A     -0.526580
      22A     -0.460947    23A     -0.419216    24A     -0.380504
      25A     -0.312373

  @DF-RHF Final Energy:  -301.84249536582485

   => Energetics <=

    Nuclear Repulsion Energy =            275.0835830671981626
    One-Electron Energy =                -953.3784081927392435
    Two-Electron Energy =                 376.4523297597162923
    Total Energy =                       -301.8424953658248455
  Basis Set: (AUG-CC-PVTZ AUX)
    Blend: AUG-CC-PVTZ-RI
    Molecular point group: c1

    Geometry (in Angstrom), charge = 0, multiplicity = 1:

       Center              X                  Y                   Z               Mass
    ------------   -----------------  -----------------  -----------------  -----------------
         N           -0.297703625349    -1.174668462183     0.008782984499    14.003074004430
         C           -0.898432625349     0.026694537817     0.002441984499    12.000000000000
         C           -0.183660625349     1.237799537817    -0.003681015501    12.000000000000
         C            1.203142374651     1.189233537817     0.010941984499    12.000000000000
         C            1.842593374651    -0.053983462183     0.012619984499    12.000000000000
         C            1.048170374651    -1.195638462183     0.008614984499    12.000000000000
         H           -0.712855625349     2.187397537817    -0.022697015501     1.007825032230
         H            1.780627374651     2.110699537817     0.012046984499     1.007825032230
         H            2.925180374651    -0.134277462183     0.019867984499     1.007825032230
         H            1.498337374651    -2.187090462183     0.010993984499     1.007825032230
         N           -2.289857625349     0.011858537817    -0.077066015501    14.003074004430
         H           -2.731675425349     0.736630537817     0.379222884499     1.007825032230
         H           -2.668271625349    -0.893951462183     0.180940984499     1.007825032230

  Basis Set: AUG-CC-PVTZ
    Blend: AUG-CC-PVTZ
  Basis Set: (AUG-CC-PVTZ AUX)
    Blend: AUG-CC-PVTZ-JKFIT
	 Reference Energy          =    -301.8424953658248455 [Eh]
	 Singles Energy            =      -0.0000000000000000 [Eh]
	 Same-Spin Energy          =      -0.3280404258183037 [Eh]
	 Opposite-Spin Energy      =      -1.0123044066450984 [Eh]
	 Correlation Energy        =      -1.3403448324634022 [Eh]
	 Total Energy              =    -303.1828401982882610 [Eh]

	 ================> DF-SCS-MP2 Energies <==================
	-----------------------------------------------------------
	 SCS Same-Spin Scale       =       0.3333333333333333 [-]
	 SCS Opposite-Spin Scale   =       1.2000000000000000 [-]
	 SCS Same-Spin Energy      =      -0.1093468086061012 [Eh]
	 SCS Opposite-Spin Energy  =      -1.2147652879741180 [Eh]
	 SCS Correlation Energy    =      -1.3241120965802191 [Eh]
	 SCS Total Energy          =    -303.1666074624050680 [Eh]
	-----------------------------------------------------------

  Dipole Moment: [D]
     X:     0.0379      Y:     1.7261      Z:     0.9890     Total:     1.9897

*** Psi4 exiting successfully. Buy a developer a beer!
