                               Psi4 1.3.2 release

  ==> Input File <==

--------------------------------------------------------------------------
#psi4
#
memory 32 gb

molecule  {
0 1
  N       -0.2981960    -1.1935180     0.0024800
  C       -0.9884324     0.1866916    -0.0048281
  C       -0.1842220     1.2188990    -0.0098900
  C        1.2026080     1.1704100     0.0047310
  C        1.8420610    -0.0727780     0.0063770
  C        1.0476300    -1.2144680     0.0024310
  H       -0.7133720     2.1685100    -0.0287310
  H        1.7800030     2.0919190     0.0058730
  H        2.9246290    -0.1531180     0.0135510
  H        1.4978930    -2.2058730     0.0048570
  N       -2.2904670    -0.0069960    -0.0835250
  H       -2.7545740     0.7554310     0.3970350
  H       -2.6685370    -0.9125390     0.1761140
units angstrom
no_reorient  #important for SAPT in psi4, default
symmetry c1  #important for SAPT in psi4, default
}

set PROPERTIES_ORIGIN ["COM"]
properties('MP2/aug-cc-pvtz', properties = ['dipole'])
--------------------------------------------------------------------------

    Molecular point group: c1
  Charge       = 0
  Multiplicity = 1
  Basis Set: AUG-CC-PVTZ
    Blend: AUG-CC-PVTZ
  Basis Set: (AUG-CC-PVTZ AUX)
    Blend: AUG-CC-PVTZ-JKFIT

    Orbital Energies [Eh]
    ---------------------

    Doubly Occupied:

       1A    -15.580371     2A    -15.558141     3A    -11.315297
       4A    -11.271512     5A    -11.261798     6A    -11.224032
       7A    -11.218915     8A     -1.274885     9A     -1.181753
      10A     -1.076230    11A     -1.010639    12A     -0.866582
      13A     -0.823214    14A     -0.728585    15A     -0.708794
      16A     -0.667701    17A     -0.619273    18A     -0.599757
      19A     -0.567228    20A     -0.559511    21A     -0.508567
      22A     -0.468828    23A     -0.400978    24A     -0.374703
      25A     -0.306549

  @DF-RHF Final Energy:  -301.79506239652562

   => Energetics <=

    Nuclear Repulsion Energy =            273.9287998723688133
    One-Electron Energy =                -951.1000411839681874
    Two-Electron Energy =                 375.3761789150737513
    Total Energy =                       -301.7950623965256227
  Basis Set: (AUG-CC-PVTZ AUX)
    Blend: AUG-CC-PVTZ-RI
    Molecular point group: c1

    Geometry (in Angstrom), charge = 0, multiplicity = 1:

       Center              X                  Y                   Z               Mass
    ------------   -----------------  -----------------  -----------------  -----------------
         N           -0.286001339721    -1.197900080559     0.008602916264    14.003074004430
         C           -0.976237739721     0.182309519441     0.001294816264    12.000000000000
         C           -0.172027339721     1.214516919441    -0.003767083736    12.000000000000
         C            1.214802660279     1.166027919441     0.010853916264    12.000000000000
         C            1.854255660279    -0.077160080559     0.012499916264    12.000000000000
         C            1.059824660279    -1.218850080559     0.008553916264    12.000000000000
         H           -0.701177339721     2.164127919441    -0.022608083736     1.007825032230
         H            1.792197660279     2.087536919441     0.011995916264     1.007825032230
         H            2.936823660279    -0.157500080559     0.019673916264     1.007825032230
         H            1.510087660279    -2.210255080559     0.010979916264     1.007825032230
         N           -2.278272339721    -0.011378080559    -0.077402083736    14.003074004430
         H           -2.742379339721     0.751048919441     0.403157916264     1.007825032230
         H           -2.656342339721    -0.916921080559     0.182236916264     1.007825032230

  Basis Set: AUG-CC-PVTZ
    Blend: AUG-CC-PVTZ
  Basis Set: (AUG-CC-PVTZ AUX)
    Blend: AUG-CC-PVTZ-JKFIT
	 Reference Energy          =    -301.7950623965256227 [Eh]
	 Singles Energy            =      -0.0000000000000000 [Eh]
	 Same-Spin Energy          =      -0.3304612832133729 [Eh]
	 Opposite-Spin Energy      =      -1.0192634856290383 [Eh]
	 Correlation Energy        =      -1.3497247688424112 [Eh]
	 Total Energy              =    -303.1447871653680295 [Eh]

	 ================> DF-SCS-MP2 Energies <==================
	-----------------------------------------------------------
	 SCS Same-Spin Scale       =       0.3333333333333333 [-]
	 SCS Opposite-Spin Scale   =       1.2000000000000000 [-]
	 SCS Same-Spin Energy      =      -0.1101537610711243 [Eh]
	 SCS Opposite-Spin Energy  =      -1.2231161827548460 [Eh]
	 SCS Correlation Energy    =      -1.3332699438259703 [Eh]
	 SCS Total Energy          =    -303.1283323403516192 [Eh]
	-----------------------------------------------------------

  Dipole Moment: [D]
     X:    -0.5063      Y:     1.6942      Z:     0.9761     Total:     2.0198

*** Psi4 exiting successfully. Buy a developer a beer!
