                               Psi4 1.3.2 release

  ==> Input File <==

--------------------------------------------------------------------------
#psi4
#
memory 32 gb

molecule  {
0 1
  N       -0.2981960    -1.1935180     0.0024800
  C       -0.8566845     0.0280498    -0.0039944
  C       -0.1842220     1.2188990    -0.0098900
  C        1.2026080     1.1704100     0.0047310
  C        1.8420610    -0.0727780     0.0063770
  C        1.0476300    -1.2144680     0.0024310
  H       -0.7133720     2.1685100    -0.0287310
  H        1.7800030     2.0919190     0.0058730
  H        2.9246290    -0.1531180     0.0135510
  H        1.4978930    -2.2058730     0.0048570
  N       -2.2904670    -0.0069960    -0.0835250
  H       -2.7545740     0.7554310     0.3970350
  H       -2.6685370    -0.9125390     0.1761140
units angstrom
no_reorient  #important for SAPT in psi4, default
symmetry c1  #important for SAPT in psi4, default
}

set PROPERTIES_ORIGIN ["COM"]
properties('MP2/aug-cc-pvtz', properties = ['dipole'])
--------------------------------------------------------------------------

    Molecular point group: c1
  Charge       = 0
  Multiplicity = 1
  Basis Set: AUG-CC-PVTZ
    Blend: AUG-CC-PVTZ
  Basis Set: (AUG-CC-PVTZ AUX)
    Blend: AUG-CC-PVTZ-JKFIT

    Orbital Energies [Eh]
    ---------------------

    Doubly Occupied:

       1A    -15.562687     2A    -15.558081     3A    -11.313149
       4A    -11.277937     5A    -11.262705     6A    -11.231885
       7A    -11.230487     8A     -1.275496     9A     -1.171751
      10A     -1.088510    11A     -1.010730    12A     -0.866069
      13A     -0.838053    14A     -0.714137    15A     -0.693948
      16A     -0.655040    17A     -0.622916    18A     -0.605008
      19A     -0.568017    20A     -0.561613    21A     -0.524503
      22A     -0.453506    23A     -0.426402    24A     -0.382500
      25A     -0.318072

  @DF-RHF Final Energy:  -301.84006052170145

   => Energetics <=

    Nuclear Repulsion Energy =            275.0625646581175374
    One-Electron Energy =                -953.3788427965321262
    Two-Electron Energy =                 376.4762176167131997
    Total Energy =                       -301.8400605217014459
  Basis Set: (AUG-CC-PVTZ AUX)
    Blend: AUG-CC-PVTZ-RI
    Molecular point group: c1

    Geometry (in Angstrom), charge = 0, multiplicity = 1:

       Center              X                  Y                   Z               Mass
    ------------   -----------------  -----------------  -----------------  -----------------
         N           -0.302810725379    -1.177659369339     0.008496546563    14.003074004430
         C           -0.861299225379     0.043908430661     0.002022146563    12.000000000000
         C           -0.188836725379     1.234757630661    -0.003873453437    12.000000000000
         C            1.197993274621     1.186268630661     0.010747546563    12.000000000000
         C            1.837446274621    -0.056919369339     0.012393546563    12.000000000000
         C            1.043015274621    -1.198609369339     0.008447546563    12.000000000000
         H           -0.717986725379     2.184368630661    -0.022714453437     1.007825032230
         H            1.775388274621     2.107777630661     0.011889546563     1.007825032230
         H            2.920014274621    -0.137259369339     0.019567546563     1.007825032230
         H            1.493278274621    -2.190014369339     0.010873546563     1.007825032230
         N           -2.295081725379     0.008862630661    -0.077508453437    14.003074004430
         H           -2.759188725379     0.771289630661     0.403051546563     1.007825032230
         H           -2.673151725379    -0.896680369339     0.182130546563     1.007825032230

  Basis Set: AUG-CC-PVTZ
    Blend: AUG-CC-PVTZ
  Basis Set: (AUG-CC-PVTZ AUX)
    Blend: AUG-CC-PVTZ-JKFIT
	 Reference Energy          =    -301.8400605217014459 [Eh]
	 Singles Energy            =      -0.0000000000000000 [Eh]
	 Same-Spin Energy          =      -0.3283074261833921 [Eh]
	 Opposite-Spin Energy      =      -1.0133429121430173 [Eh]
	 Correlation Energy        =      -1.3416503383264096 [Eh]
	 Total Energy              =    -303.1817108600278630 [Eh]

	 ================> DF-SCS-MP2 Energies <==================
	-----------------------------------------------------------
	 SCS Same-Spin Scale       =       0.3333333333333333 [-]
	 SCS Opposite-Spin Scale   =       1.2000000000000000 [-]
	 SCS Same-Spin Energy      =      -0.1094358087277974 [Eh]
	 SCS Opposite-Spin Energy  =      -1.2160114945716207 [Eh]
	 SCS Correlation Energy    =      -1.3254473032994181 [Eh]
	 SCS Total Energy          =    -303.1655078250008728 [Eh]
	-----------------------------------------------------------

  Dipole Moment: [D]
     X:     0.3896      Y:     1.7525      Z:     1.0114     Total:     2.0606

*** Psi4 exiting successfully. Buy a developer a beer!
