                               Psi4 1.3.2 release

  ==> Input File <==

--------------------------------------------------------------------------
#psi4
#
memory 32 gb

molecule  {
0 1
  N       -0.2773211    -1.1828501     0.0024315
  C       -0.8989770     0.0078150    -0.0038810
  C       -0.1842220     1.2188990    -0.0098900
  C        1.2026080     1.1704100     0.0047310
  C        1.8420610    -0.0727780     0.0063770
  C        1.0476300    -1.2144680     0.0024310
  H       -0.7133720     2.1685100    -0.0287310
  H        1.7800030     2.0919190     0.0058730
  H        2.9246290    -0.1531180     0.0135510
  H        1.4978930    -2.2058730     0.0048570
  N       -2.2904670    -0.0069960    -0.0835250
  H       -2.7545740     0.7554310     0.3970350
  H       -2.6685370    -0.9125390     0.1761140
units angstrom
no_reorient  #important for SAPT in psi4, default
symmetry c1  #important for SAPT in psi4, default
}

set PROPERTIES_ORIGIN ["COM"]
properties('MP2/aug-cc-pvtz', properties = ['dipole'])
--------------------------------------------------------------------------

    Molecular point group: c1
  Charge       = 0
  Multiplicity = 1
  Basis Set: AUG-CC-PVTZ
    Blend: AUG-CC-PVTZ
  Basis Set: (AUG-CC-PVTZ AUX)
    Blend: AUG-CC-PVTZ-JKFIT

    Orbital Energies [Eh]
    ---------------------

    Doubly Occupied:

       1A    -15.570270     2A    -15.552018     3A    -11.316851
       4A    -11.273388     5A    -11.258644     6A    -11.232660
       7A    -11.226116     8A     -1.279941     9A     -1.187163
      10A     -1.082313    11A     -1.005965    12A     -0.860469
      13A     -0.840360    14A     -0.717217    15A     -0.699788
      16A     -0.659406    17A     -0.623789    18A     -0.604900
      19A     -0.566692    20A     -0.563461    21A     -0.527487
      22A     -0.461681    23A     -0.414946    24A     -0.381749
      25A     -0.310944

  @DF-RHF Final Energy:  -301.84365926425733

   => Energetics <=

    Nuclear Repulsion Energy =            275.2136154016070577
    One-Electron Energy =                -953.6781126682849390
    Two-Electron Energy =                 376.6208380024205553
    Total Energy =                       -301.8436592642573260
  Basis Set: (AUG-CC-PVTZ AUX)
    Blend: AUG-CC-PVTZ-RI
    Molecular point group: c1

    Geometry (in Angstrom), charge = 0, multiplicity = 1:

       Center              X                  Y                   Z               Mass
    ------------   -----------------  -----------------  -----------------  -----------------
         N           -0.279647785595    -1.165998049573     0.008440799051    14.003074004430
         C           -0.901303685595     0.024667050427     0.002128299051    12.000000000000
         C           -0.186548685595     1.235751050427    -0.003880700949    12.000000000000
         C            1.200281314405     1.187262050427     0.010740299051    12.000000000000
         C            1.839734314405    -0.055925949573     0.012386299051    12.000000000000
         C            1.045303314405    -1.197615949573     0.008440299051    12.000000000000
         H           -0.715698685595     2.185362050427    -0.022721700949     1.007825032230
         H            1.777676314405     2.108771050427     0.011882299051     1.007825032230
         H            2.922302314405    -0.136265949573     0.019560299051     1.007825032230
         H            1.495566314405    -2.189020949573     0.010866299051     1.007825032230
         N           -2.292793685595     0.009856050427    -0.077515700949    14.003074004430
         H           -2.756900685595     0.772283050427     0.403044299051     1.007825032230
         H           -2.670863685595    -0.895686949573     0.182123299051     1.007825032230

  Basis Set: AUG-CC-PVTZ
    Blend: AUG-CC-PVTZ
  Basis Set: (AUG-CC-PVTZ AUX)
    Blend: AUG-CC-PVTZ-JKFIT
	 Reference Energy          =    -301.8436592642573260 [Eh]
	 Singles Energy            =      -0.0000000000000000 [Eh]
	 Same-Spin Energy          =      -0.3282474682984031 [Eh]
	 Opposite-Spin Energy      =      -1.0125319655742568 [Eh]
	 Correlation Energy        =      -1.3407794338726600 [Eh]
	 Total Energy              =    -303.1844386981300090 [Eh]

	 ================> DF-SCS-MP2 Energies <==================
	-----------------------------------------------------------
	 SCS Same-Spin Scale       =       0.3333333333333333 [-]
	 SCS Opposite-Spin Scale   =       1.2000000000000000 [-]
	 SCS Same-Spin Energy      =      -0.1094158227661343 [Eh]
	 SCS Opposite-Spin Energy  =      -1.2150383586891083 [Eh]
	 SCS Correlation Energy    =      -1.3244541814552426 [Eh]
	 SCS Total Energy          =    -303.1681134457125495 [Eh]
	-----------------------------------------------------------

  Dipole Moment: [D]
     X:    -0.0358      Y:     1.7148      Z:     1.0036     Total:     1.9872

*** Psi4 exiting successfully. Buy a developer a beer!
