                               Psi4 1.3.2 release

  ==> Input File <==

--------------------------------------------------------------------------
#psi4
#
memory 32 gb

molecule  {
0 1
  N       -0.2160272    -1.1487371     0.0082019
  C       -0.8989770     0.0078150    -0.0038810
  C       -0.1842220     1.2188990    -0.0098900
  C        1.2026080     1.1704100     0.0047310
  C        1.8420610    -0.0727780     0.0063770
  C        1.0476300    -1.2144680     0.0024310
  H       -0.7133720     2.1685100    -0.0287310
  H        1.7800030     2.0919190     0.0058730
  H        2.9246290    -0.1531180     0.0135510
  H        1.4978930    -2.2058730     0.0048570
  N       -2.2904670    -0.0069960    -0.0835250
  H       -2.7545740     0.7554310     0.3970350
  H       -2.6685370    -0.9125390     0.1761140
units angstrom
no_reorient  #important for SAPT in psi4, default
symmetry c1  #important for SAPT in psi4, default
}

set PROPERTIES_ORIGIN ["COM"]
properties('MP2/aug-cc-pvtz', properties = ['dipole'])
--------------------------------------------------------------------------

    Molecular point group: c1
  Charge       = 0
  Multiplicity = 1
  Basis Set: AUG-CC-PVTZ
    Blend: AUG-CC-PVTZ
  Basis Set: (AUG-CC-PVTZ AUX)
    Blend: AUG-CC-PVTZ-JKFIT

    Orbital Energies [Eh]
    ---------------------

    Doubly Occupied:

       1A    -15.573320     2A    -15.544641     3A    -11.317892
       4A    -11.265572     5A    -11.255072     6A    -11.230558
       7A    -11.222569     8A     -1.288887     9A     -1.197589
      10A     -1.080437    11A     -1.007373    12A     -0.859751
      13A     -0.844779    14A     -0.720361    15A     -0.702244
      16A     -0.658779    17A     -0.629912    18A     -0.605893
      19A     -0.568556    20A     -0.566708    21A     -0.529753
      22A     -0.466319    23A     -0.401313    24A     -0.385424
      25A     -0.307916

  @DF-RHF Final Energy:  -301.83871131909916

   => Energetics <=

    Nuclear Repulsion Energy =            276.4691362945362698
    One-Electron Energy =                -956.1524619617746339
    Two-Electron Energy =                 377.8446143481392028
    Total Energy =                       -301.8387113190991613
  Basis Set: (AUG-CC-PVTZ AUX)
    Blend: AUG-CC-PVTZ-RI
    Molecular point group: c1

    Geometry (in Angstrom), charge = 0, multiplicity = 1:

       Center              X                  Y                   Z               Mass
    ------------   -----------------  -----------------  -----------------  -----------------
         N           -0.227479613871    -1.136963955772     0.013352074367    14.003074004430
         C           -0.910429413871     0.019588144228     0.001269174367    12.000000000000
         C           -0.195674413871     1.230672144228    -0.004739825633    12.000000000000
         C            1.191155586129     1.182183144228     0.009881174367    12.000000000000
         C            1.830608586129    -0.061004855772     0.011527174367    12.000000000000
         C            1.036177586129    -1.202694855772     0.007581174367    12.000000000000
         H           -0.724824413871     2.180283144228    -0.023580825633     1.007825032230
         H            1.768550586129     2.103692144228     0.011023174367     1.007825032230
         H            2.913176586129    -0.141344855772     0.018701174367     1.007825032230
         H            1.486440586129    -2.194099855772     0.010007174367     1.007825032230
         N           -2.301919413871     0.004777144228    -0.078374825633    14.003074004430
         H           -2.766026413871     0.767204144228     0.402185174367     1.007825032230
         H           -2.679989413871    -0.900765855772     0.181264174367     1.007825032230

  Basis Set: AUG-CC-PVTZ
    Blend: AUG-CC-PVTZ
  Basis Set: (AUG-CC-PVTZ AUX)
    Blend: AUG-CC-PVTZ-JKFIT
	 Reference Energy          =    -301.8387113190991613 [Eh]
	 Singles Energy            =      -0.0000000000000000 [Eh]
	 Same-Spin Energy          =      -0.3281428299659133 [Eh]
	 Opposite-Spin Energy      =      -1.0112797153822064 [Eh]
	 Correlation Energy        =      -1.3394225453481197 [Eh]
	 Total Energy              =    -303.1781338644472612 [Eh]

	 ================> DF-SCS-MP2 Energies <==================
	-----------------------------------------------------------
	 SCS Same-Spin Scale       =       0.3333333333333333 [-]
	 SCS Opposite-Spin Scale   =       1.2000000000000000 [-]
	 SCS Same-Spin Energy      =      -0.1093809433219711 [Eh]
	 SCS Opposite-Spin Energy  =      -1.2135356584586476 [Eh]
	 SCS Correlation Energy    =      -1.3229166017806187 [Eh]
	 SCS Total Energy          =    -303.1616279208797664 [Eh]
	-----------------------------------------------------------

  Dipole Moment: [D]
     X:    -0.2184      Y:     1.5998      Z:     0.9971     Total:     1.8977

*** Psi4 exiting successfully. Buy a developer a beer!
