                               Psi4 1.4a3.dev225

  ==> Input File <==

--------------------------------------------------------------------------
#psi4
#
memory 32 gb

molecule  {
0 1
  N       -0.2982310    -1.1935080     0.0025490
  C       -0.8989600     0.0078550    -0.0037920
  C       -0.1841880     1.2189600    -0.0099150
  C        1.2026150     1.1703940     0.0047080
  C        1.8420660    -0.0728230     0.0063860
  C        1.0476430    -1.2144780     0.0023810
  H       -0.7133830     2.1685580    -0.0289310
  H        1.7801000     2.0918600     0.0058130
  H        2.9246530    -0.1531170     0.0136340
  H        1.4978100    -2.2059300     0.0047600
  N       -2.2903850    -0.0069810    -0.0833000
  H       -2.7642953     0.7704366     0.4061326
  H       -2.6687990    -0.9127910     0.1747070
units angstrom
no_reorient  #important for SAPT in psi4, default
symmetry c1  #important for SAPT in psi4, default
}

set PROPERTIES_ORIGIN ["COM"]
properties('MP2/aug-cc-pvtz', properties = ['dipole'])
--------------------------------------------------------------------------

    Molecular point group: c1
  Charge       = 0
  Multiplicity = 1
  Basis Set: AUG-CC-PVTZ
    Blend: AUG-CC-PVTZ
  Basis Set: (AUG-CC-PVTZ AUX)
    Blend: AUG-CC-PVTZ-JKFIT

    Orbital Energies [Eh]
    ---------------------

    Doubly Occupied:

       1A    -15.571173     2A    -15.554347     3A    -11.316568
       4A    -11.275836     5A    -11.259739     6A    -11.233321
       7A    -11.227227     8A     -1.276959     9A     -1.181463
      10A     -1.082854    11A     -1.004947    12A     -0.861241
      13A     -0.837297    14A     -0.714949    15A     -0.697603
      16A     -0.659194    17A     -0.619856    18A     -0.604322
      19A     -0.566388    20A     -0.561913    21A     -0.526181
      22A     -0.460031    23A     -0.419089    24A     -0.380350
      25A     -0.311770

  @DF-RHF Final Energy:  -301.84204796512535

   => Energetics <=

    Nuclear Repulsion Energy =            274.7107938376421998
    One-Electron Energy =                -952.6964486584437282
    Two-Electron Energy =                 376.1436068556761825
    Total Energy =                       -301.8420479651253459
  Basis Set: (AUG-CC-PVTZ AUX)
    Blend: AUG-CC-PVTZ-RI
    Molecular point group: c1

    Geometry (in Angstrom), charge = 0, multiplicity = 1:

       Center              X                  Y                   Z               Mass
    ------------   -----------------  -----------------  -----------------  -----------------
         N           -0.297359738487    -1.175232585582     0.008427833514    14.003074004430
         C           -0.898088738487     0.026130414418     0.002086833514    12.000000000000
         C           -0.183316738487     1.237235414418    -0.004036166486    12.000000000000
         C            1.203486261513     1.188669414418     0.010586833514    12.000000000000
         C            1.842937261513    -0.054547585582     0.012264833514    12.000000000000
         C            1.048514261513    -1.196202585582     0.008259833514    12.000000000000
         H           -0.712511738487     2.186833414418    -0.023052166486     1.007825032230
         H            1.780971261513     2.110135414418     0.011691833514     1.007825032230
         H            2.925524261513    -0.134841585582     0.019512833514     1.007825032230
         H            1.498681261513    -2.187654585582     0.010638833514     1.007825032230
         N           -2.289513738487     0.011294414418    -0.077421166486    14.003074004430
         H           -2.763424038487     0.788712014418     0.412011433514     1.007825032230
         H           -2.667927738487    -0.894515585582     0.180585833514     1.007825032230

  Basis Set: AUG-CC-PVTZ
    Blend: AUG-CC-PVTZ
  Basis Set: (AUG-CC-PVTZ AUX)
    Blend: AUG-CC-PVTZ-JKFIT
	 Reference Energy          =    -301.8420479651253459 [Eh]
	 Singles Energy            =      -0.0000000000000000 [Eh]
	 Same-Spin Energy          =      -0.3284305311178617 [Eh]
	 Opposite-Spin Energy      =      -1.0134196516219263 [Eh]
	 Correlation Energy        =      -1.3418501827397880 [Eh]
	 Total Energy              =    -303.1838981478651363 [Eh]

	 ================> DF-SCS-MP2 Energies <==================
	-----------------------------------------------------------
	 SCS Same-Spin Scale       =       0.3333333333333333 [-]
	 SCS Opposite-Spin Scale   =       1.2000000000000000 [-]
	 SCS Same-Spin Energy      =      -0.1094768437059539 [Eh]
	 SCS Opposite-Spin Energy  =      -1.2161035819463115 [Eh]
	 SCS Correlation Energy    =      -1.3255804256522654 [Eh]
	 SCS Total Energy          =    -303.1676283907776224 [Eh]
	-----------------------------------------------------------

  Dipole Moment: [D]
     X:     0.0112      Y:     1.7596      Z:     1.0052     Total:     2.0265

*** Psi4 exiting successfully. Buy a developer a beer!
