                               Psi4 1.4a3.dev225

  ==> Input File <==

--------------------------------------------------------------------------
#psi4
#
memory 32 gb

molecule  {
0 1
  N       -0.2982310    -1.1935080     0.0025490
  C       -0.8765982    -0.0368652    -0.0035560
  C       -0.1841880     1.2189600    -0.0099150
  C        1.2026150     1.1703940     0.0047080
  C        1.8420660    -0.0728230     0.0063860
  C        1.0476430    -1.2144780     0.0023810
  H       -0.7133830     2.1685580    -0.0289310
  H        1.7801000     2.0918600     0.0058130
  H        2.9246530    -0.1531170     0.0136340
  H        1.4978100    -2.2059300     0.0047600
  N       -2.2903850    -0.0069810    -0.0833000
  H       -2.7551260     0.7553950     0.3966630
  H       -2.6687990    -0.9127910     0.1747070
units angstrom
no_reorient  #important for SAPT in psi4, default
symmetry c1  #important for SAPT in psi4, default
}

set PROPERTIES_ORIGIN ["COM"]
properties('MP2/aug-cc-pvtz', properties = ['dipole'])
--------------------------------------------------------------------------

    Molecular point group: c1
  Charge       = 0
  Multiplicity = 1
  Basis Set: AUG-CC-PVTZ
    Blend: AUG-CC-PVTZ
  Basis Set: (AUG-CC-PVTZ AUX)
    Blend: AUG-CC-PVTZ-JKFIT

    Orbital Energies [Eh]
    ---------------------

    Doubly Occupied:

       1A    -15.565566     2A    -15.552565     3A    -11.315837
       4A    -11.276906     5A    -11.258978     6A    -11.237299
       7A    -11.229116     8A     -1.286603     9A     -1.179643
      10A     -1.086131    11A     -1.004570    12A     -0.864724
      13A     -0.836809    14A     -0.716033    15A     -0.695226
      16A     -0.661467    17A     -0.625077    18A     -0.598707
      19A     -0.566632    20A     -0.565594    21A     -0.528812
      22A     -0.457205    23A     -0.419822    24A     -0.384174
      25A     -0.313172

  @DF-RHF Final Energy:  -301.84158921653670

   => Energetics <=

    Nuclear Repulsion Energy =            275.1048423371995000
    One-Electron Energy =                -953.4395281903421164
    Two-Electron Energy =                 376.4930966366059693
    Total Energy =                       -301.8415892165367040
  Basis Set: (AUG-CC-PVTZ AUX)
    Blend: AUG-CC-PVTZ-RI
    Molecular point group: c1

    Geometry (in Angstrom), charge = 0, multiplicity = 1:

       Center              X                  Y                   Z               Mass
    ------------   -----------------  -----------------  -----------------  -----------------
         N           -0.300311078266    -1.169365668792     0.008499194267    14.003074004430
         C           -0.878678278266    -0.012722868792     0.002394194267    12.000000000000
         C           -0.186268078266     1.243102331208    -0.003964805733    12.000000000000
         C            1.200534921734     1.194536331208     0.010658194267    12.000000000000
         C            1.839985921734    -0.048680668792     0.012336194267    12.000000000000
         C            1.045562921734    -1.190335668792     0.008331194267    12.000000000000
         H           -0.715463078266     2.192700331208    -0.022980805733     1.007825032230
         H            1.778019921734     2.116002331208     0.011763194267     1.007825032230
         H            2.922572921734    -0.128974668792     0.019584194267     1.007825032230
         H            1.495729921734    -2.181787668792     0.010710194267     1.007825032230
         N           -2.292465078266     0.017161331208    -0.077349805733    14.003074004430
         H           -2.757206078266     0.779537331208     0.402613194267     1.007825032230
         H           -2.670879078266    -0.888648668792     0.180657194267     1.007825032230

  Basis Set: AUG-CC-PVTZ
    Blend: AUG-CC-PVTZ
  Basis Set: (AUG-CC-PVTZ AUX)
    Blend: AUG-CC-PVTZ-JKFIT
	 Reference Energy          =    -301.8415892165367040 [Eh]
	 Singles Energy            =      -0.0000000000000000 [Eh]
	 Same-Spin Energy          =      -0.3276994736493700 [Eh]
	 Opposite-Spin Energy      =      -1.0123174485016406 [Eh]
	 Correlation Energy        =      -1.3400169221510105 [Eh]
	 Total Energy              =    -303.1816061386876981 [Eh]

	 ================> DF-SCS-MP2 Energies <==================
	-----------------------------------------------------------
	 SCS Same-Spin Scale       =       0.3333333333333333 [-]
	 SCS Opposite-Spin Scale   =       1.2000000000000000 [-]
	 SCS Same-Spin Energy      =      -0.1092331578831233 [Eh]
	 SCS Opposite-Spin Energy  =      -1.2147809382019688 [Eh]
	 SCS Correlation Energy    =      -1.3240140960850921 [Eh]
	 SCS Total Energy          =    -303.1656033126217835 [Eh]
	-----------------------------------------------------------

  Dipole Moment: [D]
     X:     0.1807      Y:     1.7305      Z:     1.0081     Total:     2.0108

*** Psi4 exiting successfully. Buy a developer a beer!
