                               Psi4 1.3.2 release

  ==> Input File <==

--------------------------------------------------------------------------
#psi4
#
memory 32 gb

molecule  {
0 1
  N       -0.2981960    -1.1935180     0.0024800
  C       -0.8989770     0.0078150    -0.0038810
  C       -0.1842220     1.2188990    -0.0098900
  C        1.2026080     1.1704100     0.0047310
  C        1.8420610    -0.0727780     0.0063770
  C        1.0476300    -1.2144680     0.0024310
  H       -0.7133720     2.1685100    -0.0287310
  H        1.7800030     2.0919190     0.0058730
  H        2.9246290    -0.1531180     0.0135510
  H        1.4978930    -2.2058730     0.0048570
  N       -2.2904670    -0.0069960    -0.0835250
  H       -2.6630089     0.6050094     0.3022238
  H       -2.6685370    -0.9125390     0.1761140
units angstrom
no_reorient  #important for SAPT in psi4, default
symmetry c1  #important for SAPT in psi4, default
}

set PROPERTIES_ORIGIN ["COM"]
properties('MP2/aug-cc-pvtz', properties = ['dipole'])
--------------------------------------------------------------------------

    Molecular point group: c1
  Charge       = 0
  Multiplicity = 1
  Basis Set: AUG-CC-PVTZ
    Blend: AUG-CC-PVTZ
  Basis Set: (AUG-CC-PVTZ AUX)
    Blend: AUG-CC-PVTZ-JKFIT

    Orbital Energies [Eh]
    ---------------------

    Doubly Occupied:

       1A    -15.554865     2A    -15.546710     3A    -11.316965
       4A    -11.276314     5A    -11.260534     6A    -11.234374
       7A    -11.228122     8A     -1.289245     9A     -1.210015
      10A     -1.083826    11A     -1.013770    12A     -0.864355
      13A     -0.848569    14A     -0.742984    15A     -0.706274
      16A     -0.665004    17A     -0.634765    18A     -0.605476
      19A     -0.568123    20A     -0.563434    21A     -0.527413
      22A     -0.463363    23A     -0.419718    24A     -0.380964
      25A     -0.313957

  @DF-RHF Final Energy:  -301.79796400441882

   => Energetics <=

    Nuclear Repulsion Energy =            276.0416047386447076
    One-Electron Energy =                -955.0408616257417407
    Two-Electron Energy =                 377.2012928826782741
    Total Energy =                       -301.7979640044188159
  Basis Set: (AUG-CC-PVTZ AUX)
    Blend: AUG-CC-PVTZ-RI
    Molecular point group: c1

    Geometry (in Angstrom), charge = 0, multiplicity = 1:

       Center              X                  Y                   Z               Mass
    ------------   -----------------  -----------------  -----------------  -----------------
         N           -0.298395895798    -1.173465820574     0.009498026604    14.003074004430
         C           -0.899176895798     0.027867179426     0.003137026604    12.000000000000
         C           -0.184421895798     1.238951179426    -0.002871973396    12.000000000000
         C            1.202408104202     1.190462179426     0.011749026604    12.000000000000
         C            1.841861104202    -0.052725820574     0.013395026604    12.000000000000
         C            1.047430104202    -1.194415820574     0.009449026604    12.000000000000
         H           -0.713571895798     2.188562179426    -0.021712973396     1.007825032230
         H            1.779803104202     2.111971179426     0.012891026604     1.007825032230
         H            2.924429104202    -0.133065820574     0.020569026604     1.007825032230
         H            1.497693104202    -2.185820820574     0.011875026604     1.007825032230
         N           -2.290666895798     0.013056179426    -0.076506973396    14.003074004430
         H           -2.663208795798     0.625061579426     0.309241826604     1.007825032230
         H           -2.668736895798    -0.892486820574     0.183132026604     1.007825032230

  Basis Set: AUG-CC-PVTZ
    Blend: AUG-CC-PVTZ
  Basis Set: (AUG-CC-PVTZ AUX)
    Blend: AUG-CC-PVTZ-JKFIT
	 Reference Energy          =    -301.7979640044188159 [Eh]
	 Singles Energy            =      -0.0000000000000000 [Eh]
	 Same-Spin Energy          =      -0.3273497925468559 [Eh]
	 Opposite-Spin Energy      =      -1.0105596110828201 [Eh]
	 Correlation Energy        =      -1.3379094036296759 [Eh]
	 Total Energy              =    -303.1358734080484965 [Eh]

	 ================> DF-SCS-MP2 Energies <==================
	-----------------------------------------------------------
	 SCS Same-Spin Scale       =       0.3333333333333333 [-]
	 SCS Opposite-Spin Scale   =       1.2000000000000000 [-]
	 SCS Same-Spin Energy      =      -0.1091165975156186 [Eh]
	 SCS Opposite-Spin Energy  =      -1.2126715332993840 [Eh]
	 SCS Correlation Energy    =      -1.3217881308150026 [Eh]
	 SCS Total Energy          =    -303.1197521352337958 [Eh]
	-----------------------------------------------------------

  Dipole Moment: [D]
     X:     0.1171      Y:     1.6520      Z:     0.9590     Total:     1.9137

*** Psi4 exiting successfully. Buy a developer a beer!
