                               Psi4 1.3.2 release

  ==> Input File <==

--------------------------------------------------------------------------
#psi4
#
memory 32 gb

molecule  {
0 1
  N       -0.2981960    -1.1935180     0.0024800
  C       -0.8542493    -0.0816233    -0.0034074
  C       -0.1842220     1.2188990    -0.0098900
  C        1.2026080     1.1704100     0.0047310
  C        1.8420610    -0.0727780     0.0063770
  C        1.0476300    -1.2144680     0.0024310
  H       -0.7133720     2.1685100    -0.0287310
  H        1.7800030     2.0919190     0.0058730
  H        2.9246290    -0.1531180     0.0135510
  H        1.4978930    -2.2058730     0.0048570
  N       -2.2904670    -0.0069960    -0.0835250
  H       -2.7545740     0.7554310     0.3970350
  H       -2.6685370    -0.9125390     0.1761140
units angstrom
no_reorient  #important for SAPT in psi4, default
symmetry c1  #important for SAPT in psi4, default
}

set PROPERTIES_ORIGIN ["COM"]
properties('MP2/aug-cc-pvtz', properties = ['dipole'])
--------------------------------------------------------------------------

    Molecular point group: c1
  Charge       = 0
  Multiplicity = 1
  Basis Set: AUG-CC-PVTZ
    Blend: AUG-CC-PVTZ
  Basis Set: (AUG-CC-PVTZ AUX)
    Blend: AUG-CC-PVTZ-JKFIT

    Orbital Energies [Eh]
    ---------------------

    Doubly Occupied:

       1A    -15.561506     2A    -15.550565     3A    -11.314347
       4A    -11.278049     5A    -11.258035     6A    -11.241029
       7A    -11.231395     8A     -1.299818     9A     -1.173981
      10A     -1.089731    11A     -1.003730    12A     -0.869692
      13A     -0.833504    14A     -0.716494    15A     -0.691502
      16A     -0.663786    17A     -0.627326    18A     -0.593201
      19A     -0.570825    20A     -0.567163    21A     -0.530221
      22A     -0.454077    23A     -0.418679    24A     -0.388854
      25A     -0.314260

  @DF-RHF Final Energy:  -301.83278181646648

   => Energetics <=

    Nuclear Repulsion Energy =            275.4422329729968055
    One-Electron Energy =                -954.0664904539047484
    Two-Electron Energy =                 376.7914756644415206
    Total Energy =                       -301.8327818164664791
  Basis Set: (AUG-CC-PVTZ AUX)
    Blend: AUG-CC-PVTZ-RI
    Molecular point group: c1

    Geometry (in Angstrom), charge = 0, multiplicity = 1:

       Center              X                  Y                   Z               Mass
    ------------   -----------------  -----------------  -----------------  -----------------
         N           -0.303121426468    -1.163666452305     0.008421652698    14.003074004430
         C           -0.859174726468    -0.051771752305     0.002534252698    12.000000000000
         C           -0.189147426468     1.248750547695    -0.003948347302    12.000000000000
         C            1.197682573532     1.200261547695     0.010672652698    12.000000000000
         C            1.837135573532    -0.042926452305     0.012318652698    12.000000000000
         C            1.042704573532    -1.184616452305     0.008372652698    12.000000000000
         H           -0.718297426468     2.198361547695    -0.022789347302     1.007825032230
         H            1.775077573532     2.121770547695     0.011814652698     1.007825032230
         H            2.919703573532    -0.123266452305     0.019492652698     1.007825032230
         H            1.492967573532    -2.176021452305     0.010798652698     1.007825032230
         N           -2.295392426468     0.022855547695    -0.077583347302    14.003074004430
         H           -2.759499426468     0.785282547695     0.402976652698     1.007825032230
         H           -2.673462426468    -0.882687452305     0.182055652698     1.007825032230

  Basis Set: AUG-CC-PVTZ
    Blend: AUG-CC-PVTZ
  Basis Set: (AUG-CC-PVTZ AUX)
    Blend: AUG-CC-PVTZ-JKFIT
	 Reference Energy          =    -301.8327818164664791 [Eh]
	 Singles Energy            =      -0.0000000000000000 [Eh]
	 Same-Spin Energy          =      -0.3270180082718160 [Eh]
	 Opposite-Spin Energy      =      -1.0118533322807033 [Eh]
	 Correlation Energy        =      -1.3388713405525192 [Eh]
	 Total Energy              =    -303.1716531570190227 [Eh]

	 ================> DF-SCS-MP2 Energies <==================
	-----------------------------------------------------------
	 SCS Same-Spin Scale       =       0.3333333333333333 [-]
	 SCS Opposite-Spin Scale   =       1.2000000000000000 [-]
	 SCS Same-Spin Energy      =      -0.1090060027572720 [Eh]
	 SCS Opposite-Spin Energy  =      -1.2142239987368439 [Eh]
	 SCS Correlation Energy    =      -1.3232300014941161 [Eh]
	 SCS Total Energy          =    -303.1560118179605752 [Eh]
	-----------------------------------------------------------

  Dipole Moment: [D]
     X:     0.3597      Y:     1.6876      Z:     1.0184     Total:     2.0036

*** Psi4 exiting successfully. Buy a developer a beer!
