                               Psi4 1.3.2 release

  ==> Input File <==

--------------------------------------------------------------------------
#psi4
#
memory 32 gb

molecule  {
0 1
  N       -0.2158575    -1.1486837     0.0022746
  C       -0.8989770     0.0078150    -0.0038810
  C       -0.1842220     1.2188990    -0.0098900
  C        1.2026080     1.1704100     0.0047310
  C        1.8420610    -0.0727780     0.0063770
  C        1.0476300    -1.2144680     0.0024310
  H       -0.7133720     2.1685100    -0.0287310
  H        1.7800030     2.0919190     0.0058730
  H        2.9246290    -0.1531180     0.0135510
  H        1.4978930    -2.2058730     0.0048570
  N       -2.2904670    -0.0069960    -0.0835250
  H       -2.7545740     0.7554310     0.3970350
  H       -2.6685370    -0.9125390     0.1761140
units angstrom
no_reorient  #important for SAPT in psi4, default
symmetry c1  #important for SAPT in psi4, default
}

set PROPERTIES_ORIGIN ["COM"]
properties('MP2/aug-cc-pvtz', properties = ['dipole'])
--------------------------------------------------------------------------

    Molecular point group: c1
  Charge       = 0
  Multiplicity = 1
  Basis Set: AUG-CC-PVTZ
    Blend: AUG-CC-PVTZ
  Basis Set: (AUG-CC-PVTZ AUX)
    Blend: AUG-CC-PVTZ-JKFIT

    Orbital Energies [Eh]
    ---------------------

    Doubly Occupied:

       1A    -15.573340     2A    -15.544612     3A    -11.317895
       4A    -11.265544     5A    -11.255059     6A    -11.230549
       7A    -11.222547     8A     -1.288918     9A     -1.197622
      10A     -1.080429    11A     -1.007376    12A     -0.859761
      13A     -0.844784    14A     -0.720369    15A     -0.702253
      16A     -0.658710    17A     -0.629886    18A     -0.605914
      19A     -0.568657    20A     -0.566690    21A     -0.529724
      22A     -0.466408    23A     -0.401257    24A     -0.385440
      25A     -0.307870

  @DF-RHF Final Energy:  -301.83868850545059

   => Energetics <=

    Nuclear Repulsion Energy =            276.4731545808980400
    One-Electron Energy =                -956.1604597379691768
    Two-Electron Energy =                 377.8486166516205458
    Total Energy =                       -301.8386885054505910
  Basis Set: (AUG-CC-PVTZ AUX)
    Blend: AUG-CC-PVTZ-RI
    Molecular point group: c1

    Geometry (in Angstrom), charge = 0, multiplicity = 1:

       Center              X                  Y                   Z               Mass
    ------------   -----------------  -----------------  -----------------  -----------------
         N           -0.227335179617    -1.136918506219     0.008307259072    14.003074004430
         C           -0.910454679617     0.019580193781     0.002151659072    12.000000000000
         C           -0.195699679617     1.230664193781    -0.003857340928    12.000000000000
         C            1.191130320383     1.182175193781     0.010763659072    12.000000000000
         C            1.830583320383    -0.061012806219     0.012409659072    12.000000000000
         C            1.036152320383    -1.202702806219     0.008463659072    12.000000000000
         H           -0.724849679617     2.180275193781    -0.022698340928     1.007825032230
         H            1.768525320383     2.103684193781     0.011905659072     1.007825032230
         H            2.913151320383    -0.141352806219     0.019583659072     1.007825032230
         H            1.486415320383    -2.194107806219     0.010889659072     1.007825032230
         N           -2.301944679617     0.004769193781    -0.077492340928    14.003074004430
         H           -2.766051679617     0.767196193781     0.403067659072     1.007825032230
         H           -2.680014679617    -0.900773806219     0.182146659072     1.007825032230

  Basis Set: AUG-CC-PVTZ
    Blend: AUG-CC-PVTZ
  Basis Set: (AUG-CC-PVTZ AUX)
    Blend: AUG-CC-PVTZ-JKFIT
	 Reference Energy          =    -301.8386885054505910 [Eh]
	 Singles Energy            =      -0.0000000000000000 [Eh]
	 Same-Spin Energy          =      -0.3281423820285941 [Eh]
	 Opposite-Spin Energy      =      -1.0112785229653127 [Eh]
	 Correlation Energy        =      -1.3394209049939070 [Eh]
	 Total Energy              =    -303.1781094104445060 [Eh]

	 ================> DF-SCS-MP2 Energies <==================
	-----------------------------------------------------------
	 SCS Same-Spin Scale       =       0.3333333333333333 [-]
	 SCS Opposite-Spin Scale   =       1.2000000000000000 [-]
	 SCS Same-Spin Energy      =      -0.1093807940095314 [Eh]
	 SCS Opposite-Spin Energy  =      -1.2135342275583751 [Eh]
	 SCS Correlation Energy    =      -1.3229150215679066 [Eh]
	 SCS Total Energy          =    -303.1616035270184852 [Eh]
	-----------------------------------------------------------

  Dipole Moment: [D]
     X:    -0.2198      Y:     1.5994      Z:     1.0046     Total:     1.9014

*** Psi4 exiting successfully. Buy a developer a beer!
