                               Psi4 1.3.2 release

  ==> Input File <==

--------------------------------------------------------------------------
#psi4
#
memory 32 gb

molecule  {
0 1
  N       -0.1759119    -1.1241389     0.0021606
  C       -0.8989770     0.0078150    -0.0038810
  C       -0.1842220     1.2188990    -0.0098900
  C        1.2026080     1.1704100     0.0047310
  C        1.8420610    -0.0727780     0.0063770
  C        1.0476300    -1.2144680     0.0024310
  H       -0.7133720     2.1685100    -0.0287310
  H        1.7800030     2.0919190     0.0058730
  H        2.9246290    -0.1531180     0.0135510
  H        1.4978930    -2.2058730     0.0048570
  N       -2.2904670    -0.0069960    -0.0835250
  H       -2.7545740     0.7554310     0.3970350
  H       -2.6685370    -0.9125390     0.1761140
units angstrom
no_reorient  #important for SAPT in psi4, default
symmetry c1  #important for SAPT in psi4, default
}

set PROPERTIES_ORIGIN ["COM"]
properties('MP2/aug-cc-pvtz', properties = ['dipole'])
--------------------------------------------------------------------------

    Molecular point group: c1
  Charge       = 0
  Multiplicity = 1
  Basis Set: AUG-CC-PVTZ
    Blend: AUG-CC-PVTZ
  Basis Set: (AUG-CC-PVTZ AUX)
    Blend: AUG-CC-PVTZ-JKFIT

    Orbital Energies [Eh]
    ---------------------

    Doubly Occupied:

       1A    -15.575274     2A    -15.539490     3A    -11.318764
       4A    -11.260145     5A    -11.252602     6A    -11.229290
       7A    -11.220191     8A     -1.296477     9A     -1.203832
      10A     -1.079286    11A     -1.008529    12A     -0.861824
      13A     -0.844753    14A     -0.722894    15A     -0.703814
      16A     -0.658903    17A     -0.633624    18A     -0.606404
      19A     -0.572891    20A     -0.566427    21A     -0.530301
      22A     -0.470056    23A     -0.391329    24A     -0.387554
      25A     -0.305883

  @DF-RHF Final Energy:  -301.82902164858012

   => Energetics <=

    Nuclear Repulsion Energy =            277.3606214304486457
    One-Electron Energy =                -957.8982150286092292
    Two-Electron Energy =                 378.7085719495804597
    Total Energy =                       -301.8290216485801238
  Basis Set: (AUG-CC-PVTZ AUX)
    Blend: AUG-CC-PVTZ-RI
    Molecular point group: c1

    Geometry (in Angstrom), charge = 0, multiplicity = 1:

       Center              X                  Y                   Z               Mass
    ------------   -----------------  -----------------  -----------------  -----------------
         N           -0.193336871133    -1.116028053151     0.008210231936    14.003074004430
         C           -0.916401971133     0.015925846849     0.002168631936    12.000000000000
         C           -0.201646971133     1.227009846849    -0.003840368064    12.000000000000
         C            1.185183028867     1.178520846849     0.010780631936    12.000000000000
         C            1.824636028867    -0.064667153151     0.012426631936    12.000000000000
         C            1.030205028867    -1.206357153151     0.008480631936    12.000000000000
         H           -0.730796971133     2.176620846849    -0.022681368064     1.007825032230
         H            1.762578028867     2.100029846849     0.011922631936     1.007825032230
         H            2.907204028867    -0.145007153151     0.019600631936     1.007825032230
         H            1.480468028867    -2.197762153151     0.010906631936     1.007825032230
         N           -2.307891971133     0.001114846849    -0.077475368064    14.003074004430
         H           -2.771998971133     0.763541846849     0.403084631936     1.007825032230
         H           -2.685961971133    -0.904428153151     0.182163631936     1.007825032230

  Basis Set: AUG-CC-PVTZ
    Blend: AUG-CC-PVTZ
  Basis Set: (AUG-CC-PVTZ AUX)
    Blend: AUG-CC-PVTZ-JKFIT
	 Reference Energy          =    -301.8290216485801238 [Eh]
	 Singles Energy            =      -0.0000000000000000 [Eh]
	 Same-Spin Energy          =      -0.3281653946877050 [Eh]
	 Opposite-Spin Energy      =      -1.0107958683853284 [Eh]
	 Correlation Energy        =      -1.3389612630730334 [Eh]
	 Total Energy              =    -303.1679829116531550 [Eh]

	 ================> DF-SCS-MP2 Energies <==================
	-----------------------------------------------------------
	 SCS Same-Spin Scale       =       0.3333333333333333 [-]
	 SCS Opposite-Spin Scale   =       1.2000000000000000 [-]
	 SCS Same-Spin Energy      =      -0.1093884648959017 [Eh]
	 SCS Opposite-Spin Energy  =      -1.2129550420623940 [Eh]
	 SCS Correlation Energy    =      -1.3223435069582956 [Eh]
	 SCS Total Energy          =    -303.1513651555384286 [Eh]
	-----------------------------------------------------------

  Dipole Moment: [D]
     X:    -0.3553      Y:     1.5168      Z:     1.0052     Total:     1.8540

*** Psi4 exiting successfully. Buy a developer a beer!
