                               Psi4 1.3.2 release

  ==> Input File <==

--------------------------------------------------------------------------
#psi4
#
memory 32 gb

molecule  {
0 1
  N       -0.3192115    -1.2038066     0.0010436
  C       -0.8989770     0.0078150    -0.0038810
  C       -0.1842220     1.2188990    -0.0098900
  C        1.2026080     1.1704100     0.0047310
  C        1.8420610    -0.0727780     0.0063770
  C        1.0476300    -1.2144680     0.0024310
  H       -0.7133720     2.1685100    -0.0287310
  H        1.7800030     2.0919190     0.0058730
  H        2.9246290    -0.1531180     0.0135510
  H        1.4978930    -2.2058730     0.0048570
  N       -2.2904670    -0.0069960    -0.0835250
  H       -2.7545740     0.7554310     0.3970350
  H       -2.6685370    -0.9125390     0.1761140
units angstrom
no_reorient  #important for SAPT in psi4, default
symmetry c1  #important for SAPT in psi4, default
}

set PROPERTIES_ORIGIN ["COM"]
properties('MP2/aug-cc-pvtz', properties = ['dipole'])
--------------------------------------------------------------------------

    Molecular point group: c1
  Charge       = 0
  Multiplicity = 1
  Basis Set: AUG-CC-PVTZ
    Blend: AUG-CC-PVTZ
  Basis Set: (AUG-CC-PVTZ AUX)
    Blend: AUG-CC-PVTZ-JKFIT

    Orbital Energies [Eh]
    ---------------------

    Doubly Occupied:

       1A    -15.568137     2A    -15.556662     3A    -11.316338
       4A    -11.278271     5A    -11.260957     6A    -11.234165
       7A    -11.228474     8A     -1.275445     9A     -1.179771
      10A     -1.083546    11A     -1.005255    12A     -0.862531
      13A     -0.835585    14A     -0.715527    15A     -0.698066
      16A     -0.660204    17A     -0.619996    18A     -0.603885
      19A     -0.566440    20A     -0.560778    21A     -0.524892
      22A     -0.459139    23A     -0.423073    24A     -0.379021
      25A     -0.312995

  @DF-RHF Final Energy:  -301.84143721520002

   => Energetics <=

    Nuclear Repulsion Energy =            274.4259267292396203
    One-Electron Energy =                -952.1164233726290149
    Two-Electron Energy =                 375.8490594281894346
    Total Energy =                       -301.8414372152000169
  Basis Set: (AUG-CC-PVTZ AUX)
    Blend: AUG-CC-PVTZ-RI
    Molecular point group: c1

    Geometry (in Angstrom), charge = 0, multiplicity = 1:

       Center              X                  Y                   Z               Mass
    ------------   -----------------  -----------------  -----------------  -----------------
         N           -0.315301342977    -1.183834445866     0.007259536225    14.003074004430
         C           -0.895066842977     0.027787154134     0.002334936225    12.000000000000
         C           -0.180311842977     1.238871154134    -0.003674063775    12.000000000000
         C            1.206518157023     1.190382154134     0.010946936225    12.000000000000
         C            1.845971157023    -0.052805845866     0.012592936225    12.000000000000
         C            1.051540157023    -1.194495845866     0.008646936225    12.000000000000
         H           -0.709461842977     2.188482154134    -0.022515063775     1.007825032230
         H            1.783913157023     2.111891154134     0.012088936225     1.007825032230
         H            2.928539157023    -0.133145845866     0.019766936225     1.007825032230
         H            1.501803157023    -2.185900845866     0.011072936225     1.007825032230
         N           -2.286556842977     0.012976154134    -0.077309063775    14.003074004430
         H           -2.750663842977     0.775403154134     0.403250936225     1.007825032230
         H           -2.664626842977    -0.892566845866     0.182329936225     1.007825032230

  Basis Set: AUG-CC-PVTZ
    Blend: AUG-CC-PVTZ
  Basis Set: (AUG-CC-PVTZ AUX)
    Blend: AUG-CC-PVTZ-JKFIT
	 Reference Energy          =    -301.8414372152000169 [Eh]
	 Singles Energy            =      -0.0000000000000000 [Eh]
	 Same-Spin Energy          =      -0.3284042786668299 [Eh]
	 Opposite-Spin Energy      =      -1.0137105974504075 [Eh]
	 Correlation Energy        =      -1.3421148761172375 [Eh]
	 Total Energy              =    -303.1835520913172672 [Eh]

	 ================> DF-SCS-MP2 Energies <==================
	-----------------------------------------------------------
	 SCS Same-Spin Scale       =       0.3333333333333333 [-]
	 SCS Opposite-Spin Scale   =       1.2000000000000000 [-]
	 SCS Same-Spin Energy      =      -0.1094680928889433 [Eh]
	 SCS Opposite-Spin Energy  =      -1.2164527169404888 [Eh]
	 SCS Correlation Energy    =      -1.3259208098294322 [Eh]
	 SCS Total Energy          =    -303.1673580250294435 [Eh]
	-----------------------------------------------------------

  Dipole Moment: [D]
     X:     0.0762      Y:     1.7844      Z:     1.0048     Total:     2.0493

*** Psi4 exiting successfully. Buy a developer a beer!
