                               Psi4 1.3.2 release

  ==> Input File <==

--------------------------------------------------------------------------
#psi4
#
memory 32 gb

molecule  {
0 1
  N       -0.2981960    -1.1935180     0.0024800
  C       -0.8989770     0.0078150    -0.0038810
  C       -0.1842220     1.2188990    -0.0098900
  C        1.2026080     1.1704100     0.0047310
  C        1.8420610    -0.0727780     0.0063770
  C        1.0476300    -1.2144680     0.0024310
  H       -0.7133720     2.1685100    -0.0287310
  H        1.7800030     2.0919190     0.0058730
  H        2.9246290    -0.1531180     0.0135510
  H        1.4978930    -2.2058730     0.0048570
  N       -2.2904670    -0.0069960    -0.0835250
  H       -2.8461391     0.9058526     0.4918462
  H       -2.6685370    -0.9125390     0.1761140
units angstrom
no_reorient  #important for SAPT in psi4, default
symmetry c1  #important for SAPT in psi4, default
}

set PROPERTIES_ORIGIN ["COM"]
properties('MP2/aug-cc-pvtz', properties = ['dipole'])
--------------------------------------------------------------------------

    Molecular point group: c1
  Charge       = 0
  Multiplicity = 1
  Basis Set: AUG-CC-PVTZ
    Blend: AUG-CC-PVTZ
  Basis Set: (AUG-CC-PVTZ AUX)
    Blend: AUG-CC-PVTZ-JKFIT

    Orbital Energies [Eh]
    ---------------------

    Doubly Occupied:

       1A    -15.586450     2A    -15.554725     3A    -11.316584
       4A    -11.275805     5A    -11.259346     6A    -11.232938
       7A    -11.227121     8A     -1.273992     9A     -1.168449
      10A     -1.082493    11A     -1.000746    12A     -0.860304
      13A     -0.832481    14A     -0.709820    15A     -0.686316
      16A     -0.654453    17A     -0.605014    18A     -0.594542
      19A     -0.563794    20A     -0.560986    21A     -0.524856
      22A     -0.458201    23A     -0.419141    24A     -0.380176
      25A     -0.310633

  @DF-RHF Final Energy:  -301.81383519599706

   => Energetics <=

    Nuclear Repulsion Energy =            273.9016672750769317
    One-Electron Energy =                -951.1522710204334317
    Two-Electron Energy =                 375.4367685493594990
    Total Energy =                       -301.8138351959970578
  Basis Set: (AUG-CC-PVTZ AUX)
    Blend: AUG-CC-PVTZ-RI
    Molecular point group: c1

    Geometry (in Angstrom), charge = 0, multiplicity = 1:

       Center              X                  Y                   Z               Mass
    ------------   -----------------  -----------------  -----------------  -----------------
         N           -0.296433565973    -1.176689502872     0.007466129675    14.003074004430
         C           -0.897214565973     0.024643497128     0.001105129675    12.000000000000
         C           -0.182459565973     1.235727497128    -0.004903870325    12.000000000000
         C            1.204370434027     1.187238497128     0.009717129675    12.000000000000
         C            1.843823434027    -0.055949502872     0.011363129675    12.000000000000
         C            1.049392434027    -1.197639502872     0.007417129675    12.000000000000
         H           -0.711609565973     2.185338497128    -0.023744870325     1.007825032230
         H            1.781765434027     2.108747497128     0.010859129675     1.007825032230
         H            2.926391434027    -0.136289502872     0.018537129675     1.007825032230
         H            1.499655434027    -2.189044502872     0.009843129675     1.007825032230
         N           -2.288704565973     0.009832497128    -0.078538870325    14.003074004430
         H           -2.844376665973     0.922681097128     0.496832329675     1.007825032230
         H           -2.666774565973    -0.895710502872     0.181100129675     1.007825032230

  Basis Set: AUG-CC-PVTZ
    Blend: AUG-CC-PVTZ
  Basis Set: (AUG-CC-PVTZ AUX)
    Blend: AUG-CC-PVTZ-JKFIT
	 Reference Energy          =    -301.8138351959970578 [Eh]
	 Singles Energy            =      -0.0000000000000000 [Eh]
	 Same-Spin Energy          =      -0.3294552692468384 [Eh]
	 Opposite-Spin Energy      =      -1.0168923916749231 [Eh]
	 Correlation Energy        =      -1.3463476609217615 [Eh]
	 Total Energy              =    -303.1601828569188228 [Eh]

	 ================> DF-SCS-MP2 Energies <==================
	-----------------------------------------------------------
	 SCS Same-Spin Scale       =       0.3333333333333333 [-]
	 SCS Opposite-Spin Scale   =       1.2000000000000000 [-]
	 SCS Same-Spin Energy      =      -0.1098184230822795 [Eh]
	 SCS Opposite-Spin Energy  =      -1.2202708700099076 [Eh]
	 SCS Correlation Energy    =      -1.3300892930921870 [Eh]
	 SCS Total Energy          =    -303.1439244890892724 [Eh]
	-----------------------------------------------------------

  Dipole Moment: [D]
     X:    -0.0193      Y:     1.8368      Z:     1.0470     Total:     2.1143

*** Psi4 exiting successfully. Buy a developer a beer!
