                               Psi4 1.3.2 release

  ==> Input File <==

--------------------------------------------------------------------------
#psi4
#
memory 32 gb

molecule  {
0 1
  N       -0.2981960    -1.1935180     0.0024800
  C       -0.7701106     0.0640317    -0.0041975
  C       -0.1842220     1.2188990    -0.0098900
  C        1.2026080     1.1704100     0.0047310
  C        1.8420610    -0.0727780     0.0063770
  C        1.0476300    -1.2144680     0.0024310
  H       -0.7133720     2.1685100    -0.0287310
  H        1.7800030     2.0919190     0.0058730
  H        2.9246290    -0.1531180     0.0135510
  H        1.4978930    -2.2058730     0.0048570
  N       -2.2904670    -0.0069960    -0.0835250
  H       -2.7545740     0.7554310     0.3970350
  H       -2.6685370    -0.9125390     0.1761140
units angstrom
no_reorient  #important for SAPT in psi4, default
symmetry c1  #important for SAPT in psi4, default
}

set PROPERTIES_ORIGIN ["COM"]
properties('MP2/aug-cc-pvtz', properties = ['dipole'])
--------------------------------------------------------------------------

    Molecular point group: c1
  Charge       = 0
  Multiplicity = 1
  Basis Set: AUG-CC-PVTZ
    Blend: AUG-CC-PVTZ
  Basis Set: (AUG-CC-PVTZ AUX)
    Blend: AUG-CC-PVTZ-JKFIT

    Orbital Energies [Eh]
    ---------------------

    Doubly Occupied:

       1A    -15.565347     2A    -15.549645     3A    -11.307085
       4A    -11.282279     5A    -11.268500     6A    -11.236307
       7A    -11.228581     8A     -1.277982     9A     -1.147119
      10A     -1.101990    11A     -1.019678    12A     -0.876123
      13A     -0.837740    14A     -0.715105    15A     -0.687878
      16A     -0.650615    17A     -0.624667    18A     -0.597980
      19A     -0.569315    20A     -0.565109    21A     -0.514497
      22A     -0.446185    23A     -0.431458    24A     -0.387706
      25A     -0.329327

  @DF-RHF Final Energy:  -301.81676108402684

   => Energetics <=

    Nuclear Repulsion Energy =            275.6787015590178953
    One-Electron Energy =                -954.5544893929261434
    Two-Electron Energy =                 377.0590267498814114
    Total Energy =                       -301.8167610840268367
  Basis Set: (AUG-CC-PVTZ AUX)
    Blend: AUG-CC-PVTZ-RI
    Molecular point group: c1

    Geometry (in Angstrom), charge = 0, multiplicity = 1:

       Center              X                  Y                   Z               Mass
    ------------   -----------------  -----------------  -----------------  -----------------
         N           -0.313856473152    -1.182250210133     0.008522459585    14.003074004430
         C           -0.785771073152     0.075299489867     0.001844959585    12.000000000000
         C           -0.199882473152     1.230166789867    -0.003847540415    12.000000000000
         C            1.186947526848     1.181677789867     0.010773459585    12.000000000000
         C            1.826400526848    -0.061510210133     0.012419459585    12.000000000000
         C            1.031969526848    -1.203200210133     0.008473459585    12.000000000000
         H           -0.729032473152     2.179777789867    -0.022688540415     1.007825032230
         H            1.764342526848     2.103186789867     0.011915459585     1.007825032230
         H            2.908968526848    -0.141850210133     0.019593459585     1.007825032230
         H            1.482232526848    -2.194605210133     0.010899459585     1.007825032230
         N           -2.306127473152     0.004271789867    -0.077482540415    14.003074004430
         H           -2.770234473152     0.766698789867     0.403077459585     1.007825032230
         H           -2.684197473152    -0.901271210133     0.182156459585     1.007825032230

  Basis Set: AUG-CC-PVTZ
    Blend: AUG-CC-PVTZ
  Basis Set: (AUG-CC-PVTZ AUX)
    Blend: AUG-CC-PVTZ-JKFIT
	 Reference Energy          =    -301.8167610840268367 [Eh]
	 Singles Energy            =      -0.0000000000000000 [Eh]
	 Same-Spin Energy          =      -0.3285393099648901 [Eh]
	 Opposite-Spin Energy      =      -1.0146869908460658 [Eh]
	 Correlation Energy        =      -1.3432263008109560 [Eh]
	 Total Energy              =    -303.1599873848377911 [Eh]

	 ================> DF-SCS-MP2 Energies <==================
	-----------------------------------------------------------
	 SCS Same-Spin Scale       =       0.3333333333333333 [-]
	 SCS Opposite-Spin Scale   =       1.2000000000000000 [-]
	 SCS Same-Spin Energy      =      -0.1095131033216300 [Eh]
	 SCS Opposite-Spin Energy  =      -1.2176243890152789 [Eh]
	 SCS Correlation Energy    =      -1.3271374923369090 [Eh]
	 SCS Total Energy          =    -303.1438985763637675 [Eh]
	-----------------------------------------------------------

  Dipole Moment: [D]
     X:     1.1046      Y:     1.7584      Z:     1.0257     Total:     2.3160

*** Psi4 exiting successfully. Buy a developer a beer!
