                               Psi4 1.4a3.dev225

  ==> Input File <==

--------------------------------------------------------------------------
#psi4
#
memory 32 gb

molecule  {
0 1
  N       -0.2982310    -1.1935080     0.0025490
  C       -0.9079047     0.0257431    -0.0038864
  C       -0.1841880     1.2189600    -0.0099150
  C        1.2026150     1.1703940     0.0047080
  C        1.8420660    -0.0728230     0.0063860
  C        1.0476430    -1.2144780     0.0023810
  H       -0.7133830     2.1685580    -0.0289310
  H        1.7801000     2.0918600     0.0058130
  H        2.9246530    -0.1531170     0.0136340
  H        1.4978100    -2.2059300     0.0047600
  N       -2.2903850    -0.0069810    -0.0833000
  H       -2.7551260     0.7553950     0.3966630
  H       -2.6687990    -0.9127910     0.1747070
units angstrom
no_reorient  #important for SAPT in psi4, default
symmetry c1  #important for SAPT in psi4, default
}

set PROPERTIES_ORIGIN ["COM"]
properties('MP2/aug-cc-pvtz', properties = ['dipole'])
--------------------------------------------------------------------------

    Molecular point group: c1
  Charge       = 0
  Multiplicity = 1
  Basis Set: AUG-CC-PVTZ
    Blend: AUG-CC-PVTZ
  Basis Set: (AUG-CC-PVTZ AUX)
    Blend: AUG-CC-PVTZ-JKFIT

    Orbital Energies [Eh]
    ---------------------

    Doubly Occupied:

       1A    -15.570530     2A    -15.554993     3A    -11.316697
       4A    -11.275457     5A    -11.260092     6A    -11.231812
       7A    -11.226662     8A     -1.275051     9A     -1.184408
      10A     -1.081776    11A     -1.006015    12A     -0.860768
      13A     -0.837778    14A     -0.716708    15A     -0.700423
      16A     -0.659471    17A     -0.620429    18A     -0.606457
      19A     -0.566616    20A     -0.561017    21A     -0.525016
      22A     -0.461441    23A     -0.418374    24A     -0.379163
      25A     -0.311398

  @DF-RHF Final Energy:  -301.84186163202543

   => Energetics <=

    Nuclear Repulsion Energy =            274.7074678660736140
    One-Electron Energy =                -952.6815569438182365
    Two-Electron Energy =                 376.1322274457191384
    Total Energy =                       -301.8418616320254273
  Basis Set: (AUG-CC-PVTZ AUX)
    Blend: AUG-CC-PVTZ-RI
    Molecular point group: c1

    Geometry (in Angstrom), charge = 0, multiplicity = 1:

       Center              X                  Y                   Z               Mass
    ------------   -----------------  -----------------  -----------------  -----------------
         N           -0.296316760086    -1.177353705490     0.008541349178    14.003074004430
         C           -0.905990460086     0.041897394510     0.002105949178    12.000000000000
         C           -0.182273760086     1.235114294510    -0.003922650822    12.000000000000
         C            1.204529239914     1.186548294510     0.010700349178    12.000000000000
         C            1.843980239914    -0.056668705490     0.012378349178    12.000000000000
         C            1.049557239914    -1.198323705490     0.008373349178    12.000000000000
         H           -0.711468760086     2.184712294510    -0.022938650822     1.007825032230
         H            1.782014239914     2.108014294510     0.011805349178     1.007825032230
         H            2.926567239914    -0.136962705490     0.019626349178     1.007825032230
         H            1.499724239914    -2.189775705490     0.010752349178     1.007825032230
         N           -2.288470760086     0.009173294510    -0.077307650822    14.003074004430
         H           -2.753211760086     0.771549294510     0.402655349178     1.007825032230
         H           -2.666884760086    -0.896636705490     0.180699349178     1.007825032230

  Basis Set: AUG-CC-PVTZ
    Blend: AUG-CC-PVTZ
  Basis Set: (AUG-CC-PVTZ AUX)
    Blend: AUG-CC-PVTZ-JKFIT
	 Reference Energy          =    -301.8418616320254273 [Eh]
	 Singles Energy            =      -0.0000000000000000 [Eh]
	 Same-Spin Energy          =      -0.3285433529661335 [Eh]
	 Opposite-Spin Energy      =      -1.0134778728601166 [Eh]
	 Correlation Energy        =      -1.3420212258262501 [Eh]
	 Total Energy              =    -303.1838828578516996 [Eh]

	 ================> DF-SCS-MP2 Energies <==================
	-----------------------------------------------------------
	 SCS Same-Spin Scale       =       0.3333333333333333 [-]
	 SCS Opposite-Spin Scale   =       1.2000000000000000 [-]
	 SCS Same-Spin Energy      =      -0.1095144509887112 [Eh]
	 SCS Opposite-Spin Energy  =      -1.2161734474321400 [Eh]
	 SCS Correlation Energy    =      -1.3256878984208511 [Eh]
	 SCS Total Energy          =    -303.1675495304462515 [Eh]
	-----------------------------------------------------------

  Dipole Moment: [D]
     X:    -0.0433      Y:     1.7525      Z:     0.9976     Total:     2.0171

*** Psi4 exiting successfully. Buy a developer a beer!
