                               Psi4 1.3.2 release

  ==> Input File <==

--------------------------------------------------------------------------
#psi4
#
memory 32 gb

molecule  {
0 1
  N       -0.4268082    -1.2496550    -0.0061522
  C       -0.8989770     0.0078150    -0.0038810
  C       -0.1842220     1.2188990    -0.0098900
  C        1.2026080     1.1704100     0.0047310
  C        1.8420610    -0.0727780     0.0063770
  C        1.0476300    -1.2144680     0.0024310
  H       -0.7133720     2.1685100    -0.0287310
  H        1.7800030     2.0919190     0.0058730
  H        2.9246290    -0.1531180     0.0135510
  H        1.4978930    -2.2058730     0.0048570
  N       -2.2904670    -0.0069960    -0.0835250
  H       -2.7545740     0.7554310     0.3970350
  H       -2.6685370    -0.9125390     0.1761140
units angstrom
no_reorient  #important for SAPT in psi4, default
symmetry c1  #important for SAPT in psi4, default
}

set PROPERTIES_ORIGIN ["COM"]
properties('MP2/aug-cc-pvtz', properties = ['dipole'])
--------------------------------------------------------------------------

    Molecular point group: c1
  Charge       = 0
  Multiplicity = 1
  Basis Set: AUG-CC-PVTZ
    Blend: AUG-CC-PVTZ
  Basis Set: (AUG-CC-PVTZ AUX)
    Blend: AUG-CC-PVTZ-JKFIT

    Orbital Energies [Eh]
    ---------------------

    Doubly Occupied:

       1A    -15.567075     2A    -15.562664     3A    -11.315760
       4A    -11.288663     5A    -11.266468     6A    -11.238032
       7A    -11.234085     8A     -1.268481     9A     -1.161752
      10A     -1.085874    11A     -1.004236    12A     -0.869101
      13A     -0.822443    14A     -0.712595    15A     -0.693542
      16A     -0.662671    17A     -0.613958    18A     -0.599057
      19A     -0.565676    20A     -0.555999    21A     -0.514659
      22A     -0.455383    23A     -0.438313    24A     -0.371794
      25A     -0.317896

  @DF-RHF Final Energy:  -301.82063705757849

   => Energetics <=

    Nuclear Repulsion Energy =            272.6464023921594162
    One-Electron Energy =                -948.5617282252416089
    Two-Electron Energy =                 374.0946887755036983
    Total Energy =                       -301.8206370575784945
  Basis Set: (AUG-CC-PVTZ AUX)
    Blend: AUG-CC-PVTZ-RI
    Molecular point group: c1

    Geometry (in Angstrom), charge = 0, multiplicity = 1:

       Center              X                  Y                   Z               Mass
    ------------   -----------------  -----------------  -----------------  -----------------
         N           -0.406878532918    -1.222856717323     0.001135081261    14.003074004430
         C           -0.879047332918     0.034613282677     0.003406281261    12.000000000000
         C           -0.164292332918     1.245697282677    -0.002602718739    12.000000000000
         C            1.222537667082     1.197208282677     0.012018281261    12.000000000000
         C            1.861990667082    -0.045979717323     0.013664281261    12.000000000000
         C            1.067559667082    -1.187669717323     0.009718281261    12.000000000000
         H           -0.693442332918     2.195308282677    -0.021443718739     1.007825032230
         H            1.799932667082     2.118717282677     0.013160281261     1.007825032230
         H            2.944558667082    -0.126319717323     0.020838281261     1.007825032230
         H            1.517822667082    -2.179074717323     0.012144281261     1.007825032230
         N           -2.270537332918     0.019802282677    -0.076237718739    14.003074004430
         H           -2.734644332918     0.782229282677     0.404322281261     1.007825032230
         H           -2.648607332918    -0.885740717323     0.183401281261     1.007825032230

  Basis Set: AUG-CC-PVTZ
    Blend: AUG-CC-PVTZ
  Basis Set: (AUG-CC-PVTZ AUX)
    Blend: AUG-CC-PVTZ-JKFIT
	 Reference Energy          =    -301.8206370575784945 [Eh]
	 Singles Energy            =      -0.0000000000000000 [Eh]
	 Same-Spin Energy          =      -0.3290859890224175 [Eh]
	 Opposite-Spin Energy      =      -1.0177592729971510 [Eh]
	 Correlation Energy        =      -1.3468452620195683 [Eh]
	 Total Energy              =    -303.1674823195980366 [Eh]

	 ================> DF-SCS-MP2 Energies <==================
	-----------------------------------------------------------
	 SCS Same-Spin Scale       =       0.3333333333333333 [-]
	 SCS Opposite-Spin Scale   =       1.2000000000000000 [-]
	 SCS Same-Spin Energy      =      -0.1096953296741392 [Eh]
	 SCS Opposite-Spin Energy  =      -1.2213111275965811 [Eh]
	 SCS Correlation Energy    =      -1.3310064572707203 [Eh]
	 SCS Total Energy          =    -303.1516435148492405 [Eh]
	-----------------------------------------------------------

  Dipole Moment: [D]
     X:     0.3306      Y:     1.9277      Z:     1.0118     Total:     2.2021

*** Psi4 exiting successfully. Buy a developer a beer!
