                               Psi4 1.4a3.dev225

  ==> Input File <==

--------------------------------------------------------------------------
#psi4
#
memory 32 gb

molecule  {
0 1
  N       -0.2982310    -1.1935080     0.0025490
  C       -0.8989600     0.0078550    -0.0037920
  C       -0.1841880     1.2189600    -0.0099150
  C        1.2026150     1.1703940     0.0047080
  C        1.8420660    -0.0728230     0.0063860
  C        1.0476430    -1.2144780     0.0023810
  H       -0.7133830     2.1685580    -0.0289310
  H        1.7801000     2.0918600     0.0058130
  H        2.9246530    -0.1531170     0.0136340
  H        1.4978100    -2.2059300     0.0047600
  N       -2.2903850    -0.0069810    -0.0833000
  H       -2.7780492     0.7929990     0.4203371
  H       -2.6687990    -0.9127910     0.1747070
units angstrom
no_reorient  #important for SAPT in psi4, default
symmetry c1  #important for SAPT in psi4, default
}

set PROPERTIES_ORIGIN ["COM"]
properties('MP2/aug-cc-pvtz', properties = ['dipole'])
--------------------------------------------------------------------------

    Molecular point group: c1
  Charge       = 0
  Multiplicity = 1
  Basis Set: AUG-CC-PVTZ
    Blend: AUG-CC-PVTZ
  Basis Set: (AUG-CC-PVTZ AUX)
    Blend: AUG-CC-PVTZ-JKFIT

    Orbital Energies [Eh]
    ---------------------

    Doubly Occupied:

       1A    -15.574033     2A    -15.554354     3A    -11.316550
       4A    -11.275805     5A    -11.259652     6A    -11.233220
       7A    -11.227163     8A     -1.276214     9A     -1.178698
      10A     -1.082760    11A     -1.004066    12A     -0.861023
      13A     -0.836244    14A     -0.713320    15A     -0.695446
      16A     -0.658303    17A     -0.616564    18A     -0.604129
      19A     -0.566093    20A     -0.561755    21A     -0.526000
      22A     -0.459673    23A     -0.419058    24A     -0.380296
      25A     -0.311535

  @DF-RHF Final Energy:  -301.83946510818265

   => Energetics <=

    Nuclear Repulsion Energy =            274.5622357818552928
    One-Electron Energy =                -952.4194989748662010
    Two-Electron Energy =                 376.0177980848282573
    Total Energy =                       -301.8394651081826510
  Basis Set: (AUG-CC-PVTZ AUX)
    Blend: AUG-CC-PVTZ-RI
    Molecular point group: c1

    Geometry (in Angstrom), charge = 0, multiplicity = 1:

       Center              X                  Y                   Z               Mass
    ------------   -----------------  -----------------  -----------------  -----------------
         N           -0.297212358709    -1.175474352754     0.008275625336    14.003074004430
         C           -0.897941358709     0.025888647246     0.001934625336    12.000000000000
         C           -0.183169358709     1.236993647246    -0.004188374664    12.000000000000
         C            1.203633641291     1.188427647246     0.010434625336    12.000000000000
         C            1.843084641291    -0.054789352754     0.012112625336    12.000000000000
         C            1.048661641291    -1.196444352754     0.008107625336    12.000000000000
         H           -0.712364358709     2.186591647246    -0.023204374664     1.007825032230
         H            1.781118641291     2.109893647246     0.011539625336     1.007825032230
         H            2.925671641291    -0.135083352754     0.019360625336     1.007825032230
         H            1.498828641291    -2.187896352754     0.010486625336     1.007825032230
         N           -2.289366358709     0.011052647246    -0.077573374664    14.003074004430
         H           -2.777030558709     0.811032647246     0.426063725336     1.007825032230
         H           -2.667780358709    -0.894757352754     0.180433625336     1.007825032230

  Basis Set: AUG-CC-PVTZ
    Blend: AUG-CC-PVTZ
  Basis Set: (AUG-CC-PVTZ AUX)
    Blend: AUG-CC-PVTZ-JKFIT
	 Reference Energy          =    -301.8394651081826510 [Eh]
	 Singles Energy            =      -0.0000000000000000 [Eh]
	 Same-Spin Energy          =      -0.3286023895293896 [Eh]
	 Opposite-Spin Energy      =      -1.0139423055937855 [Eh]
	 Correlation Energy        =      -1.3425446951231752 [Eh]
	 Total Energy              =    -303.1820098033058457 [Eh]

	 ================> DF-SCS-MP2 Energies <==================
	-----------------------------------------------------------
	 SCS Same-Spin Scale       =       0.3333333333333333 [-]
	 SCS Opposite-Spin Scale   =       1.2000000000000000 [-]
	 SCS Same-Spin Energy      =      -0.1095341298431299 [Eh]
	 SCS Opposite-Spin Energy  =      -1.2167307667125427 [Eh]
	 SCS Correlation Energy    =      -1.3262648965556725 [Eh]
	 SCS Total Energy          =    -303.1657300047383501 [Eh]
	-----------------------------------------------------------

  Dipole Moment: [D]
     X:     0.0018      Y:     1.7735      Z:     1.0121     Total:     2.0420

*** Psi4 exiting successfully. Buy a developer a beer!
