                               Psi4 1.3.2 release

  ==> Input File <==

--------------------------------------------------------------------------
#psi4
#
memory 32 gb

molecule  {
0 1
  N       -0.2566355    -1.1718194     0.0023811
  C       -0.8989770     0.0078150    -0.0038810
  C       -0.1842220     1.2188990    -0.0098900
  C        1.2026080     1.1704100     0.0047310
  C        1.8420610    -0.0727780     0.0063770
  C        1.0476300    -1.2144680     0.0024310
  H       -0.7133720     2.1685100    -0.0287310
  H        1.7800030     2.0919190     0.0058730
  H        2.9246290    -0.1531180     0.0135510
  H        1.4978930    -2.2058730     0.0048570
  N       -2.2904670    -0.0069960    -0.0835250
  H       -2.7545740     0.7554310     0.3970350
  H       -2.6685370    -0.9125390     0.1761140
units angstrom
no_reorient  #important for SAPT in psi4, default
symmetry c1  #important for SAPT in psi4, default
}

set PROPERTIES_ORIGIN ["COM"]
properties('MP2/aug-cc-pvtz', properties = ['dipole'])
--------------------------------------------------------------------------

    Molecular point group: c1
  Charge       = 0
  Multiplicity = 1
  Basis Set: AUG-CC-PVTZ
    Blend: AUG-CC-PVTZ
  Basis Set: (AUG-CC-PVTZ AUX)
    Blend: AUG-CC-PVTZ-JKFIT

    Orbital Energies [Eh]
    ---------------------

    Doubly Occupied:

       1A    -15.571313     2A    -15.549600     3A    -11.317163
       4A    -11.270828     5A    -11.257464     6A    -11.231932
       7A    -11.224926     8A     -1.282624     9A     -1.190767
      10A     -1.081677    11A     -1.006390    12A     -0.859791
      13A     -0.842343    14A     -0.718184    15A     -0.700626
      16A     -0.659084    17A     -0.625817    18A     -0.605288
      19A     -0.566772    20A     -0.565011    21A     -0.528440
      22A     -0.463146    23A     -0.410564    24A     -0.383040
      25A     -0.309912

  @DF-RHF Final Energy:  -301.84318184953008

   => Energetics <=

    Nuclear Repulsion Energy =            275.6234683712705760
    One-Electron Energy =                -954.4878936975005672
    Two-Electron Energy =                 377.0212434766999650
    Total Energy =                       -301.8431818495300831
  Basis Set: (AUG-CC-PVTZ AUX)
    Blend: AUG-CC-PVTZ-RI
    Molecular point group: c1

    Geometry (in Angstrom), charge = 0, multiplicity = 1:

       Center              X                  Y                   Z               Mass
    ------------   -----------------  -----------------  -----------------  -----------------
         N           -0.262041956418    -1.156609652819     0.008397902844    14.003074004430
         C           -0.904383456418     0.023024747181     0.002135802844    12.000000000000
         C           -0.189628456418     1.234108747181    -0.003873197156    12.000000000000
         C            1.197201543582     1.185619747181     0.010747802844    12.000000000000
         C            1.836654543582    -0.057568252819     0.012393802844    12.000000000000
         C            1.042223543582    -1.199258252819     0.008447802844    12.000000000000
         H           -0.718778456418     2.183719747181    -0.022714197156     1.007825032230
         H            1.774596543582     2.107128747181     0.011889802844     1.007825032230
         H            2.919222543582    -0.137908252819     0.019567802844     1.007825032230
         H            1.492486543582    -2.190663252819     0.010873802844     1.007825032230
         N           -2.295873456418     0.008213747181    -0.077508197156    14.003074004430
         H           -2.759980456418     0.770640747181     0.403051802844     1.007825032230
         H           -2.673943456418    -0.897329252819     0.182130802844     1.007825032230

  Basis Set: AUG-CC-PVTZ
    Blend: AUG-CC-PVTZ
  Basis Set: (AUG-CC-PVTZ AUX)
    Blend: AUG-CC-PVTZ-JKFIT
	 Reference Energy          =    -301.8431818495300831 [Eh]
	 Singles Energy            =      -0.0000000000000000 [Eh]
	 Same-Spin Energy          =      -0.3281946413642128 [Eh]
	 Opposite-Spin Energy      =      -1.0120442863127486 [Eh]
	 Correlation Energy        =      -1.3402389276769613 [Eh]
	 Total Energy              =    -303.1834207772070613 [Eh]

	 ================> DF-SCS-MP2 Energies <==================
	-----------------------------------------------------------
	 SCS Same-Spin Scale       =       0.3333333333333333 [-]
	 SCS Opposite-Spin Scale   =       1.2000000000000000 [-]
	 SCS Same-Spin Energy      =      -0.1093982137880709 [Eh]
	 SCS Opposite-Spin Energy  =      -1.2144531435752983 [Eh]
	 SCS Correlation Energy    =      -1.3238513573633692 [Eh]
	 SCS Total Energy          =    -303.1670332068934499 [Eh]
	-----------------------------------------------------------

  Dipole Moment: [D]
     X:    -0.0948      Y:     1.6776      Z:     1.0040     Total:     1.9574

*** Psi4 exiting successfully. Buy a developer a beer!
