                               Psi4 1.3.2 release

  ==> Input File <==

--------------------------------------------------------------------------
#psi4
#
memory 32 gb

molecule  {
0 1
  N       -0.2567204    -1.1718462     0.0053466
  C       -0.8989770     0.0078150    -0.0038810
  C       -0.1842220     1.2188990    -0.0098900
  C        1.2026080     1.1704100     0.0047310
  C        1.8420610    -0.0727780     0.0063770
  C        1.0476300    -1.2144680     0.0024310
  H       -0.7133720     2.1685100    -0.0287310
  H        1.7800030     2.0919190     0.0058730
  H        2.9246290    -0.1531180     0.0135510
  H        1.4978930    -2.2058730     0.0048570
  N       -2.2904670    -0.0069960    -0.0835250
  H       -2.7545740     0.7554310     0.3970350
  H       -2.6685370    -0.9125390     0.1761140
units angstrom
no_reorient  #important for SAPT in psi4, default
symmetry c1  #important for SAPT in psi4, default
}

set PROPERTIES_ORIGIN ["COM"]
properties('MP2/aug-cc-pvtz', properties = ['dipole'])
--------------------------------------------------------------------------

    Molecular point group: c1
  Charge       = 0
  Multiplicity = 1
  Basis Set: AUG-CC-PVTZ
    Blend: AUG-CC-PVTZ
  Basis Set: (AUG-CC-PVTZ AUX)
    Blend: AUG-CC-PVTZ-JKFIT

    Orbital Energies [Eh]
    ---------------------

    Doubly Occupied:

       1A    -15.571304     2A    -15.549614     3A    -11.317163
       4A    -11.270841     5A    -11.257469     6A    -11.231937
       7A    -11.224936     8A     -1.282612     9A     -1.190751
      10A     -1.081682    11A     -1.006389    12A     -0.859793
      13A     -0.842333    14A     -0.718181    15A     -0.700621
      16A     -0.659116    17A     -0.625834    18A     -0.605279
      19A     -0.566766    20A     -0.564977    21A     -0.528452
      22A     -0.463102    23A     -0.410585    24A     -0.383039
      25A     -0.309935

  @DF-RHF Final Energy:  -301.84318552465788

   => Energetics <=

    Nuclear Repulsion Energy =            275.6216093142988370
    One-Electron Energy =                -954.4841669145883998
    Two-Electron Energy =                 377.0193720756317362
    Total Energy =                       -301.8431855246578834
  Basis Set: (AUG-CC-PVTZ AUX)
    Blend: AUG-CC-PVTZ-RI
    Molecular point group: c1

    Geometry (in Angstrom), charge = 0, multiplicity = 1:

       Center              X                  Y                   Z               Mass
    ------------   -----------------  -----------------  -----------------  -----------------
         N           -0.262114216101    -1.156632462707     0.010921885055    14.003074004430
         C           -0.904370816101     0.023028737293     0.001694285055    12.000000000000
         C           -0.189615816101     1.234112737293    -0.004314714945    12.000000000000
         C            1.197214183899     1.185623737293     0.010306285055    12.000000000000
         C            1.836667183899    -0.057564262707     0.011952285055    12.000000000000
         C            1.042236183899    -1.199254262707     0.008006285055    12.000000000000
         H           -0.718765816101     2.183723737293    -0.023155714945     1.007825032230
         H            1.774609183899     2.107132737293     0.011448285055     1.007825032230
         H            2.919235183899    -0.137904262707     0.019126285055     1.007825032230
         H            1.492499183899    -2.190659262707     0.010432285055     1.007825032230
         N           -2.295860816101     0.008217737293    -0.077949714945    14.003074004430
         H           -2.759967816101     0.770644737293     0.402610285055     1.007825032230
         H           -2.673930816101    -0.897325262707     0.181689285055     1.007825032230

  Basis Set: AUG-CC-PVTZ
    Blend: AUG-CC-PVTZ
  Basis Set: (AUG-CC-PVTZ AUX)
    Blend: AUG-CC-PVTZ-JKFIT
	 Reference Energy          =    -301.8431855246578834 [Eh]
	 Singles Energy            =      -0.0000000000000000 [Eh]
	 Same-Spin Energy          =      -0.3281947484947880 [Eh]
	 Opposite-Spin Energy      =      -1.0120450852424230 [Eh]
	 Correlation Energy        =      -1.3402398337372110 [Eh]
	 Total Energy              =    -303.1834253583950840 [Eh]

	 ================> DF-SCS-MP2 Energies <==================
	-----------------------------------------------------------
	 SCS Same-Spin Scale       =       0.3333333333333333 [-]
	 SCS Opposite-Spin Scale   =       1.2000000000000000 [-]
	 SCS Same-Spin Energy      =      -0.1093982494982627 [Eh]
	 SCS Opposite-Spin Energy  =      -1.2144541022909074 [Eh]
	 SCS Correlation Energy    =      -1.3238523517891700 [Eh]
	 SCS Total Energy          =    -303.1670378764470684 [Eh]
	-----------------------------------------------------------

  Dipole Moment: [D]
     X:    -0.0942      Y:     1.6779      Z:     1.0002     Total:     1.9557

*** Psi4 exiting successfully. Buy a developer a beer!
