                               Psi4 1.3.2 release

  ==> Input File <==

--------------------------------------------------------------------------
#psi4
#
memory 32 gb

molecule  {
0 1
  N       -0.3192539    -1.2038200     0.0025265
  C       -0.8989770     0.0078150    -0.0038810
  C       -0.1842220     1.2188990    -0.0098900
  C        1.2026080     1.1704100     0.0047310
  C        1.8420610    -0.0727780     0.0063770
  C        1.0476300    -1.2144680     0.0024310
  H       -0.7133720     2.1685100    -0.0287310
  H        1.7800030     2.0919190     0.0058730
  H        2.9246290    -0.1531180     0.0135510
  H        1.4978930    -2.2058730     0.0048570
  N       -2.2904670    -0.0069960    -0.0835250
  H       -2.7545740     0.7554310     0.3970350
  H       -2.6685370    -0.9125390     0.1761140
units angstrom
no_reorient  #important for SAPT in psi4, default
symmetry c1  #important for SAPT in psi4, default
}

set PROPERTIES_ORIGIN ["COM"]
properties('MP2/aug-cc-pvtz', properties = ['dipole'])
--------------------------------------------------------------------------

    Molecular point group: c1
  Charge       = 0
  Multiplicity = 1
  Basis Set: AUG-CC-PVTZ
    Blend: AUG-CC-PVTZ
  Basis Set: (AUG-CC-PVTZ AUX)
    Blend: AUG-CC-PVTZ-JKFIT

    Orbital Energies [Eh]
    ---------------------

    Doubly Occupied:

       1A    -15.568132     2A    -15.556668     3A    -11.316338
       4A    -11.278276     5A    -11.260960     6A    -11.234167
       7A    -11.228479     8A     -1.275441     9A     -1.179763
      10A     -1.083548    11A     -1.005255    12A     -0.862534
      13A     -0.835578    14A     -0.715526    15A     -0.698063
      16A     -0.660218    17A     -0.620006    18A     -0.603884
      19A     -0.566439    20A     -0.560760    21A     -0.524897
      22A     -0.459118    23A     -0.423079    24A     -0.379023
      25A     -0.313006

  @DF-RHF Final Energy:  -301.84143503466521

   => Energetics <=

    Nuclear Repulsion Energy =            274.4251012230920992
    One-Electron Energy =                -952.1147512912667707
    Two-Electron Energy =                 375.8482150335094047
    Total Energy =                       -301.8414350346652100
  Basis Set: (AUG-CC-PVTZ AUX)
    Blend: AUG-CC-PVTZ-RI
    Molecular point group: c1

    Geometry (in Angstrom), charge = 0, multiplicity = 1:

       Center              X                  Y                   Z               Mass
    ------------   -----------------  -----------------  -----------------  -----------------
         N           -0.315337430262    -1.183845850810     0.008521654998    14.003074004430
         C           -0.895060530262     0.027789149190     0.002114154998    12.000000000000
         C           -0.180305530262     1.238873149190    -0.003894845002    12.000000000000
         C            1.206524469738     1.190384149190     0.010726154998    12.000000000000
         C            1.845977469738    -0.052803850810     0.012372154998    12.000000000000
         C            1.051546469738    -1.194493850810     0.008426154998    12.000000000000
         H           -0.709455530262     2.188484149190    -0.022735845002     1.007825032230
         H            1.783919469738     2.111893149190     0.011868154998     1.007825032230
         H            2.928545469738    -0.133143850810     0.019546154998     1.007825032230
         H            1.501809469738    -2.185898850810     0.010852154998     1.007825032230
         N           -2.286550530262     0.012978149190    -0.077529845002    14.003074004430
         H           -2.750657530262     0.775405149190     0.403030154998     1.007825032230
         H           -2.664620530262    -0.892564850810     0.182109154998     1.007825032230

  Basis Set: AUG-CC-PVTZ
    Blend: AUG-CC-PVTZ
  Basis Set: (AUG-CC-PVTZ AUX)
    Blend: AUG-CC-PVTZ-JKFIT
	 Reference Energy          =    -301.8414350346652100 [Eh]
	 Singles Energy            =      -0.0000000000000000 [Eh]
	 Same-Spin Energy          =      -0.3284042437785988 [Eh]
	 Opposite-Spin Energy      =      -1.0137111420782052 [Eh]
	 Correlation Energy        =      -1.3421153858568040 [Eh]
	 Total Energy              =    -303.1835504205220104 [Eh]

	 ================> DF-SCS-MP2 Energies <==================
	-----------------------------------------------------------
	 SCS Same-Spin Scale       =       0.3333333333333333 [-]
	 SCS Opposite-Spin Scale   =       1.2000000000000000 [-]
	 SCS Same-Spin Energy      =      -0.1094680812595329 [Eh]
	 SCS Opposite-Spin Energy  =      -1.2164533704938463 [Eh]
	 SCS Correlation Energy    =      -1.3259214517533793 [Eh]
	 SCS Total Energy          =    -303.1673564864186119 [Eh]
	-----------------------------------------------------------

  Dipole Moment: [D]
     X:     0.0765      Y:     1.7845      Z:     1.0030     Total:     2.0485

*** Psi4 exiting successfully. Buy a developer a beer!
