                               Psi4 1.3.2 release

  ==> Input File <==

--------------------------------------------------------------------------
#psi4
#
memory 32 gb

molecule  {
0 1
  N       -0.4270624    -1.2497351     0.0027297
  C       -0.8989770     0.0078150    -0.0038810
  C       -0.1842220     1.2188990    -0.0098900
  C        1.2026080     1.1704100     0.0047310
  C        1.8420610    -0.0727780     0.0063770
  C        1.0476300    -1.2144680     0.0024310
  H       -0.7133720     2.1685100    -0.0287310
  H        1.7800030     2.0919190     0.0058730
  H        2.9246290    -0.1531180     0.0135510
  H        1.4978930    -2.2058730     0.0048570
  N       -2.2904670    -0.0069960    -0.0835250
  H       -2.7545740     0.7554310     0.3970350
  H       -2.6685370    -0.9125390     0.1761140
units angstrom
no_reorient  #important for SAPT in psi4, default
symmetry c1  #important for SAPT in psi4, default
}

set PROPERTIES_ORIGIN ["COM"]
properties('MP2/aug-cc-pvtz', properties = ['dipole'])
--------------------------------------------------------------------------

    Molecular point group: c1
  Charge       = 0
  Multiplicity = 1
  Basis Set: AUG-CC-PVTZ
    Blend: AUG-CC-PVTZ
  Basis Set: (AUG-CC-PVTZ AUX)
    Blend: AUG-CC-PVTZ-JKFIT

    Orbital Energies [Eh]
    ---------------------

    Doubly Occupied:

       1A    -15.567112     2A    -15.562638     3A    -11.315765
       4A    -11.288683     5A    -11.266484     6A    -11.238045
       7A    -11.234112     8A     -1.268469     9A     -1.161717
      10A     -1.085885    11A     -1.004237    12A     -0.869125
      13A     -0.822407    14A     -0.712591    15A     -0.693527
      16A     -0.662742    17A     -0.613987    18A     -0.599101
      19A     -0.565669    20A     -0.555920    21A     -0.514692
      22A     -0.455308    23A     -0.438260    24A     -0.371829
      25A     -0.317962

  @DF-RHF Final Energy:  -301.82060491803043

   => Energetics <=

    Nuclear Repulsion Energy =            272.6423349798598679
    One-Electron Energy =                -948.5533452485859698
    Two-Electron Energy =                 374.0904053506957325
    Total Energy =                       -301.8206049180304262
  Basis Set: (AUG-CC-PVTZ AUX)
    Blend: AUG-CC-PVTZ-RI
    Molecular point group: c1

    Geometry (in Angstrom), charge = 0, multiplicity = 1:

       Center              X                  Y                   Z               Mass
    ------------   -----------------  -----------------  -----------------  -----------------
         N           -0.407094886409    -1.222924891653     0.008694601612    14.003074004430
         C           -0.879009486409     0.034625208347     0.002083901612    12.000000000000
         C           -0.164254486409     1.245709208347    -0.003925098388    12.000000000000
         C            1.222575513591     1.197220208347     0.010695901612    12.000000000000
         C            1.862028513591    -0.045967791653     0.012341901612    12.000000000000
         C            1.067597513591    -1.187657791653     0.008395901612    12.000000000000
         H           -0.693404486409     2.195320208347    -0.022766098388     1.007825032230
         H            1.799970513591     2.118729208347     0.011837901612     1.007825032230
         H            2.944596513591    -0.126307791653     0.019515901612     1.007825032230
         H            1.517860513591    -2.179062791653     0.010821901612     1.007825032230
         N           -2.270499486409     0.019814208347    -0.077560098388    14.003074004430
         H           -2.734606486409     0.782241208347     0.402999901612     1.007825032230
         H           -2.648569486409    -0.885728791653     0.182078901612     1.007825032230

  Basis Set: AUG-CC-PVTZ
    Blend: AUG-CC-PVTZ
  Basis Set: (AUG-CC-PVTZ AUX)
    Blend: AUG-CC-PVTZ-JKFIT
	 Reference Energy          =    -301.8206049180304262 [Eh]
	 Singles Energy            =      -0.0000000000000000 [Eh]
	 Same-Spin Energy          =      -0.3290849905674444 [Eh]
	 Opposite-Spin Energy      =      -1.0177637656522642 [Eh]
	 Correlation Energy        =      -1.3468487562197087 [Eh]
	 Total Energy              =    -303.1674536742501118 [Eh]

	 ================> DF-SCS-MP2 Energies <==================
	-----------------------------------------------------------
	 SCS Same-Spin Scale       =       0.3333333333333333 [-]
	 SCS Opposite-Spin Scale   =       1.2000000000000000 [-]
	 SCS Same-Spin Energy      =      -0.1096949968558148 [Eh]
	 SCS Opposite-Spin Energy  =      -1.2213165187827171 [Eh]
	 SCS Correlation Energy    =      -1.3310115156385318 [Eh]
	 SCS Total Energy          =    -303.1516164336689485 [Eh]
	-----------------------------------------------------------

  Dipole Moment: [D]
     X:     0.3321      Y:     1.9283      Z:     1.0014     Total:     2.1981

*** Psi4 exiting successfully. Buy a developer a beer!
