                               Psi4 1.3.2 release

  ==> Input File <==

--------------------------------------------------------------------------
#psi4
#
memory 32 gb

molecule  {
0 1
  N       -0.2981960    -1.1935180     0.0024800
  C       -0.9405375    -0.0138834    -0.0037598
  C       -0.1842220     1.2188990    -0.0098900
  C        1.2026080     1.1704100     0.0047310
  C        1.8420610    -0.0727780     0.0063770
  C        1.0476300    -1.2144680     0.0024310
  H       -0.7133720     2.1685100    -0.0287310
  H        1.7800030     2.0919190     0.0058730
  H        2.9246290    -0.1531180     0.0135510
  H        1.4978930    -2.2058730     0.0048570
  N       -2.2904670    -0.0069960    -0.0835250
  H       -2.7545740     0.7554310     0.3970350
  H       -2.6685370    -0.9125390     0.1761140
units angstrom
no_reorient  #important for SAPT in psi4, default
symmetry c1  #important for SAPT in psi4, default
}

set PROPERTIES_ORIGIN ["COM"]
properties('MP2/aug-cc-pvtz', properties = ['dipole'])
--------------------------------------------------------------------------

    Molecular point group: c1
  Charge       = 0
  Multiplicity = 1
  Basis Set: AUG-CC-PVTZ
    Blend: AUG-CC-PVTZ
  Basis Set: (AUG-CC-PVTZ AUX)
    Blend: AUG-CC-PVTZ-JKFIT

    Orbital Energies [Eh]
    ---------------------

    Doubly Occupied:

       1A    -15.575807     2A    -15.550601     3A    -11.320075
       4A    -11.273886     5A    -11.256882     6A    -11.234681
       7A    -11.223943     8A     -1.283108     9A     -1.193351
      10A     -1.078041    11A     -1.000237    12A     -0.857515
      13A     -0.837893    14A     -0.721071    15A     -0.704990
      16A     -0.664416    17A     -0.621751    18A     -0.599852
      19A     -0.564842    20A     -0.564225    21A     -0.526684
      22A     -0.466516    23A     -0.410980    24A     -0.378545
      25A     -0.305821

  @DF-RHF Final Energy:  -301.84010378244216

   => Energetics <=

    Nuclear Repulsion Energy =            274.6068847289487280
    One-Electron Energy =                -952.4625507629749563
    Two-Electron Energy =                 376.0155622515840150
    Total Energy =                       -301.8401037824421564
  Basis Set: (AUG-CC-PVTZ AUX)
    Blend: AUG-CC-PVTZ-RI
    Molecular point group: c1

    Geometry (in Angstrom), charge = 0, multiplicity = 1:

       Center              X                  Y                   Z               Mass
    ------------   -----------------  -----------------  -----------------  -----------------
         N           -0.292112130445    -1.172309217036     0.008466614534    14.003074004430
         C           -0.934453630445     0.007325382964     0.002226814534    12.000000000000
         C           -0.178138130445     1.240107782964    -0.003903385466    12.000000000000
         C            1.208691869555     1.191618782964     0.010717614534    12.000000000000
         C            1.848144869555    -0.051569217036     0.012363614534    12.000000000000
         C            1.053713869555    -1.193259217036     0.008417614534    12.000000000000
         H           -0.707288130445     2.189718782964    -0.022744385466     1.007825032230
         H            1.786086869555     2.113127782964     0.011859614534     1.007825032230
         H            2.930712869555    -0.131909217036     0.019537614534     1.007825032230
         H            1.503976869555    -2.184664217036     0.010843614534     1.007825032230
         N           -2.284383130445     0.014212782964    -0.077538385466    14.003074004430
         H           -2.748490130445     0.776639782964     0.403021614534     1.007825032230
         H           -2.662453130445    -0.891330217036     0.182100614534     1.007825032230

  Basis Set: AUG-CC-PVTZ
    Blend: AUG-CC-PVTZ
  Basis Set: (AUG-CC-PVTZ AUX)
    Blend: AUG-CC-PVTZ-JKFIT
	 Reference Energy          =    -301.8401037824421564 [Eh]
	 Singles Energy            =      -0.0000000000000000 [Eh]
	 Same-Spin Energy          =      -0.3283917406149626 [Eh]
	 Opposite-Spin Energy      =      -1.0130965499832967 [Eh]
	 Correlation Energy        =      -1.3414882905982592 [Eh]
	 Total Energy              =    -303.1815920730404059 [Eh]

	 ================> DF-SCS-MP2 Energies <==================
	-----------------------------------------------------------
	 SCS Same-Spin Scale       =       0.3333333333333333 [-]
	 SCS Opposite-Spin Scale   =       1.2000000000000000 [-]
	 SCS Same-Spin Energy      =      -0.1094639135383209 [Eh]
	 SCS Opposite-Spin Energy  =      -1.2157158599799560 [Eh]
	 SCS Correlation Energy    =      -1.3251797735182769 [Eh]
	 SCS Total Energy          =    -303.1652835559604569 [Eh]
	-----------------------------------------------------------

  Dipole Moment: [D]
     X:    -0.3534      Y:     1.7486      Z:     0.9947     Total:     2.0426

*** Psi4 exiting successfully. Buy a developer a beer!
