                               Psi4 1.3.2 release

  ==> Input File <==

--------------------------------------------------------------------------
#psi4
#
memory 32 gb

molecule  {
0 1
  N       -0.2981960    -1.1935180     0.0024800
  C       -1.0212611    -0.0615638    -0.0034948
  C       -0.1842220     1.2188990    -0.0098900
  C        1.2026080     1.1704100     0.0047310
  C        1.8420610    -0.0727780     0.0063770
  C        1.0476300    -1.2144680     0.0024310
  H       -0.7133720     2.1685100    -0.0287310
  H        1.7800030     2.0919190     0.0058730
  H        2.9246290    -0.1531180     0.0135510
  H        1.4978930    -2.2058730     0.0048570
  N       -2.2904670    -0.0069960    -0.0835250
  H       -2.7545740     0.7554310     0.3970350
  H       -2.6685370    -0.9125390     0.1761140
units angstrom
no_reorient  #important for SAPT in psi4, default
symmetry c1  #important for SAPT in psi4, default
}

set PROPERTIES_ORIGIN ["COM"]
properties('MP2/aug-cc-pvtz', properties = ['dipole'])
--------------------------------------------------------------------------

    Molecular point group: c1
  Charge       = 0
  Multiplicity = 1
  Basis Set: AUG-CC-PVTZ
    Blend: AUG-CC-PVTZ
  Basis Set: (AUG-CC-PVTZ AUX)
    Blend: AUG-CC-PVTZ-JKFIT

    Orbital Energies [Eh]
    ---------------------

    Doubly Occupied:

       1A    -15.589269     2A    -15.542994     3A    -11.326990
       4A    -11.270201     5A    -11.250908     6A    -11.236131
       7A    -11.216888     8A     -1.307280     9A     -1.204239
      10A     -1.069803    11A     -0.989567    12A     -0.853642
      13A     -0.837271    14A     -0.737509    15A     -0.718908
      16A     -0.669143    17A     -0.621486    18A     -0.584655
      19A     -0.576221    20A     -0.558959    21A     -0.524621
      22A     -0.475034    23A     -0.392769    24A     -0.375268
      25A     -0.293873

  @DF-RHF Final Energy:  -301.81589719508429

   => Energetics <=

    Nuclear Repulsion Energy =            274.3141391399664712
    One-Electron Energy =                -951.8128154299272410
    Two-Electron Energy =                 375.6827790948764232
    Total Energy =                       -301.8158971950842897
  Basis Set: (AUG-CC-PVTZ AUX)
    Blend: AUG-CC-PVTZ-RI
    Molecular point group: c1

    Geometry (in Angstrom), charge = 0, multiplicity = 1:

       Center              X                  Y                   Z               Mass
    ------------   -----------------  -----------------  -----------------  -----------------
         N           -0.281812807844    -1.166225793832     0.008432803846    14.003074004430
         C           -1.004877907844    -0.034271593832     0.002458003846    12.000000000000
         C           -0.167838807844     1.246191206168    -0.003937196154    12.000000000000
         C            1.218991192156     1.197702206168     0.010683803846    12.000000000000
         C            1.858444192156    -0.045485793832     0.012329803846    12.000000000000
         C            1.064013192156    -1.187175793832     0.008383803846    12.000000000000
         H           -0.696988807844     2.195802206168    -0.022778196154     1.007825032230
         H            1.796386192156     2.119211206168     0.011825803846     1.007825032230
         H            2.941012192156    -0.125825793832     0.019503803846     1.007825032230
         H            1.514276192156    -2.178580793832     0.010809803846     1.007825032230
         N           -2.274083807844     0.020296206168    -0.077572196154    14.003074004430
         H           -2.738190807844     0.782723206168     0.402987803846     1.007825032230
         H           -2.652153807844    -0.885246793832     0.182066803846     1.007825032230

  Basis Set: AUG-CC-PVTZ
    Blend: AUG-CC-PVTZ
  Basis Set: (AUG-CC-PVTZ AUX)
    Blend: AUG-CC-PVTZ-JKFIT
	 Reference Energy          =    -301.8158971950842897 [Eh]
	 Singles Energy            =      -0.0000000000000000 [Eh]
	 Same-Spin Energy          =      -0.3287303378984707 [Eh]
	 Opposite-Spin Energy      =      -1.0138591344625896 [Eh]
	 Correlation Energy        =      -1.3425894723610603 [Eh]
	 Total Energy              =    -303.1584866674453451 [Eh]

	 ================> DF-SCS-MP2 Energies <==================
	-----------------------------------------------------------
	 SCS Same-Spin Scale       =       0.3333333333333333 [-]
	 SCS Opposite-Spin Scale   =       1.2000000000000000 [-]
	 SCS Same-Spin Energy      =      -0.1095767792994902 [Eh]
	 SCS Opposite-Spin Energy  =      -1.2166309613551074 [Eh]
	 SCS Correlation Energy    =      -1.3262077406545976 [Eh]
	 SCS Total Energy          =    -303.1421049357388711 [Eh]
	-----------------------------------------------------------

  Dipole Moment: [D]
     X:    -1.1126      Y:     1.7430      Z:     0.9765     Total:     2.2868

*** Psi4 exiting successfully. Buy a developer a beer!
