                               Psi4 1.3.2 release

  ==> Input File <==

--------------------------------------------------------------------------
#psi4
#
memory 32 gb

molecule  {
0 1
  N       -0.3834614    -1.2324996     0.0026544
  C       -0.8989770     0.0078150    -0.0038810
  C       -0.1842220     1.2188990    -0.0098900
  C        1.2026080     1.1704100     0.0047310
  C        1.8420610    -0.0727780     0.0063770
  C        1.0476300    -1.2144680     0.0024310
  H       -0.7133720     2.1685100    -0.0287310
  H        1.7800030     2.0919190     0.0058730
  H        2.9246290    -0.1531180     0.0135510
  H        1.4978930    -2.2058730     0.0048570
  N       -2.2904670    -0.0069960    -0.0835250
  H       -2.7545740     0.7554310     0.3970350
  H       -2.6685370    -0.9125390     0.1761140
units angstrom
no_reorient  #important for SAPT in psi4, default
symmetry c1  #important for SAPT in psi4, default
}

set PROPERTIES_ORIGIN ["COM"]
properties('MP2/aug-cc-pvtz', properties = ['dipole'])
--------------------------------------------------------------------------

    Molecular point group: c1
  Charge       = 0
  Multiplicity = 1
  Basis Set: AUG-CC-PVTZ
    Blend: AUG-CC-PVTZ
  Basis Set: (AUG-CC-PVTZ AUX)
    Blend: AUG-CC-PVTZ-JKFIT

    Orbital Energies [Eh]
    ---------------------

    Doubly Occupied:

       1A    -15.564845     2A    -15.563136     3A    -11.315863
       4A    -11.284872     5A    -11.264320     6A    -11.236494
       7A    -11.231927     8A     -1.270605     9A     -1.168697
      10A     -1.085139    11A     -1.004524    12A     -0.866391
      13A     -0.827655    14A     -0.713557    15A     -0.695376
      16A     -0.661681    17A     -0.615698    18A     -0.601424
      19A     -0.565954    20A     -0.557582    21A     -0.519308
      22A     -0.456304    23A     -0.433301    24A     -0.374721
      25A     -0.316034

  @DF-RHF Final Energy:  -301.83121891670089

   => Energetics <=

    Nuclear Repulsion Energy =            273.3226593647224263
    One-Electron Energy =                -949.9169371055884312
    Two-Electron Energy =                 374.7630588241651139
    Total Energy =                       -301.8312189167008910
  Basis Set: (AUG-CC-PVTZ AUX)
    Blend: AUG-CC-PVTZ-RI
    Molecular point group: c1

    Geometry (in Angstrom), charge = 0, multiplicity = 1:

       Center              X                  Y                   Z               Mass
    ------------   -----------------  -----------------  -----------------  -----------------
         N           -0.369985411317    -1.208255495126     0.008630512636    14.003074004430
         C           -0.885501011317     0.032059104874     0.002095112636    12.000000000000
         C           -0.170746011317     1.243143104874    -0.003913887364    12.000000000000
         C            1.216083988683     1.194654104874     0.010707112636    12.000000000000
         C            1.855536988683    -0.048533895126     0.012353112636    12.000000000000
         C            1.061105988683    -1.190223895126     0.008407112636    12.000000000000
         H           -0.699896011317     2.192754104874    -0.022754887364     1.007825032230
         H            1.793478988683     2.116163104874     0.011849112636     1.007825032230
         H            2.938104988683    -0.128873895126     0.019527112636     1.007825032230
         H            1.511368988683    -2.181628895126     0.010833112636     1.007825032230
         N           -2.276991011317     0.017248104874    -0.077548887364    14.003074004430
         H           -2.741098011317     0.779675104874     0.403011112636     1.007825032230
         H           -2.655061011317    -0.888294895126     0.182090112636     1.007825032230

  Basis Set: AUG-CC-PVTZ
    Blend: AUG-CC-PVTZ
  Basis Set: (AUG-CC-PVTZ AUX)
    Blend: AUG-CC-PVTZ-JKFIT
	 Reference Energy          =    -301.8312189167008910 [Eh]
	 Singles Energy            =      -0.0000000000000000 [Eh]
	 Same-Spin Energy          =      -0.3287636233885852 [Eh]
	 Opposite-Spin Energy      =      -1.0159642983936155 [Eh]
	 Correlation Energy        =      -1.3447279217822006 [Eh]
	 Total Energy              =    -303.1759468384830711 [Eh]

	 ================> DF-SCS-MP2 Energies <==================
	-----------------------------------------------------------
	 SCS Same-Spin Scale       =       0.3333333333333333 [-]
	 SCS Opposite-Spin Scale   =       1.2000000000000000 [-]
	 SCS Same-Spin Energy      =      -0.1095878744628617 [Eh]
	 SCS Opposite-Spin Energy  =      -1.2191571580723386 [Eh]
	 SCS Correlation Energy    =      -1.3287450325352004 [Eh]
	 SCS Total Energy          =    -303.1599639492361007 [Eh]
	-----------------------------------------------------------

  Dipole Moment: [D]
     X:     0.2332      Y:     1.8762      Z:     1.0020     Total:     2.1398

*** Psi4 exiting successfully. Buy a developer a beer!
