                               Psi4 1.4a3.dev225

  ==> Input File <==

--------------------------------------------------------------------------
#psi4
#
memory 32 gb

molecule  {
0 1
  N       -0.2982310    -1.1935080     0.0025490
  C       -0.8989600     0.0078550    -0.0037920
  C       -0.1841880     1.2189600    -0.0099150
  C        1.2026150     1.1703940     0.0047080
  C        1.8420660    -0.0728230     0.0063860
  C        1.0476430    -1.2144780     0.0023810
  H       -0.7133830     2.1685580    -0.0289310
  H        1.7801000     2.0918600     0.0058130
  H        2.9246530    -0.1531170     0.0136340
  H        1.4978100    -2.2059300     0.0047600
  N       -2.2903850    -0.0069810    -0.0833000
  H       -2.7459567     0.7403534     0.3871934
  H       -2.6687990    -0.9127910     0.1747070
units angstrom
no_reorient  #important for SAPT in psi4, default
symmetry c1  #important for SAPT in psi4, default
}

set PROPERTIES_ORIGIN ["COM"]
properties('MP2/aug-cc-pvtz', properties = ['dipole'])
--------------------------------------------------------------------------

    Molecular point group: c1
  Charge       = 0
  Multiplicity = 1
  Basis Set: AUG-CC-PVTZ
    Blend: AUG-CC-PVTZ
  Basis Set: (AUG-CC-PVTZ AUX)
    Blend: AUG-CC-PVTZ-JKFIT

    Orbital Energies [Eh]
    ---------------------

    Doubly Occupied:

       1A    -15.567158     2A    -15.554368     3A    -11.316606
       4A    -11.275892     5A    -11.259864     6A    -11.233474
       7A    -11.227336     8A     -1.278174     9A     -1.185574
      10A     -1.082994    11A     -1.006241    12A     -0.861577
      13A     -0.838883    14A     -0.718038    15A     -0.700218
      16A     -0.660382    17A     -0.623744    18A     -0.604534
      19A     -0.566744    20A     -0.562141    21A     -0.526412
      22A     -0.460540    23A     -0.419153    24A     -0.380433
      25A     -0.312105

  @DF-RHF Final Energy:  -301.84340640929838

   => Energetics <=

    Nuclear Repulsion Energy =            274.9190375628416518
    One-Electron Energy =                -953.0797161208043917
    Two-Electron Energy =                 376.3172721486643013
    Total Energy =                       -301.8434064092983817
  Basis Set: (AUG-CC-PVTZ AUX)
    Blend: AUG-CC-PVTZ-RI
    Molecular point group: c1

    Geometry (in Angstrom), charge = 0, multiplicity = 1:

       Center              X                  Y                   Z               Mass
    ------------   -----------------  -----------------  -----------------  -----------------
         N           -0.297556245572    -1.174910229354     0.008630776322    14.003074004430
         C           -0.898285245572     0.026452770646     0.002289776322    12.000000000000
         C           -0.183513245572     1.237557770646    -0.003833223678    12.000000000000
         C            1.203289754428     1.188991770646     0.010789776322    12.000000000000
         C            1.842740754428    -0.054225229354     0.012467776322    12.000000000000
         C            1.048317754428    -1.195880229354     0.008462776322    12.000000000000
         H           -0.712708245572     2.187155770646    -0.022849223678     1.007825032230
         H            1.780774754428     2.110457770646     0.011894776322     1.007825032230
         H            2.925327754428    -0.134519229354     0.019715776322     1.007825032230
         H            1.498484754428    -2.187332229354     0.010841776322     1.007825032230
         N           -2.289710245572     0.011616770646    -0.077218223678    14.003074004430
         H           -2.745281945572     0.758951170646     0.393275176322     1.007825032230
         H           -2.668124245572    -0.894193229354     0.180788776322     1.007825032230

  Basis Set: AUG-CC-PVTZ
    Blend: AUG-CC-PVTZ
  Basis Set: (AUG-CC-PVTZ AUX)
    Blend: AUG-CC-PVTZ-JKFIT
	 Reference Energy          =    -301.8434064092983817 [Eh]
	 Singles Energy            =      -0.0000000000000000 [Eh]
	 Same-Spin Energy          =      -0.3282048457215353 [Eh]
	 Opposite-Spin Energy      =      -1.0127632083349909 [Eh]
	 Correlation Energy        =      -1.3409680540565261 [Eh]
	 Total Energy              =    -303.1843744633549136 [Eh]

	 ================> DF-SCS-MP2 Energies <==================
	-----------------------------------------------------------
	 SCS Same-Spin Scale       =       0.3333333333333333 [-]
	 SCS Opposite-Spin Scale   =       1.2000000000000000 [-]
	 SCS Same-Spin Energy      =      -0.1094016152405118 [Eh]
	 SCS Opposite-Spin Energy  =      -1.2153158500019889 [Eh]
	 SCS Correlation Energy    =      -1.3247174652425007 [Eh]
	 SCS Total Energy          =    -303.1681238745408677 [Eh]
	-----------------------------------------------------------

  Dipole Moment: [D]
     X:     0.0257      Y:     1.7406      Z:     0.9959     Total:     2.0056

*** Psi4 exiting successfully. Buy a developer a beer!
