                               Psi4 1.3.2 release

  ==> Input File <==

--------------------------------------------------------------------------
#psi4
#
memory 32 gb

molecule  {
0 1
  N       -0.2981960    -1.1935180     0.0024800
  C       -0.8779191     0.0181169    -0.0039387
  C       -0.1842220     1.2188990    -0.0098900
  C        1.2026080     1.1704100     0.0047310
  C        1.8420610    -0.0727780     0.0063770
  C        1.0476300    -1.2144680     0.0024310
  H       -0.7133720     2.1685100    -0.0287310
  H        1.7800030     2.0919190     0.0058730
  H        2.9246290    -0.1531180     0.0135510
  H        1.4978930    -2.2058730     0.0048570
  N       -2.2904670    -0.0069960    -0.0835250
  H       -2.7545740     0.7554310     0.3970350
  H       -2.6685370    -0.9125390     0.1761140
units angstrom
no_reorient  #important for SAPT in psi4, default
symmetry c1  #important for SAPT in psi4, default
}

set PROPERTIES_ORIGIN ["COM"]
properties('MP2/aug-cc-pvtz', properties = ['dipole'])
--------------------------------------------------------------------------

    Molecular point group: c1
  Charge       = 0
  Multiplicity = 1
  Basis Set: AUG-CC-PVTZ
    Blend: AUG-CC-PVTZ
  Basis Set: (AUG-CC-PVTZ AUX)
    Blend: AUG-CC-PVTZ-JKFIT

    Orbital Energies [Eh]
    ---------------------

    Doubly Occupied:

       1A    -15.565940     2A    -15.556238     3A    -11.314846
       4A    -11.276897     5A    -11.261261     6A    -11.232670
       7A    -11.228917     8A     -1.276155     9A     -1.177774
      10A     -1.085634    11A     -1.008195    12A     -0.863676
      13A     -0.838080    14A     -0.714946    15A     -0.696293
      16A     -0.657323    17A     -0.622232    18A     -0.605270
      19A     -0.567365    20A     -0.561609    21A     -0.525616
      22A     -0.456952    23A     -0.422898    24A     -0.381420
      25A     -0.315042

  @DF-RHF Final Energy:  -301.84229191124996

   => Energetics <=

    Nuclear Repulsion Energy =            274.9332018351951206
    One-Electron Energy =                -953.1244919598317438
    Two-Electron Energy =                 376.3489982133867215
    Total Energy =                       -301.8422919112499585
  Basis Set: (AUG-CC-PVTZ AUX)
    Blend: AUG-CC-PVTZ-RI
    Molecular point group: c1

    Geometry (in Angstrom), charge = 0, multiplicity = 1:

       Center              X                  Y                   Z               Mass
    ------------   -----------------  -----------------  -----------------  -----------------
         N           -0.300101455776    -1.176392055425     0.008489439939    14.003074004430
         C           -0.879824555776     0.035242844575     0.002070739939    12.000000000000
         C           -0.186127455776     1.236024944575    -0.003880560061    12.000000000000
         C            1.200702544224     1.187535944575     0.010740439939    12.000000000000
         C            1.840155544224    -0.055652055425     0.012386439939    12.000000000000
         C            1.045724544224    -1.197342055425     0.008440439939    12.000000000000
         H           -0.715277455776     2.185635944575    -0.022721560061     1.007825032230
         H            1.778097544224     2.109044944575     0.011882439939     1.007825032230
         H            2.922723544224    -0.135992055425     0.019560439939     1.007825032230
         H            1.495987544224    -2.188747055425     0.010866439939     1.007825032230
         N           -2.292372455776     0.010129944575    -0.077515560061    14.003074004430
         H           -2.756479455776     0.772556944575     0.403044439939     1.007825032230
         H           -2.670442455776    -0.895413055425     0.182123439939     1.007825032230

  Basis Set: AUG-CC-PVTZ
    Blend: AUG-CC-PVTZ
  Basis Set: (AUG-CC-PVTZ AUX)
    Blend: AUG-CC-PVTZ-JKFIT
	 Reference Energy          =    -301.8422919112499585 [Eh]
	 Singles Energy            =      -0.0000000000000000 [Eh]
	 Same-Spin Energy          =      -0.3283037889885552 [Eh]
	 Opposite-Spin Energy      =      -1.0131817491201858 [Eh]
	 Correlation Energy        =      -1.3414855381087409 [Eh]
	 Total Energy              =    -303.1837774493586721 [Eh]

	 ================> DF-SCS-MP2 Energies <==================
	-----------------------------------------------------------
	 SCS Same-Spin Scale       =       0.3333333333333333 [-]
	 SCS Opposite-Spin Scale   =       1.2000000000000000 [-]
	 SCS Same-Spin Energy      =      -0.1094345963295184 [Eh]
	 SCS Opposite-Spin Energy  =      -1.2158180989442229 [Eh]
	 SCS Correlation Energy    =      -1.3252526952737413 [Eh]
	 SCS Total Energy          =    -303.1675446065236770 [Eh]
	-----------------------------------------------------------

  Dipole Moment: [D]
     X:     0.2063      Y:     1.7514      Z:     1.0074     Total:     2.0310

*** Psi4 exiting successfully. Buy a developer a beer!
