                               Psi4 1.3.2 release

  ==> Input File <==

--------------------------------------------------------------------------
#psi4
#
memory 32 gb

molecule  {
0 1
  N       -0.2981960    -1.1935180     0.0024800
  C       -0.8137116     0.0467963    -0.0041000
  C       -0.1842220     1.2188990    -0.0098900
  C        1.2026080     1.1704100     0.0047310
  C        1.8420610    -0.0727780     0.0063770
  C        1.0476300    -1.2144680     0.0024310
  H       -0.7133720     2.1685100    -0.0287310
  H        1.7800030     2.0919190     0.0058730
  H        2.9246290    -0.1531180     0.0135510
  H        1.4978930    -2.2058730     0.0048570
  N       -2.2904670    -0.0069960    -0.0835250
  H       -2.7545740     0.7554310     0.3970350
  H       -2.6685370    -0.9125390     0.1761140
units angstrom
no_reorient  #important for SAPT in psi4, default
symmetry c1  #important for SAPT in psi4, default
}

set PROPERTIES_ORIGIN ["COM"]
properties('MP2/aug-cc-pvtz', properties = ['dipole'])
--------------------------------------------------------------------------

    Molecular point group: c1
  Charge       = 0
  Multiplicity = 1
  Basis Set: AUG-CC-PVTZ
    Blend: AUG-CC-PVTZ
  Basis Set: (AUG-CC-PVTZ AUX)
    Blend: AUG-CC-PVTZ-JKFIT

    Orbital Energies [Eh]
    ---------------------

    Doubly Occupied:

       1A    -15.561725     2A    -15.556193     3A    -11.309930
       4A    -11.280069     5A    -11.265588     6A    -11.233486
       7A    -11.230230     8A     -1.275899     9A     -1.159320
      10A     -1.094854    11A     -1.015484    12A     -0.871071
      13A     -0.837919    14A     -0.713924    15A     -0.690224
      16A     -0.651742    17A     -0.624377    18A     -0.602072
      19A     -0.568909    20A     -0.562757    21A     -0.520732
      22A     -0.447359    23A     -0.431850    24A     -0.384906
      25A     -0.323928

  @DF-RHF Final Energy:  -301.83124913019196

   => Energetics <=

    Nuclear Repulsion Energy =            275.3514165409948760
    One-Electron Energy =                -953.9362322582164779
    Two-Electron Energy =                 376.7535665870295816
    Total Energy =                       -301.8312491301919636
  Basis Set: (AUG-CC-PVTZ AUX)
    Blend: AUG-CC-PVTZ-RI
    Molecular point group: c1

    Geometry (in Angstrom), charge = 0, multiplicity = 1:

       Center              X                  Y                   Z               Mass
    ------------   -----------------  -----------------  -----------------  -----------------
         N           -0.308293530410    -1.180051188474     0.008510019803    14.003074004430
         C           -0.823809130410     0.060263111526     0.001930019803    12.000000000000
         C           -0.194319530410     1.232365811526    -0.003859980197    12.000000000000
         C            1.192510469590     1.183876811526     0.010761019803    12.000000000000
         C            1.831963469590    -0.059311188474     0.012407019803    12.000000000000
         C            1.037532469590    -1.201001188474     0.008461019803    12.000000000000
         H           -0.723469530410     2.181976811526    -0.022700980197     1.007825032230
         H            1.769905469590     2.105385811526     0.011903019803     1.007825032230
         H            2.914531469590    -0.139651188474     0.019581019803     1.007825032230
         H            1.487795469590    -2.192406188474     0.010887019803     1.007825032230
         N           -2.300564530410     0.006470811526    -0.077494980197    14.003074004430
         H           -2.764671530410     0.768897811526     0.403065019803     1.007825032230
         H           -2.678634530410    -0.899072188474     0.182144019803     1.007825032230

  Basis Set: AUG-CC-PVTZ
    Blend: AUG-CC-PVTZ
  Basis Set: (AUG-CC-PVTZ AUX)
    Blend: AUG-CC-PVTZ-JKFIT
	 Reference Energy          =    -301.8312491301919636 [Eh]
	 Singles Energy            =      -0.0000000000000000 [Eh]
	 Same-Spin Energy          =      -0.3283747293002014 [Eh]
	 Opposite-Spin Energy      =      -1.0138732603477150 [Eh]
	 Correlation Energy        =      -1.3422479896479165 [Eh]
	 Total Energy              =    -303.1734971198399080 [Eh]

	 ================> DF-SCS-MP2 Energies <==================
	-----------------------------------------------------------
	 SCS Same-Spin Scale       =       0.3333333333333333 [-]
	 SCS Opposite-Spin Scale   =       1.2000000000000000 [-]
	 SCS Same-Spin Energy      =      -0.1094582431000671 [Eh]
	 SCS Opposite-Spin Energy  =      -1.2166479124172580 [Eh]
	 SCS Correlation Energy    =      -1.3261061555173250 [Eh]
	 SCS Total Energy          =    -303.1573552857092864 [Eh]
	-----------------------------------------------------------

  Dipole Moment: [D]
     X:     0.7507      Y:     1.7551      Z:     1.0188     Total:     2.1638

*** Psi4 exiting successfully. Buy a developer a beer!
