                               Psi4 1.3.2 release

  ==> Input File <==

--------------------------------------------------------------------------
#psi4
#
memory 32 gb

molecule  {
0 1
  N       -0.2981960    -1.1935180     0.0024800
  C       -0.9437047     0.0972533    -0.0043546
  C       -0.1842220     1.2188990    -0.0098900
  C        1.2026080     1.1704100     0.0047310
  C        1.8420610    -0.0727780     0.0063770
  C        1.0476300    -1.2144680     0.0024310
  H       -0.7133720     2.1685100    -0.0287310
  H        1.7800030     2.0919190     0.0058730
  H        2.9246290    -0.1531180     0.0135510
  H        1.4978930    -2.2058730     0.0048570
  N       -2.2904670    -0.0069960    -0.0835250
  H       -2.7545740     0.7554310     0.3970350
  H       -2.6685370    -0.9125390     0.1761140
units angstrom
no_reorient  #important for SAPT in psi4, default
symmetry c1  #important for SAPT in psi4, default
}

set PROPERTIES_ORIGIN ["COM"]
properties('MP2/aug-cc-pvtz', properties = ['dipole'])
--------------------------------------------------------------------------

    Molecular point group: c1
  Charge       = 0
  Multiplicity = 1
  Basis Set: AUG-CC-PVTZ
    Blend: AUG-CC-PVTZ
  Basis Set: (AUG-CC-PVTZ AUX)
    Blend: AUG-CC-PVTZ-JKFIT

    Orbital Energies [Eh]
    ---------------------

    Doubly Occupied:

       1A    -15.575310     2A    -15.557064     3A    -11.316339
       4A    -11.273838     5A    -11.261068     6A    -11.225616
       7A    -11.224883     8A     -1.270954     9A     -1.185204
      10A     -1.078196    11A     -1.007942    12A     -0.861873
      13A     -0.832728    14A     -0.719837    15A     -0.705436
      16A     -0.660914    17A     -0.617328    18A     -0.608571
      19A     -0.566936    20A     -0.558992    21A     -0.518612
      22A     -0.465508    23A     -0.413027    24A     -0.375886
      25A     -0.309191

  @DF-RHF Final Energy:  -301.82833593623172

   => Energetics <=

    Nuclear Repulsion Energy =            274.3316936505531203
    One-Electron Energy =                -951.9375467706555582
    Two-Electron Energy =                 375.7775171838707138
    Total Energy =                       -301.8283359362317242
  Basis Set: (AUG-CC-PVTZ AUX)
    Blend: AUG-CC-PVTZ-RI
    Molecular point group: c1

    Geometry (in Angstrom), charge = 0, multiplicity = 1:

       Center              X                  Y                   Z               Mass
    ------------   -----------------  -----------------  -----------------  -----------------
         N           -0.291708035303    -1.186488871141     0.008542503581    14.003074004430
         C           -0.937216735303     0.104282428859     0.001707903581    12.000000000000
         C           -0.177734035303     1.225928128859    -0.003827496419    12.000000000000
         C            1.209095964697     1.177439128859     0.010793503581    12.000000000000
         C            1.848548964697    -0.065748871141     0.012439503581    12.000000000000
         C            1.054117964697    -1.207438871141     0.008493503581    12.000000000000
         H           -0.706884035303     2.175539128859    -0.022668496419     1.007825032230
         H            1.786490964697     2.098948128859     0.011935503581     1.007825032230
         H            2.931116964697    -0.146088871141     0.019613503581     1.007825032230
         H            1.504380964697    -2.198843871141     0.010919503581     1.007825032230
         N           -2.283979035303     0.000033128859    -0.077462496419    14.003074004430
         H           -2.748086035303     0.762460128859     0.403097503581     1.007825032230
         H           -2.662049035303    -0.905509871141     0.182176503581     1.007825032230

  Basis Set: AUG-CC-PVTZ
    Blend: AUG-CC-PVTZ
  Basis Set: (AUG-CC-PVTZ AUX)
    Blend: AUG-CC-PVTZ-JKFIT
	 Reference Energy          =    -301.8283359362317242 [Eh]
	 Singles Energy            =      -0.0000000000000000 [Eh]
	 Same-Spin Energy          =      -0.3293690629260130 [Eh]
	 Opposite-Spin Energy      =      -1.0155464332653832 [Eh]
	 Correlation Energy        =      -1.3449154961913963 [Eh]
	 Total Energy              =    -303.1732514324231147 [Eh]

	 ================> DF-SCS-MP2 Energies <==================
	-----------------------------------------------------------
	 SCS Same-Spin Scale       =       0.3333333333333333 [-]
	 SCS Opposite-Spin Scale   =       1.2000000000000000 [-]
	 SCS Same-Spin Energy      =      -0.1097896876420043 [Eh]
	 SCS Opposite-Spin Energy  =      -1.2186557199184598 [Eh]
	 SCS Correlation Energy    =      -1.3284454075604641 [Eh]
	 SCS Total Energy          =    -303.1567813437922041 [Eh]
	-----------------------------------------------------------

  Dipole Moment: [D]
     X:    -0.2662      Y:     1.7391      Z:     0.9890     Total:     2.0183

*** Psi4 exiting successfully. Buy a developer a beer!
