                               Psi4 1.3.2 release

  ==> Input File <==

--------------------------------------------------------------------------
#psi4
#
memory 32 gb

molecule  {
0 1
  N       -0.3404885    -1.2137529     0.0025711
  C       -0.8989770     0.0078150    -0.0038810
  C       -0.1842220     1.2188990    -0.0098900
  C        1.2026080     1.1704100     0.0047310
  C        1.8420610    -0.0727780     0.0063770
  C        1.0476300    -1.2144680     0.0024310
  H       -0.7133720     2.1685100    -0.0287310
  H        1.7800030     2.0919190     0.0058730
  H        2.9246290    -0.1531180     0.0135510
  H        1.4978930    -2.2058730     0.0048570
  N       -2.2904670    -0.0069960    -0.0835250
  H       -2.7545740     0.7554310     0.3970350
  H       -2.6685370    -0.9125390     0.1761140
units angstrom
no_reorient  #important for SAPT in psi4, default
symmetry c1  #important for SAPT in psi4, default
}

set PROPERTIES_ORIGIN ["COM"]
properties('MP2/aug-cc-pvtz', properties = ['dipole'])
--------------------------------------------------------------------------

    Molecular point group: c1
  Charge       = 0
  Multiplicity = 1
  Basis Set: AUG-CC-PVTZ
    Blend: AUG-CC-PVTZ
  Basis Set: (AUG-CC-PVTZ AUX)
    Blend: AUG-CC-PVTZ-JKFIT

    Orbital Energies [Eh]
    ---------------------

    Doubly Occupied:

       1A    -15.567044     2A    -15.558893     3A    -11.316139
       4A    -11.280583     5A    -11.262095     6A    -11.234938
       7A    -11.229645     8A     -1.273591     9A     -1.176036
      10A     -1.084125    11A     -1.004968    12A     -0.863760
      13A     -0.832977    14A     -0.714797    15A     -0.697180
      16A     -0.660682    17A     -0.618349    18A     -0.603208
      19A     -0.566281    20A     -0.559596    21A     -0.523252
      22A     -0.458032    23A     -0.426784    24A     -0.377607
      25A     -0.314028

  @DF-RHF Final Energy:  -301.83887725065557

   => Energetics <=

    Nuclear Repulsion Energy =            274.0467881320390120
    One-Electron Energy =                -951.3621488021366304
    Two-Electron Energy =                 375.4764834194419905
    Total Energy =                       -301.8388772506555711
  Basis Set: (AUG-CC-PVTZ AUX)
    Blend: AUG-CC-PVTZ-RI
    Molecular point group: c1

    Geometry (in Angstrom), charge = 0, multiplicity = 1:

       Center              X                  Y                   Z               Mass
    ------------   -----------------  -----------------  -----------------  -----------------
         N           -0.333410521700    -1.192299893266     0.008559614737    14.003074004430
         C           -0.891899021700     0.029268006734     0.002107514737    12.000000000000
         C           -0.177144021700     1.240352006734    -0.003901485263    12.000000000000
         C            1.209685978300     1.191863006734     0.010719514737    12.000000000000
         C            1.849138978300    -0.051324993266     0.012365514737    12.000000000000
         C            1.054707978300    -1.193014993266     0.008419514737    12.000000000000
         H           -0.706294021700     2.189963006734    -0.022742485263     1.007825032230
         H            1.787080978300     2.113372006734     0.011861514737     1.007825032230
         H            2.931706978300    -0.131664993266     0.019539514737     1.007825032230
         H            1.504970978300    -2.184419993266     0.010845514737     1.007825032230
         N           -2.283389021700     0.014457006734    -0.077536485263    14.003074004430
         H           -2.747496021700     0.776884006734     0.403023514737     1.007825032230
         H           -2.661459021700    -0.891085993266     0.182102514737     1.007825032230

  Basis Set: AUG-CC-PVTZ
    Blend: AUG-CC-PVTZ
  Basis Set: (AUG-CC-PVTZ AUX)
    Blend: AUG-CC-PVTZ-JKFIT
	 Reference Energy          =    -301.8388772506555711 [Eh]
	 Singles Energy            =      -0.0000000000000000 [Eh]
	 Same-Spin Energy          =      -0.3285076177938765 [Eh]
	 Opposite-Spin Energy      =      -1.0143995363232963 [Eh]
	 Correlation Energy        =      -1.3429071541171727 [Eh]
	 Total Energy              =    -303.1817844047727704 [Eh]

	 ================> DF-SCS-MP2 Energies <==================
	-----------------------------------------------------------
	 SCS Same-Spin Scale       =       0.3333333333333333 [-]
	 SCS Opposite-Spin Scale   =       1.2000000000000000 [-]
	 SCS Same-Spin Energy      =      -0.1095025392646255 [Eh]
	 SCS Opposite-Spin Energy  =      -1.2172794435879555 [Eh]
	 SCS Correlation Energy    =      -1.3267819828525811 [Eh]
	 SCS Total Energy          =    -303.1656592335081655 [Eh]
	-----------------------------------------------------------

  Dipole Moment: [D]
     X:     0.1301      Y:     1.8168      Z:     1.0027     Total:     2.0792

*** Psi4 exiting successfully. Buy a developer a beer!
