                               Psi4 1.3.2 release

  ==> Input File <==

--------------------------------------------------------------------------
#psi4
#
memory 32 gb

molecule  {
0 1
  N       -0.2981960    -1.1935180     0.0024800
  C       -0.9198519    -0.0028529    -0.0038214
  C       -0.1842220     1.2188990    -0.0098900
  C        1.2026080     1.1704100     0.0047310
  C        1.8420610    -0.0727780     0.0063770
  C        1.0476300    -1.2144680     0.0024310
  H       -0.7133720     2.1685100    -0.0287310
  H        1.7800030     2.0919190     0.0058730
  H        2.9246290    -0.1531180     0.0135510
  H        1.4978930    -2.2058730     0.0048570
  N       -2.2904670    -0.0069960    -0.0835250
  H       -2.7545740     0.7554310     0.3970350
  H       -2.6685370    -0.9125390     0.1761140
units angstrom
no_reorient  #important for SAPT in psi4, default
symmetry c1  #important for SAPT in psi4, default
}

set PROPERTIES_ORIGIN ["COM"]
properties('MP2/aug-cc-pvtz', properties = ['dipole'])
--------------------------------------------------------------------------

    Molecular point group: c1
  Charge       = 0
  Multiplicity = 1
  Basis Set: AUG-CC-PVTZ
    Blend: AUG-CC-PVTZ
  Basis Set: (AUG-CC-PVTZ AUX)
    Blend: AUG-CC-PVTZ-JKFIT

    Orbital Energies [Eh]
    ---------------------

    Doubly Occupied:

       1A    -15.572496     2A    -15.552496     3A    -11.318323
       4A    -11.274870     5A    -11.258351     6A    -11.234081
       7A    -11.225642     8A     -1.279827     9A     -1.188726
      10A     -1.080414    11A     -1.002927    12A     -0.859343
      13A     -0.838005    14A     -0.718363    15A     -0.701843
      16A     -0.662219    17A     -0.621719    18A     -0.602564
      19A     -0.565673    20A     -0.562967    21A     -0.526647
      22A     -0.463550    23A     -0.415143    24A     -0.379451
      25A     -0.308897

  @DF-RHF Final Energy:  -301.84232850278437

   => Energetics <=

    Nuclear Repulsion Energy =            274.7053216098848907
    One-Electron Energy =                -952.6662288894752919
    Two-Electron Energy =                 376.1185787768060322
    Total Energy =                       -301.8423285027843690
  Basis Set: (AUG-CC-PVTZ AUX)
    Blend: AUG-CC-PVTZ-RI
    Molecular point group: c1

    Geometry (in Angstrom), charge = 0, multiplicity = 1:

       Center              X                  Y                   Z               Mass
    ------------   -----------------  -----------------  -----------------  -----------------
         N           -0.294751354508    -1.173716570994     0.008474473924    14.003074004430
         C           -0.916407254508     0.016948529006     0.002173073924    12.000000000000
         C           -0.180777354508     1.238700429006    -0.003895526076    12.000000000000
         C            1.206052645492     1.190211429006     0.010725473924    12.000000000000
         C            1.845505645492    -0.052976570994     0.012371473924    12.000000000000
         C            1.051074645492    -1.194666570994     0.008425473924    12.000000000000
         H           -0.709927354508     2.188311429006    -0.022736526076     1.007825032230
         H            1.783447645492     2.111720429006     0.011867473924     1.007825032230
         H            2.928073645492    -0.133316570994     0.019545473924     1.007825032230
         H            1.501337645492    -2.186071570994     0.010851473924     1.007825032230
         N           -2.287022354508     0.012805429006    -0.077530526076    14.003074004430
         H           -2.751129354508     0.775232429006     0.403029473924     1.007825032230
         H           -2.665092354508    -0.892737570994     0.182108473924     1.007825032230

  Basis Set: AUG-CC-PVTZ
    Blend: AUG-CC-PVTZ
  Basis Set: (AUG-CC-PVTZ AUX)
    Blend: AUG-CC-PVTZ-JKFIT
	 Reference Energy          =    -301.8423285027843690 [Eh]
	 Singles Energy            =      -0.0000000000000000 [Eh]
	 Same-Spin Energy          =      -0.3283470218949510 [Eh]
	 Opposite-Spin Energy      =      -1.0130602079070878 [Eh]
	 Correlation Energy        =      -1.3414072298020387 [Eh]
	 Total Energy              =    -303.1837357325863991 [Eh]

	 ================> DF-SCS-MP2 Energies <==================
	-----------------------------------------------------------
	 SCS Same-Spin Scale       =       0.3333333333333333 [-]
	 SCS Opposite-Spin Scale   =       1.2000000000000000 [-]
	 SCS Same-Spin Energy      =      -0.1094490072983170 [Eh]
	 SCS Opposite-Spin Energy  =      -1.2156722494885053 [Eh]
	 SCS Correlation Energy    =      -1.3251212567868222 [Eh]
	 SCS Total Energy          =    -303.1674497595711841 [Eh]
	-----------------------------------------------------------

  Dipole Moment: [D]
     X:    -0.1654      Y:     1.7496      Z:     0.9991     Total:     2.0215

*** Psi4 exiting successfully. Buy a developer a beer!
