                               Psi4 1.3.2 release

  ==> Input File <==

--------------------------------------------------------------------------
#psi4
#
memory 32 gb

molecule  {
0 1
  N       -0.2981960    -1.1935180     0.0024800
  C       -0.8095216    -0.1710616    -0.0029339
  C       -0.1842220     1.2188990    -0.0098900
  C        1.2026080     1.1704100     0.0047310
  C        1.8420610    -0.0727780     0.0063770
  C        1.0476300    -1.2144680     0.0024310
  H       -0.7133720     2.1685100    -0.0287310
  H        1.7800030     2.0919190     0.0058730
  H        2.9246290    -0.1531180     0.0135510
  H        1.4978930    -2.2058730     0.0048570
  N       -2.2904670    -0.0069960    -0.0835250
  H       -2.7545740     0.7554310     0.3970350
  H       -2.6685370    -0.9125390     0.1761140
units angstrom
no_reorient  #important for SAPT in psi4, default
symmetry c1  #important for SAPT in psi4, default
}

set PROPERTIES_ORIGIN ["COM"]
properties('MP2/aug-cc-pvtz', properties = ['dipole'])
--------------------------------------------------------------------------

    Molecular point group: c1
  Charge       = 0
  Multiplicity = 1
  Basis Set: AUG-CC-PVTZ
    Blend: AUG-CC-PVTZ
  Basis Set: (AUG-CC-PVTZ AUX)
    Blend: AUG-CC-PVTZ-JKFIT

    Orbital Energies [Eh]
    ---------------------

    Doubly Occupied:

       1A    -15.551774     2A    -15.546106     3A    -11.309332
       4A    -11.280842     5A    -11.255738     6A    -11.247528
       7A    -11.237193     8A     -1.337440     9A     -1.158519
      10A     -1.097437    11A     -1.002658    12A     -0.881047
      13A     -0.823944    14A     -0.720180    15A     -0.684737
      16A     -0.667662    17A     -0.629082    18A     -0.592925
      19A     -0.580565    20A     -0.570757    21A     -0.529975
      22A     -0.447725    23A     -0.411587    24A     -0.397696
      25A     -0.315806

  @DF-RHF Final Energy:  -301.78631324763768

   => Energetics <=

    Nuclear Repulsion Energy =            276.2903852871460799
    One-Electron Energy =                -955.5968862819526066
    Two-Electron Energy =                 377.5201877471689045
    Total Energy =                       -301.7863132476376791
  Basis Set: (AUG-CC-PVTZ AUX)
    Blend: AUG-CC-PVTZ-RI
    Molecular point group: c1

    Geometry (in Angstrom), charge = 0, multiplicity = 1:

       Center              X                  Y                   Z               Mass
    ------------   -----------------  -----------------  -----------------  -----------------
         N           -0.308828122050    -1.152255242887     0.008361240015    14.003074004430
         C           -0.820153722050    -0.129798842887     0.002947340015    12.000000000000
         C           -0.194854122050     1.260161757113    -0.004008759985    12.000000000000
         C            1.191975877950     1.211672757113     0.010612240015    12.000000000000
         C            1.831428877950    -0.031515242887     0.012258240015    12.000000000000
         C            1.036997877950    -1.173205242887     0.008312240015    12.000000000000
         H           -0.724004122050     2.209772757113    -0.022849759985     1.007825032230
         H            1.769370877950     2.133181757113     0.011754240015     1.007825032230
         H            2.913996877950    -0.111855242887     0.019432240015     1.007825032230
         H            1.487260877950    -2.164610242887     0.010738240015     1.007825032230
         N           -2.301099122050     0.034266757113    -0.077643759985    14.003074004430
         H           -2.765206122050     0.796693757113     0.402916240015     1.007825032230
         H           -2.679169122050    -0.871276242887     0.181995240015     1.007825032230

  Basis Set: AUG-CC-PVTZ
    Blend: AUG-CC-PVTZ
  Basis Set: (AUG-CC-PVTZ AUX)
    Blend: AUG-CC-PVTZ-JKFIT
	 Reference Energy          =    -301.7863132476376791 [Eh]
	 Singles Energy            =      -0.0000000000000000 [Eh]
	 Same-Spin Energy          =      -0.3256380049063636 [Eh]
	 Opposite-Spin Energy      =      -1.0117875911068963 [Eh]
	 Correlation Energy        =      -1.3374255960132599 [Eh]
	 Total Energy              =    -303.1237388436509264 [Eh]

	 ================> DF-SCS-MP2 Energies <==================
	-----------------------------------------------------------
	 SCS Same-Spin Scale       =       0.3333333333333333 [-]
	 SCS Opposite-Spin Scale   =       1.2000000000000000 [-]
	 SCS Same-Spin Energy      =      -0.1085460016354545 [Eh]
	 SCS Opposite-Spin Energy  =      -1.2141451093282756 [Eh]
	 SCS Correlation Energy    =      -1.3226911109637300 [Eh]
	 SCS Total Energy          =    -303.1090043586013962 [Eh]
	-----------------------------------------------------------

  Dipole Moment: [D]
     X:     0.7599      Y:     1.5157      Z:     1.0333     Total:     1.9856

*** Psi4 exiting successfully. Buy a developer a beer!
