                               Psi4 1.3.2 release

  ==> Input File <==

--------------------------------------------------------------------------
#psi4
#
memory 32 gb

molecule  {
0 1
  N       -0.2981960    -1.1935180     0.0024800
  C       -0.9813155    -0.0370191    -0.0036311
  C       -0.1842220     1.2188990    -0.0098900
  C        1.2026080     1.1704100     0.0047310
  C        1.8420610    -0.0727780     0.0063770
  C        1.0476300    -1.2144680     0.0024310
  H       -0.7133720     2.1685100    -0.0287310
  H        1.7800030     2.0919190     0.0058730
  H        2.9246290    -0.1531180     0.0135510
  H        1.4978930    -2.2058730     0.0048570
  N       -2.2904670    -0.0069960    -0.0835250
  H       -2.7545740     0.7554310     0.3970350
  H       -2.6685370    -0.9125390     0.1761140
units angstrom
no_reorient  #important for SAPT in psi4, default
symmetry c1  #important for SAPT in psi4, default
}

set PROPERTIES_ORIGIN ["COM"]
properties('MP2/aug-cc-pvtz', properties = ['dipole'])
--------------------------------------------------------------------------

    Molecular point group: c1
  Charge       = 0
  Multiplicity = 1
  Basis Set: AUG-CC-PVTZ
    Blend: AUG-CC-PVTZ
  Basis Set: (AUG-CC-PVTZ AUX)
    Blend: AUG-CC-PVTZ-JKFIT

    Orbital Energies [Eh]
    ---------------------

    Doubly Occupied:

       1A    -15.582496     2A    -15.546785     3A    -11.323559
       4A    -11.271987     5A    -11.253914     6A    -11.235614
       7A    -11.220452     8A     -1.293013     9A     -1.200341
      10A     -1.073696    11A     -0.994850    12A     -0.854813
      13A     -0.837548    14A     -0.728382    15A     -0.711811
      16A     -0.667628    17A     -0.621785    18A     -0.592786
      19A     -0.569202    20A     -0.562079    21A     -0.526032
      22A     -0.471495    23A     -0.402172    24A     -0.376849
      25A     -0.299750

  @DF-RHF Final Energy:  -301.83109218148229

   => Energetics <=

    Nuclear Repulsion Energy =            274.4406961336805466
    One-Electron Energy =                -952.1055012569743212
    Two-Electron Energy =                 375.8337129418114273
    Total Energy =                       -301.8310921814822905
  Basis Set: (AUG-CC-PVTZ AUX)
    Blend: AUG-CC-PVTZ-RI
    Molecular point group: c1

    Geometry (in Angstrom), charge = 0, multiplicity = 1:

       Center              X                  Y                   Z               Mass
    ------------   -----------------  -----------------  -----------------  -----------------
         N           -0.286909367225    -1.169357390830     0.008450194023    14.003074004430
         C           -0.970028867225    -0.012858490830     0.002339094023    12.000000000000
         C           -0.172935367225     1.243059609170    -0.003919805977    12.000000000000
         C            1.213894632775     1.194570609170     0.010701194023    12.000000000000
         C            1.853347632775    -0.048617390830     0.012347194023    12.000000000000
         C            1.058916632775    -1.190307390830     0.008401194023    12.000000000000
         H           -0.702085367225     2.192670609170    -0.022760805977     1.007825032230
         H            1.791289632775     2.116079609170     0.011843194023     1.007825032230
         H            2.935915632775    -0.128957390830     0.019521194023     1.007825032230
         H            1.509179632775    -2.181712390830     0.010827194023     1.007825032230
         N           -2.279180367225     0.017164609170    -0.077554805977    14.003074004430
         H           -2.743287367225     0.779591609170     0.403005194023     1.007825032230
         H           -2.657250367225    -0.888378390830     0.182084194023     1.007825032230

  Basis Set: AUG-CC-PVTZ
    Blend: AUG-CC-PVTZ
  Basis Set: (AUG-CC-PVTZ AUX)
    Blend: AUG-CC-PVTZ-JKFIT
	 Reference Energy          =    -301.8310921814822905 [Eh]
	 Singles Energy            =      -0.0000000000000000 [Eh]
	 Same-Spin Energy          =      -0.3285269093107416 [Eh]
	 Opposite-Spin Energy      =      -1.0133560943860633 [Eh]
	 Correlation Energy        =      -1.3418830036968048 [Eh]
	 Total Energy              =    -303.1729751851790979 [Eh]

	 ================> DF-SCS-MP2 Energies <==================
	-----------------------------------------------------------
	 SCS Same-Spin Scale       =       0.3333333333333333 [-]
	 SCS Opposite-Spin Scale   =       1.2000000000000000 [-]
	 SCS Same-Spin Energy      =      -0.1095089697702472 [Eh]
	 SCS Opposite-Spin Energy  =      -1.2160273132632760 [Eh]
	 SCS Correlation Energy    =      -1.3255362830335231 [Eh]
	 SCS Total Energy          =    -303.1566284645157907 [Eh]
	-----------------------------------------------------------

  Dipole Moment: [D]
     X:    -0.7322      Y:     1.7465      Z:     0.9857     Total:     2.1349

*** Psi4 exiting successfully. Buy a developer a beer!
