                               Psi4 1.3.2 release

  ==> Input File <==

--------------------------------------------------------------------------
#psi4
#
memory 32 gb

molecule  {
0 1
  N       -0.2773635    -1.1828634     0.0039145
  C       -0.8989770     0.0078150    -0.0038810
  C       -0.1842220     1.2188990    -0.0098900
  C        1.2026080     1.1704100     0.0047310
  C        1.8420610    -0.0727780     0.0063770
  C        1.0476300    -1.2144680     0.0024310
  H       -0.7133720     2.1685100    -0.0287310
  H        1.7800030     2.0919190     0.0058730
  H        2.9246290    -0.1531180     0.0135510
  H        1.4978930    -2.2058730     0.0048570
  N       -2.2904670    -0.0069960    -0.0835250
  H       -2.7545740     0.7554310     0.3970350
  H       -2.6685370    -0.9125390     0.1761140
units angstrom
no_reorient  #important for SAPT in psi4, default
symmetry c1  #important for SAPT in psi4, default
}

set PROPERTIES_ORIGIN ["COM"]
properties('MP2/aug-cc-pvtz', properties = ['dipole'])
--------------------------------------------------------------------------

    Molecular point group: c1
  Charge       = 0
  Multiplicity = 1
  Basis Set: AUG-CC-PVTZ
    Blend: AUG-CC-PVTZ
  Basis Set: (AUG-CC-PVTZ AUX)
    Blend: AUG-CC-PVTZ-JKFIT

    Orbital Energies [Eh]
    ---------------------

    Doubly Occupied:

       1A    -15.570265     2A    -15.552025     3A    -11.316851
       4A    -11.273394     5A    -11.258647     6A    -11.232662
       7A    -11.226121     8A     -1.279936     9A     -1.187155
      10A     -1.082315    11A     -1.005965    12A     -0.860471
      13A     -0.840354    14A     -0.717216    15A     -0.699785
      16A     -0.659421    17A     -0.623799    18A     -0.604896
      19A     -0.566691    20A     -0.563443    21A     -0.527493
      22A     -0.461660    23A     -0.414956    24A     -0.381749
      25A     -0.310956

  @DF-RHF Final Energy:  -301.84365954906889

   => Energetics <=

    Nuclear Repulsion Energy =            275.2127243982914706
    One-Electron Energy =                -953.6763202154461396
    Two-Electron Energy =                 376.6199362680857803
    Total Energy =                       -301.8436595490688887
  Basis Set: (AUG-CC-PVTZ AUX)
    Blend: AUG-CC-PVTZ-RI
    Molecular point group: c1

    Geometry (in Angstrom), charge = 0, multiplicity = 1:

       Center              X                  Y                   Z               Mass
    ------------   -----------------  -----------------  -----------------  -----------------
         N           -0.279683872881    -1.166009369406     0.009703002935    14.003074004430
         C           -0.901297372881     0.024669030594     0.001907502935    12.000000000000
         C           -0.186542372881     1.235753030594    -0.004101497065    12.000000000000
         C            1.200287627119     1.187264030594     0.010519502935    12.000000000000
         C            1.839740627119    -0.055923969406     0.012165502935    12.000000000000
         C            1.045309627119    -1.197613969406     0.008219502935    12.000000000000
         H           -0.715692372881     2.185364030594    -0.022942497065     1.007825032230
         H            1.777682627119     2.108773030594     0.011661502935     1.007825032230
         H            2.922308627119    -0.136263969406     0.019339502935     1.007825032230
         H            1.495572627119    -2.189018969406     0.010645502935     1.007825032230
         N           -2.292787372881     0.009858030594    -0.077736497065    14.003074004430
         H           -2.756894372881     0.772285030594     0.402823502935     1.007825032230
         H           -2.670857372881    -0.895684969406     0.181902502935     1.007825032230

  Basis Set: AUG-CC-PVTZ
    Blend: AUG-CC-PVTZ
  Basis Set: (AUG-CC-PVTZ AUX)
    Blend: AUG-CC-PVTZ-JKFIT
	 Reference Energy          =    -301.8436595490688887 [Eh]
	 Singles Energy            =      -0.0000000000000000 [Eh]
	 Same-Spin Energy          =      -0.3282474918165766 [Eh]
	 Opposite-Spin Energy      =      -1.0125324118845993 [Eh]
	 Correlation Energy        =      -1.3407799037011761 [Eh]
	 Total Energy              =    -303.1844394527700501 [Eh]

	 ================> DF-SCS-MP2 Energies <==================
	-----------------------------------------------------------
	 SCS Same-Spin Scale       =       0.3333333333333333 [-]
	 SCS Opposite-Spin Scale   =       1.2000000000000000 [-]
	 SCS Same-Spin Energy      =      -0.1094158306055255 [Eh]
	 SCS Opposite-Spin Energy  =      -1.2150388942615191 [Eh]
	 SCS Correlation Energy    =      -1.3244547248670446 [Eh]
	 SCS Total Energy          =    -303.1681142739359416 [Eh]
	-----------------------------------------------------------

  Dipole Moment: [D]
     X:    -0.0355      Y:     1.7149      Z:     1.0018     Total:     1.9864

*** Psi4 exiting successfully. Buy a developer a beer!
