                               Psi4 1.3.2 release

  ==> Input File <==

--------------------------------------------------------------------------
#psi4
#
memory 32 gb

molecule  {
0 1
  N       -0.3832918    -1.2324461    -0.0032729
  C       -0.8989770     0.0078150    -0.0038810
  C       -0.1842220     1.2188990    -0.0098900
  C        1.2026080     1.1704100     0.0047310
  C        1.8420610    -0.0727780     0.0063770
  C        1.0476300    -1.2144680     0.0024310
  H       -0.7133720     2.1685100    -0.0287310
  H        1.7800030     2.0919190     0.0058730
  H        2.9246290    -0.1531180     0.0135510
  H        1.4978930    -2.2058730     0.0048570
  N       -2.2904670    -0.0069960    -0.0835250
  H       -2.7545740     0.7554310     0.3970350
  H       -2.6685370    -0.9125390     0.1761140
units angstrom
no_reorient  #important for SAPT in psi4, default
symmetry c1  #important for SAPT in psi4, default
}

set PROPERTIES_ORIGIN ["COM"]
properties('MP2/aug-cc-pvtz', properties = ['dipole'])
--------------------------------------------------------------------------

    Molecular point group: c1
  Charge       = 0
  Multiplicity = 1
  Basis Set: AUG-CC-PVTZ
    Blend: AUG-CC-PVTZ
  Basis Set: (AUG-CC-PVTZ AUX)
    Blend: AUG-CC-PVTZ-JKFIT

    Orbital Energies [Eh]
    ---------------------

    Doubly Occupied:

       1A    -15.564862     2A    -15.563111     3A    -11.315861
       4A    -11.284856     5A    -11.264308     6A    -11.236485
       7A    -11.231908     8A     -1.270615     9A     -1.168723
      10A     -1.085131    11A     -1.004524    12A     -0.866375
      13A     -0.827681    14A     -0.713561    15A     -0.695386
      16A     -0.661630    17A     -0.615667    18A     -0.601411
      19A     -0.565958    20A     -0.557643    21A     -0.519290
      22A     -0.456379    23A     -0.433299    24A     -0.374703
      25A     -0.315989

  @DF-RHF Final Energy:  -301.83123695945130

   => Energetics <=

    Nuclear Repulsion Energy =            273.3255934201586683
    One-Electron Energy =                -949.9229414825789490
    Two-Electron Energy =                 374.7661111029689209
    Total Energy =                       -301.8312369594513029
  Basis Set: (AUG-CC-PVTZ AUX)
    Blend: AUG-CC-PVTZ-RI
    Molecular point group: c1

    Geometry (in Angstrom), charge = 0, multiplicity = 1:

       Center              X                  Y                   Z               Mass
    ------------   -----------------  -----------------  -----------------  -----------------
         N           -0.369841062174    -1.208209960462     0.003585697340    14.003074004430
         C           -0.885526262174     0.032051139538     0.002977597340    12.000000000000
         C           -0.170771262174     1.243135139538    -0.003031402660    12.000000000000
         C            1.216058737826     1.194646139538     0.011589597340    12.000000000000
         C            1.855511737826    -0.048541860462     0.013235597340    12.000000000000
         C            1.061080737826    -1.190231860462     0.009289597340    12.000000000000
         H           -0.699921262174     2.192746139538    -0.021872402660     1.007825032230
         H            1.793453737826     2.116155139538     0.012731597340     1.007825032230
         H            2.938079737826    -0.128881860462     0.020409597340     1.007825032230
         H            1.511343737826    -2.181636860462     0.011715597340     1.007825032230
         N           -2.277016262174     0.017240139538    -0.076666402660    14.003074004430
         H           -2.741123262174     0.779667139538     0.403893597340     1.007825032230
         H           -2.655086262174    -0.888302860462     0.182972597340     1.007825032230

  Basis Set: AUG-CC-PVTZ
    Blend: AUG-CC-PVTZ
  Basis Set: (AUG-CC-PVTZ AUX)
    Blend: AUG-CC-PVTZ-JKFIT
	 Reference Energy          =    -301.8312369594513029 [Eh]
	 Singles Energy            =      -0.0000000000000000 [Eh]
	 Same-Spin Energy          =      -0.3287640938356597 [Eh]
	 Opposite-Spin Energy      =      -1.0159615938950917 [Eh]
	 Correlation Energy        =      -1.3447256877307514 [Eh]
	 Total Energy              =    -303.1759626471820752 [Eh]

	 ================> DF-SCS-MP2 Energies <==================
	-----------------------------------------------------------
	 SCS Same-Spin Scale       =       0.3333333333333333 [-]
	 SCS Opposite-Spin Scale   =       1.2000000000000000 [-]
	 SCS Same-Spin Energy      =      -0.1095880312785532 [Eh]
	 SCS Opposite-Spin Energy  =      -1.2191539126741100 [Eh]
	 SCS Correlation Energy    =      -1.3287419439526633 [Eh]
	 SCS Total Energy          =    -303.1599789034039532 [Eh]
	-----------------------------------------------------------

  Dipole Moment: [D]
     X:     0.2321      Y:     1.8758      Z:     1.0092     Total:     2.1426

*** Psi4 exiting successfully. Buy a developer a beer!
