                               Psi4 1.4a3.dev225

  ==> Input File <==

--------------------------------------------------------------------------
#psi4
#
memory 32 gb

molecule  {
0 1
  N       -0.2982310    -1.1935080     0.0025490
  C       -0.8900153    -0.0100331    -0.0036976
  C       -0.1841880     1.2189600    -0.0099150
  C        1.2026150     1.1703940     0.0047080
  C        1.8420660    -0.0728230     0.0063860
  C        1.0476430    -1.2144780     0.0023810
  H       -0.7133830     2.1685580    -0.0289310
  H        1.7801000     2.0918600     0.0058130
  H        2.9246530    -0.1531170     0.0136340
  H        1.4978100    -2.2059300     0.0047600
  N       -2.2903850    -0.0069810    -0.0833000
  H       -2.7551260     0.7553950     0.3966630
  H       -2.6687990    -0.9127910     0.1747070
units angstrom
no_reorient  #important for SAPT in psi4, default
symmetry c1  #important for SAPT in psi4, default
}

set PROPERTIES_ORIGIN ["COM"]
properties('MP2/aug-cc-pvtz', properties = ['dipole'])
--------------------------------------------------------------------------

    Molecular point group: c1
  Charge       = 0
  Multiplicity = 1
  Basis Set: AUG-CC-PVTZ
    Blend: AUG-CC-PVTZ
  Basis Set: (AUG-CC-PVTZ AUX)
    Blend: AUG-CC-PVTZ-JKFIT

    Orbital Energies [Eh]
    ---------------------

    Doubly Occupied:

       1A    -15.567794     2A    -15.553669     3A    -11.316370
       4A    -11.276273     5A    -11.259487     6A    -11.234970
       7A    -11.227963     8A     -1.280662     9A     -1.182174
      10A     -1.084151    11A     -1.005158    12A     -0.862460
      13A     -0.837877    14A     -0.716128    15A     -0.697477
      16A     -0.660332    17A     -0.623251    18A     -0.602202
      19A     -0.566558    20A     -0.563265    21A     -0.527427
      22A     -0.459075    23A     -0.419605    24A     -0.381784
      25A     -0.312449

  @DF-RHF Final Energy:  -301.84326850059045

   => Energetics <=

    Nuclear Repulsion Energy =            274.9251294974098982
    One-Electron Energy =                -953.0996749113745636
    Two-Electron Energy =                 376.3312769133742108
    Total Energy =                       -301.8432685005904546
  Basis Set: (AUG-CC-PVTZ AUX)
    Blend: AUG-CC-PVTZ-RI
    Molecular point group: c1

    Geometry (in Angstrom), charge = 0, multiplicity = 1:

       Center              X                  Y                   Z               Mass
    ------------   -----------------  -----------------  -----------------  -----------------
         N           -0.298599223972    -1.172789109446     0.008517260658    14.003074004430
         C           -0.890383523972     0.010685790554     0.002270660658    12.000000000000
         C           -0.184556223972     1.239678890554    -0.003946739342    12.000000000000
         C            1.202246776028     1.191112890554     0.010676260658    12.000000000000
         C            1.841697776028    -0.052104109446     0.012354260658    12.000000000000
         C            1.047274776028    -1.193759109446     0.008349260658    12.000000000000
         H           -0.713751223972     2.189276890554    -0.022962739342     1.007825032230
         H            1.779731776028     2.112578890554     0.011781260658     1.007825032230
         H            2.924284776028    -0.132398109446     0.019602260658     1.007825032230
         H            1.497441776028    -2.185211109446     0.010728260658     1.007825032230
         N           -2.290753223972     0.013737890554    -0.077331739342    14.003074004430
         H           -2.755494223972     0.776113890554     0.402631260658     1.007825032230
         H           -2.669167223972    -0.892072109446     0.180675260658     1.007825032230

  Basis Set: AUG-CC-PVTZ
    Blend: AUG-CC-PVTZ
  Basis Set: (AUG-CC-PVTZ AUX)
    Blend: AUG-CC-PVTZ-JKFIT
	 Reference Energy          =    -301.8432685005904546 [Eh]
	 Singles Energy            =      -0.0000000000000000 [Eh]
	 Same-Spin Energy          =      -0.3280789669734490 [Eh]
	 Opposite-Spin Energy      =      -1.0127417862943067 [Eh]
	 Correlation Energy        =      -1.3408207532677556 [Eh]
	 Total Energy              =    -303.1840892538581897 [Eh]

	 ================> DF-SCS-MP2 Energies <==================
	-----------------------------------------------------------
	 SCS Same-Spin Scale       =       0.3333333333333333 [-]
	 SCS Opposite-Spin Scale   =       1.2000000000000000 [-]
	 SCS Same-Spin Energy      =      -0.1093596556578163 [Eh]
	 SCS Opposite-Spin Energy  =      -1.2152901435531680 [Eh]
	 SCS Correlation Energy    =      -1.3246497992109842 [Eh]
	 SCS Total Energy          =    -303.1679182998014426 [Eh]
	-----------------------------------------------------------

  Dipole Moment: [D]
     X:     0.0816      Y:     1.7448      Z:     1.0036     Total:     2.0145

*** Psi4 exiting successfully. Buy a developer a beer!
