                               Psi4 1.3.2 release

  ==> Input File <==

--------------------------------------------------------------------------
#psi4
#
memory 32 gb

molecule  {
0 1
  N       -0.2981960    -1.1935180     0.0024800
  C       -0.8989770     0.0078150    -0.0038810
  C       -0.1842220     1.2188990    -0.0098900
  C        1.2026080     1.1704100     0.0047310
  C        1.8420610    -0.0727780     0.0063770
  C        1.0476300    -1.2144680     0.0024310
  H       -0.7133720     2.1685100    -0.0287310
  H        1.7800030     2.0919190     0.0058730
  H        2.9246290    -0.1531180     0.0135510
  H        1.4978930    -2.2058730     0.0048570
  N       -2.2904670    -0.0069960    -0.0835250
  H       -2.8003566     0.8306418     0.4444406
  H       -2.6685370    -0.9125390     0.1761140
units angstrom
no_reorient  #important for SAPT in psi4, default
symmetry c1  #important for SAPT in psi4, default
}

set PROPERTIES_ORIGIN ["COM"]
properties('MP2/aug-cc-pvtz', properties = ['dipole'])
--------------------------------------------------------------------------

    Molecular point group: c1
  Charge       = 0
  Multiplicity = 1
  Basis Set: AUG-CC-PVTZ
    Blend: AUG-CC-PVTZ
  Basis Set: (AUG-CC-PVTZ AUX)
    Blend: AUG-CC-PVTZ-JKFIT

    Orbital Energies [Eh]
    ---------------------

    Doubly Occupied:

       1A    -15.578527     2A    -15.554433     3A    -11.316531
       4A    -11.275786     5A    -11.259534     6A    -11.233093
       7A    -11.227115     8A     -1.275248     9A     -1.174679
      10A     -1.082648    11A     -1.002775    12A     -0.860733
      13A     -0.834734    14A     -0.711524    15A     -0.691887
      16A     -0.656872    17A     -0.610585    18A     -0.603544
      19A     -0.565521    20A     -0.561536    21A     -0.525685
      22A     -0.459176    23A     -0.419046    24A     -0.380242
      25A     -0.311222

  @DF-RHF Final Energy:  -301.83285746077070

   => Energetics <=

    Nuclear Repulsion Energy =            274.3284553009498268
    One-Electron Energy =                -951.9772781405262094
    Two-Electron Energy =                 375.8159653788056858
    Total Energy =                       -301.8328574607706969
  Basis Set: (AUG-CC-PVTZ AUX)
    Blend: AUG-CC-PVTZ-RI
    Molecular point group: c1

    Geometry (in Angstrom), charge = 0, multiplicity = 1:

       Center              X                  Y                   Z               Mass
    ------------   -----------------  -----------------  -----------------  -----------------
         N           -0.296924147893    -1.175883582297     0.007974103907    14.003074004430
         C           -0.897705147893     0.025449417703     0.001613103907    12.000000000000
         C           -0.182950147893     1.236533417703    -0.004395896093    12.000000000000
         C            1.203879852107     1.188044417703     0.010225103907    12.000000000000
         C            1.843332852107    -0.055143582297     0.011871103907    12.000000000000
         C            1.048901852107    -1.196833582297     0.007925103907    12.000000000000
         H           -0.712100147893     2.186144417703    -0.023236896093     1.007825032230
         H            1.781274852107     2.109553417703     0.011367103907     1.007825032230
         H            2.925900852107    -0.135483582297     0.019045103907     1.007825032230
         H            1.499164852107    -2.188238582297     0.010351103907     1.007825032230
         N           -2.289195147893     0.010638417703    -0.078030896093    14.003074004430
         H           -2.799084747893     0.848276217703     0.449934703907     1.007825032230
         H           -2.667265147893    -0.894904582297     0.181608103907     1.007825032230

  Basis Set: AUG-CC-PVTZ
    Blend: AUG-CC-PVTZ
  Basis Set: (AUG-CC-PVTZ AUX)
    Blend: AUG-CC-PVTZ-JKFIT
	 Reference Energy          =    -301.8328574607706969 [Eh]
	 Singles Energy            =      -0.0000000000000000 [Eh]
	 Same-Spin Energy          =      -0.3288898842299043 [Eh]
	 Opposite-Spin Energy      =      -1.0148683710220054 [Eh]
	 Correlation Energy        =      -1.3437582552519096 [Eh]
	 Total Energy              =    -303.1766157160225816 [Eh]

	 ================> DF-SCS-MP2 Energies <==================
	-----------------------------------------------------------
	 SCS Same-Spin Scale       =       0.3333333333333333 [-]
	 SCS Opposite-Spin Scale   =       1.2000000000000000 [-]
	 SCS Same-Spin Energy      =      -0.1096299614099681 [Eh]
	 SCS Opposite-Spin Energy  =      -1.2178420452264065 [Eh]
	 SCS Correlation Energy    =      -1.3274720066363745 [Eh]
	 SCS Total Energy          =    -303.1603294674070526 [Eh]
	-----------------------------------------------------------

  Dipole Moment: [D]
     X:    -0.0075      Y:     1.7961      Z:     1.0261     Total:     2.0685

*** Psi4 exiting successfully. Buy a developer a beer!
