                               Psi4 1.3.2 release

  ==> Input File <==

--------------------------------------------------------------------------
#psi4
#
memory 32 gb

molecule  {
0 1
  N       -0.3404036    -1.2137262    -0.0003943
  C       -0.8989770     0.0078150    -0.0038810
  C       -0.1842220     1.2188990    -0.0098900
  C        1.2026080     1.1704100     0.0047310
  C        1.8420610    -0.0727780     0.0063770
  C        1.0476300    -1.2144680     0.0024310
  H       -0.7133720     2.1685100    -0.0287310
  H        1.7800030     2.0919190     0.0058730
  H        2.9246290    -0.1531180     0.0135510
  H        1.4978930    -2.2058730     0.0048570
  N       -2.2904670    -0.0069960    -0.0835250
  H       -2.7545740     0.7554310     0.3970350
  H       -2.6685370    -0.9125390     0.1761140
units angstrom
no_reorient  #important for SAPT in psi4, default
symmetry c1  #important for SAPT in psi4, default
}

set PROPERTIES_ORIGIN ["COM"]
properties('MP2/aug-cc-pvtz', properties = ['dipole'])
--------------------------------------------------------------------------

    Molecular point group: c1
  Charge       = 0
  Multiplicity = 1
  Basis Set: AUG-CC-PVTZ
    Blend: AUG-CC-PVTZ
  Basis Set: (AUG-CC-PVTZ AUX)
    Blend: AUG-CC-PVTZ-JKFIT

    Orbital Energies [Eh]
    ---------------------

    Doubly Occupied:

       1A    -15.567053     2A    -15.558880     3A    -11.316138
       4A    -11.280573     5A    -11.262090     6A    -11.234933
       7A    -11.229636     8A     -1.273598     9A     -1.176051
      10A     -1.084121    11A     -1.004969    12A     -0.863753
      13A     -0.832991    14A     -0.714799    15A     -0.697185
      16A     -0.660655    17A     -0.618330    18A     -0.603208
      19A     -0.566283    20A     -0.559630    21A     -0.523242
      22A     -0.458074    23A     -0.426774    24A     -0.377601
      25A     -0.314006

  @DF-RHF Final Energy:  -301.83888349213248

   => Energetics <=

    Nuclear Repulsion Energy =            274.0483741428573694
    One-Electron Energy =                -951.3653722861320148
    Two-Electron Energy =                 375.4781146511421639
    Total Energy =                       -301.8388834921324815
  Basis Set: (AUG-CC-PVTZ AUX)
    Blend: AUG-CC-PVTZ-RI
    Molecular point group: c1

    Geometry (in Angstrom), charge = 0, multiplicity = 1:

       Center              X                  Y                   Z               Mass
    ------------   -----------------  -----------------  -----------------  -----------------
         N           -0.333338262017    -1.192277168490     0.006035717637    14.003074004430
         C           -0.891911662017     0.029264031510     0.002549017637    12.000000000000
         C           -0.177156662017     1.240348031510    -0.003459982363    12.000000000000
         C            1.209673337983     1.191859031510     0.011161017637    12.000000000000
         C            1.849126337983    -0.051328968490     0.012807017637    12.000000000000
         C            1.054695337983    -1.193018968490     0.008861017637    12.000000000000
         H           -0.706306662017     2.189959031510    -0.022300982363     1.007825032230
         H            1.787068337983     2.113368031510     0.012303017637     1.007825032230
         H            2.931694337983    -0.131668968490     0.019981017637     1.007825032230
         H            1.504958337983    -2.184423968490     0.011287017637     1.007825032230
         N           -2.283401662017     0.014453031510    -0.077094982363    14.003074004430
         H           -2.747508662017     0.776880031510     0.403465017637     1.007825032230
         H           -2.661471662017    -0.891089968490     0.182544017637     1.007825032230

  Basis Set: AUG-CC-PVTZ
    Blend: AUG-CC-PVTZ
  Basis Set: (AUG-CC-PVTZ AUX)
    Blend: AUG-CC-PVTZ-JKFIT
	 Reference Energy          =    -301.8388834921324815 [Eh]
	 Singles Energy            =      -0.0000000000000000 [Eh]
	 Same-Spin Energy          =      -0.3285077454530274 [Eh]
	 Opposite-Spin Energy      =      -1.0143983553205380 [Eh]
	 Correlation Energy        =      -1.3429061007735654 [Eh]
	 Total Energy              =    -303.1817895929060569 [Eh]

	 ================> DF-SCS-MP2 Energies <==================
	-----------------------------------------------------------
	 SCS Same-Spin Scale       =       0.3333333333333333 [-]
	 SCS Opposite-Spin Scale   =       1.2000000000000000 [-]
	 SCS Same-Spin Energy      =      -0.1095025818176758 [Eh]
	 SCS Opposite-Spin Energy  =      -1.2172780263846457 [Eh]
	 SCS Correlation Energy    =      -1.3267806082023215 [Eh]
	 SCS Total Energy          =    -303.1656641003348227 [Eh]
	-----------------------------------------------------------

  Dipole Moment: [D]
     X:     0.1295      Y:     1.8166      Z:     1.0063     Total:     2.0808

*** Psi4 exiting successfully. Buy a developer a beer!
