                               Psi4 1.3.2 release

  ==> Input File <==

--------------------------------------------------------------------------
#psi4
#
memory 32 gb

molecule  {
0 1
  N       -0.1761661    -1.1242190     0.0110425
  C       -0.8989770     0.0078150    -0.0038810
  C       -0.1842220     1.2188990    -0.0098900
  C        1.2026080     1.1704100     0.0047310
  C        1.8420610    -0.0727780     0.0063770
  C        1.0476300    -1.2144680     0.0024310
  H       -0.7133720     2.1685100    -0.0287310
  H        1.7800030     2.0919190     0.0058730
  H        2.9246290    -0.1531180     0.0135510
  H        1.4978930    -2.2058730     0.0048570
  N       -2.2904670    -0.0069960    -0.0835250
  H       -2.7545740     0.7554310     0.3970350
  H       -2.6685370    -0.9125390     0.1761140
units angstrom
no_reorient  #important for SAPT in psi4, default
symmetry c1  #important for SAPT in psi4, default
}

set PROPERTIES_ORIGIN ["COM"]
properties('MP2/aug-cc-pvtz', properties = ['dipole'])
--------------------------------------------------------------------------

    Molecular point group: c1
  Charge       = 0
  Multiplicity = 1
  Basis Set: AUG-CC-PVTZ
    Blend: AUG-CC-PVTZ
  Basis Set: (AUG-CC-PVTZ AUX)
    Blend: AUG-CC-PVTZ-JKFIT

    Orbital Energies [Eh]
    ---------------------

    Doubly Occupied:

       1A    -15.575245     2A    -15.539535     3A    -11.318758
       4A    -11.260192     5A    -11.252621     6A    -11.229303
       7A    -11.220224     8A     -1.296420     9A     -1.203784
      10A     -1.079296    11A     -1.008522    12A     -0.861787
      13A     -0.844765    14A     -0.722881    15A     -0.703800
      16A     -0.659015    17A     -0.633644    18A     -0.606369
      19A     -0.572753    20A     -0.566441    21A     -0.530348
      22A     -0.469919    23A     -0.391522    24A     -0.387423
      25A     -0.305953

  @DF-RHF Final Energy:  -301.82908578571238

   => Energetics <=

    Nuclear Repulsion Energy =            277.3541035375784531
    One-Electron Energy =                -957.8853393462457007
    Two-Electron Energy =                 378.7021500229548678
    Total Energy =                       -301.8290857857123797
  Basis Set: (AUG-CC-PVTZ AUX)
    Blend: AUG-CC-PVTZ-RI
    Molecular point group: c1

    Geometry (in Angstrom), charge = 0, multiplicity = 1:

       Center              X                  Y                   Z               Mass
    ------------   -----------------  -----------------  -----------------  -----------------
         N           -0.193553224624    -1.116096227480     0.015769752286    14.003074004430
         C           -0.916364124624     0.015937772520     0.000846252286    12.000000000000
         C           -0.201609124624     1.227021772520    -0.005162747714    12.000000000000
         C            1.185220875376     1.178532772520     0.009458252286    12.000000000000
         C            1.824673875376    -0.064655227480     0.011104252286    12.000000000000
         C            1.030242875376    -1.206345227480     0.007158252286    12.000000000000
         H           -0.730759124624     2.176632772520    -0.024003747714     1.007825032230
         H            1.762615875376     2.100041772520     0.010600252286     1.007825032230
         H            2.907241875376    -0.144995227480     0.018278252286     1.007825032230
         H            1.480505875376    -2.197750227480     0.009584252286     1.007825032230
         N           -2.307854124624     0.001126772520    -0.078797747714    14.003074004430
         H           -2.771961124624     0.763553772520     0.401762252286     1.007825032230
         H           -2.685924124624    -0.904416227480     0.180841252286     1.007825032230

  Basis Set: AUG-CC-PVTZ
    Blend: AUG-CC-PVTZ
  Basis Set: (AUG-CC-PVTZ AUX)
    Blend: AUG-CC-PVTZ-JKFIT
	 Reference Energy          =    -301.8290857857123797 [Eh]
	 Singles Energy            =      -0.0000000000000000 [Eh]
	 Same-Spin Energy          =      -0.3281664028350006 [Eh]
	 Opposite-Spin Energy      =      -1.0107970583631767 [Eh]
	 Correlation Energy        =      -1.3389634611981773 [Eh]
	 Total Energy              =    -303.1680492469105843 [Eh]

	 ================> DF-SCS-MP2 Energies <==================
	-----------------------------------------------------------
	 SCS Same-Spin Scale       =       0.3333333333333333 [-]
	 SCS Opposite-Spin Scale   =       1.2000000000000000 [-]
	 SCS Same-Spin Energy      =      -0.1093888009450002 [Eh]
	 SCS Opposite-Spin Energy  =      -1.2129564700358120 [Eh]
	 SCS Correlation Energy    =      -1.3223452709808121 [Eh]
	 SCS Total Energy          =    -303.1514310566931840 [Eh]
	-----------------------------------------------------------

  Dipole Moment: [D]
     X:    -0.3531      Y:     1.5176      Z:     0.9941     Total:     1.8482

*** Psi4 exiting successfully. Buy a developer a beer!
