                               Psi4 1.3.2 release

  ==> Input File <==

--------------------------------------------------------------------------
#psi4
#
memory 32 gb

molecule  {
-1 1
  O       -1.4366360    -1.1870470     0.0571230
  O       -1.4476160     1.0691130    -0.2107340
  N        1.2636070     1.2939420     0.0706720
  C        0.5520622     0.0475757     0.4048627
  C        1.4068670    -1.1350240    -0.2248910
  C       -0.8878250    -0.0451320     0.0288030
  H        0.6585810    -0.1007720     1.4894850
  H        2.4544500    -1.1027320     0.0899700
  H        0.9700140    -2.0919800     0.0583780
  H        1.3764410    -1.0627810    -1.3188240
  H        0.4803423     1.9410146     0.1845267
  H        1.4338170     1.2887330    -0.9390950
units angstrom
no_reorient  #important for SAPT in psi4, default
symmetry c1  #important for SAPT in psi4, default
}

set PROPERTIES_ORIGIN ["COM"]
properties('MP2/aug-cc-pvtz', properties = ['dipole'])
--------------------------------------------------------------------------

    Molecular point group: c1
  Charge       = -1
  Multiplicity = 1
  Basis Set: AUG-CC-PVTZ
    Blend: AUG-CC-PVTZ
  Basis Set: (AUG-CC-PVTZ AUX)
    Blend: AUG-CC-PVTZ-JKFIT

    Orbital Energies [Eh]
    ---------------------

    Doubly Occupied:

       1A    -20.302640     2A    -20.299484     3A    -15.386790
       4A    -11.140129     5A    -11.095123     6A    -11.072494
       7A     -1.173852     8A     -1.071594     9A     -1.023082
      10A     -0.830922    11A     -0.706256    12A     -0.545222
      13A     -0.498327    14A     -0.460636    15A     -0.442721
      16A     -0.403080    17A     -0.389488    18A     -0.373886
      19A     -0.336075    20A     -0.307551    21A     -0.279909
      22A     -0.218031    23A     -0.205024    24A     -0.200051

  @DF-RHF Final Energy:  -321.42124741441569

   => Energetics <=

    Nuclear Repulsion Energy =            238.4081257604355244
    One-Electron Energy =                -922.1340107879989318
    Two-Electron Energy =                 362.3046376131477473
    Total Energy =                       -321.4212474144156886
  Basis Set: (AUG-CC-PVTZ AUX)
    Blend: AUG-CC-PVTZ-RI
    Molecular point group: c1

    Geometry (in Angstrom), charge = -1, multiplicity = 1:

       Center              X                  Y                   Z               Mass
    ------------   -----------------  -----------------  -----------------  -----------------
         O           -1.344014452856    -1.204135961180     0.050319725943    15.994914619570
         O           -1.354994452856     1.052024038820    -0.217537274057    15.994914619570
         N            1.356228547144     1.276853038820     0.063868725943    14.003074004430
         C            0.644683747144     0.030486738820     0.398059425943    12.000000000000
         C            1.499488547144    -1.152112961180    -0.231694274057    12.000000000000
         C           -0.795203452856    -0.062220961180     0.021999725943    12.000000000000
         H            0.751202547144    -0.117860961180     1.482681725943     1.007825032230
         H            2.547071547144    -1.119820961180     0.083166725943     1.007825032230
         H            1.062635547144    -2.109068961180     0.051574725943     1.007825032230
         H            1.469062547144    -1.079869961180    -1.325627274057     1.007825032230
         H            0.572963847144     1.923925638820     0.177723425943     1.007825032230
         H            1.526438547144     1.271644038820    -0.945898274057     1.007825032230

  Basis Set: AUG-CC-PVTZ
    Blend: AUG-CC-PVTZ
  Basis Set: (AUG-CC-PVTZ AUX)
    Blend: AUG-CC-PVTZ-JKFIT
	 Reference Energy          =    -321.4212474144156886 [Eh]
	 Singles Energy            =      -0.0000000000000000 [Eh]
	 Same-Spin Energy          =      -0.3258945815659233 [Eh]
	 Opposite-Spin Energy      =      -1.0074840570846979 [Eh]
	 Correlation Energy        =      -1.3333786386506212 [Eh]
	 Total Energy              =    -322.7546260530663176 [Eh]

	 ================> DF-SCS-MP2 Energies <==================
	-----------------------------------------------------------
	 SCS Same-Spin Scale       =       0.3333333333333333 [-]
	 SCS Opposite-Spin Scale   =       1.2000000000000000 [-]
	 SCS Same-Spin Energy      =      -0.1086315271886411 [Eh]
	 SCS Opposite-Spin Energy  =      -1.2089808685016374 [Eh]
	 SCS Correlation Energy    =      -1.3176123956902785 [Eh]
	 SCS Total Energy          =    -322.7388598101059642 [Eh]
	-----------------------------------------------------------

  Dipole Moment: [D]
     X:     4.3854      Y:    -0.0850      Z:    -0.1621     Total:     4.3892

*** Psi4 exiting successfully. Buy a developer a beer!
