                               Psi4 1.3.2 release

  ==> Input File <==

--------------------------------------------------------------------------
#psi4
#
memory 32 gb

molecule  {
-1 1
  O       -1.4366360    -1.1870470     0.0571230
  O       -1.4476160     1.0691130    -0.2107340
  N        1.2636070     1.2939420     0.0706720
  C        0.5738279     0.0344045     0.4010938
  C        1.4068670    -1.1350240    -0.2248910
  C       -0.8878250    -0.0451320     0.0288030
  H        0.6585810    -0.1007720     1.4894850
  H        2.4544500    -1.1027320     0.0899700
  H        0.9700140    -2.0919800     0.0583780
  H        1.3764410    -1.0627810    -1.3188240
  H        0.4910976     1.9545593     0.1801414
  H        1.4338170     1.2887330    -0.9390950
units angstrom
no_reorient  #important for SAPT in psi4, default
symmetry c1  #important for SAPT in psi4, default
}

set PROPERTIES_ORIGIN ["COM"]
properties('MP2/aug-cc-pvtz', properties = ['dipole'])
--------------------------------------------------------------------------

    Molecular point group: c1
  Charge       = -1
  Multiplicity = 1
  Basis Set: AUG-CC-PVTZ
    Blend: AUG-CC-PVTZ
  Basis Set: (AUG-CC-PVTZ AUX)
    Blend: AUG-CC-PVTZ-JKFIT

    Orbital Energies [Eh]
    ---------------------

    Doubly Occupied:

       1A    -20.302454     2A    -20.299077     3A    -15.386396
       4A    -11.140538     5A    -11.094381     6A    -11.072183
       7A     -1.172518     8A     -1.070754     9A     -1.022509
      10A     -0.834364    11A     -0.702249    12A     -0.543075
      13A     -0.499161    14A     -0.460623    15A     -0.442328
      16A     -0.401947    17A     -0.389097    18A     -0.373055
      19A     -0.339203    20A     -0.312419    21A     -0.279876
      22A     -0.217176    23A     -0.202809    24A     -0.198969

  @DF-RHF Final Energy:  -321.42518178517770

   => Energetics <=

    Nuclear Repulsion Energy =            238.2486698946557055
    One-Electron Energy =                -921.8333848521834852
    Two-Electron Energy =                 362.1595331723501090
    Total Energy =                       -321.4251817851776991
  Basis Set: (AUG-CC-PVTZ AUX)
    Blend: AUG-CC-PVTZ-RI
    Molecular point group: c1

    Geometry (in Angstrom), charge = -1, multiplicity = 1:

       Center              X                  Y                   Z               Mass
    ------------   -----------------  -----------------  -----------------  -----------------
         O           -1.347104279224    -1.202495752721     0.050883634368    15.994914619570
         O           -1.358084279224     1.053664247279    -0.216973365632    15.994914619570
         N            1.353138720776     1.278493247279     0.064432634368    14.003074004430
         C            0.663359620776     0.018955747279     0.394854434368    12.000000000000
         C            1.496398720776    -1.150472752721    -0.231130365632    12.000000000000
         C           -0.798293279224    -0.060580752721     0.022563634368    12.000000000000
         H            0.748112720776    -0.116220752721     1.483245634368     1.007825032230
         H            2.543981720776    -1.118180752721     0.083730634368     1.007825032230
         H            1.059545720776    -2.107428752721     0.052138634368     1.007825032230
         H            1.465972720776    -1.078229752721    -1.325063365632     1.007825032230
         H            0.580629320776     1.939110547279     0.173902034368     1.007825032230
         H            1.523348720776     1.273284247279    -0.945334365632     1.007825032230

  Basis Set: AUG-CC-PVTZ
    Blend: AUG-CC-PVTZ
  Basis Set: (AUG-CC-PVTZ AUX)
    Blend: AUG-CC-PVTZ-JKFIT
	 Reference Energy          =    -321.4251817851776991 [Eh]
	 Singles Energy            =      -0.0000000000000000 [Eh]
	 Same-Spin Energy          =      -0.3257046691485960 [Eh]
	 Opposite-Spin Energy      =      -1.0070389523649990 [Eh]
	 Correlation Energy        =      -1.3327436215135950 [Eh]
	 Total Energy              =    -322.7579254066912995 [Eh]

	 ================> DF-SCS-MP2 Energies <==================
	-----------------------------------------------------------
	 SCS Same-Spin Scale       =       0.3333333333333333 [-]
	 SCS Opposite-Spin Scale   =       1.2000000000000000 [-]
	 SCS Same-Spin Energy      =      -0.1085682230495320 [Eh]
	 SCS Opposite-Spin Energy  =      -1.2084467428379988 [Eh]
	 SCS Correlation Energy    =      -1.3170149658875308 [Eh]
	 SCS Total Energy          =    -322.7421967510652507 [Eh]
	-----------------------------------------------------------

  Dipole Moment: [D]
     X:     4.4102      Y:    -0.1031      Z:    -0.1783     Total:     4.4150

*** Psi4 exiting successfully. Buy a developer a beer!
