                               Psi4 1.3.2 release

  ==> Input File <==

--------------------------------------------------------------------------
#psi4
#
memory 32 gb

molecule  {
-1 1
  O       -1.4366360    -1.1870470     0.0571230
  O       -1.4476160     1.0691130    -0.2107340
  N        1.2185591     1.3110294     0.0526654
  C        0.6179830     0.0092170     0.3932550
  C        1.4068670    -1.1350240    -0.2248910
  C       -0.8842421     0.0056431     0.0104447
  H        0.6585810    -0.1007720     1.4894850
  H        2.4544500    -1.1027320     0.0899700
  H        0.9700140    -2.0919800     0.0583780
  H        1.3764410    -1.0627810    -1.3188240
  H        0.5133110     1.9810410     0.1712720
  H        1.4338170     1.2887330    -0.9390950
units angstrom
no_reorient  #important for SAPT in psi4, default
symmetry c1  #important for SAPT in psi4, default
}

set PROPERTIES_ORIGIN ["COM"]
properties('MP2/aug-cc-pvtz', properties = ['dipole'])
--------------------------------------------------------------------------

    Molecular point group: c1
  Charge       = -1
  Multiplicity = 1
  Basis Set: AUG-CC-PVTZ
    Blend: AUG-CC-PVTZ
  Basis Set: (AUG-CC-PVTZ AUX)
    Blend: AUG-CC-PVTZ-JKFIT

    Orbital Energies [Eh]
    ---------------------

    Doubly Occupied:

       1A    -20.312663     2A    -20.284765     3A    -15.379118
       4A    -11.138849     5A    -11.093691     6A    -11.071793
       7A     -1.182098     8A     -1.055045     9A     -1.027260
      10A     -0.843282    11A     -0.695000    12A     -0.538503
      13A     -0.515073    14A     -0.463652    15A     -0.443484
      16A     -0.398283    17A     -0.389679    18A     -0.373949
      19A     -0.353946    20A     -0.321665    21A     -0.271872
      22A     -0.216152    23A     -0.195220    24A     -0.186875

  @DF-RHF Final Energy:  -321.42387273866564

   => Energetics <=

    Nuclear Repulsion Energy =            238.4469541419350946
    One-Electron Energy =                -922.2378189231293391
    Two-Electron Energy =                 362.3669920425286364
    Total Energy =                       -321.4238727386656365
  Basis Set: (AUG-CC-PVTZ AUX)
    Blend: AUG-CC-PVTZ-RI
    Molecular point group: c1

    Geometry (in Angstrom), charge = -1, multiplicity = 1:

       Center              X                  Y                   Z               Mass
    ------------   -----------------  -----------------  -----------------  -----------------
         O           -1.346700304711    -1.209004353367     0.057419898722    15.994914619570
         O           -1.357680304711     1.047155646633    -0.210437101278    15.994914619570
         N            1.308494795289     1.289072046633     0.052962298722    14.003074004430
         C            0.707918695289    -0.012740353367     0.393551898722    12.000000000000
         C            1.496802695289    -1.156981353367    -0.224594101278    12.000000000000
         C           -0.794306404711    -0.016314253367     0.010741598722    12.000000000000
         H            0.748516695289    -0.122729353367     1.489781898722     1.007825032230
         H            2.544385695289    -1.124689353367     0.090266898722     1.007825032230
         H            1.059949695289    -2.113937353367     0.058674898722     1.007825032230
         H            1.466376695289    -1.084738353367    -1.318527101278     1.007825032230
         H            0.603246695289     1.959083646633     0.171568898722     1.007825032230
         H            1.523752695289     1.266775646633    -0.938798101278     1.007825032230

  Basis Set: AUG-CC-PVTZ
    Blend: AUG-CC-PVTZ
  Basis Set: (AUG-CC-PVTZ AUX)
    Blend: AUG-CC-PVTZ-JKFIT
	 Reference Energy          =    -321.4238727386656365 [Eh]
	 Singles Energy            =      -0.0000000000000000 [Eh]
	 Same-Spin Energy          =      -0.3251128517196205 [Eh]
	 Opposite-Spin Energy      =      -1.0054483021486271 [Eh]
	 Correlation Energy        =      -1.3305611538682476 [Eh]
	 Total Energy              =    -322.7544338925338820 [Eh]

	 ================> DF-SCS-MP2 Energies <==================
	-----------------------------------------------------------
	 SCS Same-Spin Scale       =       0.3333333333333333 [-]
	 SCS Opposite-Spin Scale   =       1.2000000000000000 [-]
	 SCS Same-Spin Energy      =      -0.1083709505732068 [Eh]
	 SCS Opposite-Spin Energy  =      -1.2065379625783526 [Eh]
	 SCS Correlation Energy    =      -1.3149089131515594 [Eh]
	 SCS Total Energy          =    -322.7387816518171917 [Eh]
	-----------------------------------------------------------

  Dipole Moment: [D]
     X:     4.5576      Y:     0.4105      Z:    -0.2727     Total:     4.5842

*** Psi4 exiting successfully. Buy a developer a beer!
