                               Psi4 1.3.2 release

  ==> Input File <==

--------------------------------------------------------------------------
#psi4
#
memory 32 gb

molecule  {
-1 1
  O       -1.4366360    -1.1870470     0.0571230
  O       -1.4476160     1.0691130    -0.2107340
  N        1.2636070     1.2939420     0.0706720
  C        0.6179830     0.0092170     0.3932550
  C        1.4068670    -1.1350240    -0.2248910
  C       -0.8993441    -0.0512217     0.0813216
  H        0.6201768    -0.1031637     1.4899919
  H        2.4544500    -1.1027320     0.0899700
  H        0.9700140    -2.0919800     0.0583780
  H        1.3764410    -1.0627810    -1.3188240
  H        0.5133110     1.9810410     0.1712720
  H        1.4338170     1.2887330    -0.9390950
units angstrom
no_reorient  #important for SAPT in psi4, default
symmetry c1  #important for SAPT in psi4, default
}

set PROPERTIES_ORIGIN ["COM"]
properties('MP2/aug-cc-pvtz', properties = ['dipole'])
--------------------------------------------------------------------------

    Molecular point group: c1
  Charge       = -1
  Multiplicity = 1
  Basis Set: AUG-CC-PVTZ
    Blend: AUG-CC-PVTZ
  Basis Set: (AUG-CC-PVTZ AUX)
    Blend: AUG-CC-PVTZ-JKFIT

    Orbital Energies [Eh]
    ---------------------

    Doubly Occupied:

       1A    -20.300960     2A    -20.299184     3A    -15.386080
       4A    -11.141240     5A    -11.093217     6A    -11.072215
       7A     -1.170207     8A     -1.068993     9A     -1.020660
      10A     -0.842161    11A     -0.697102    12A     -0.535166
      13A     -0.501610    14A     -0.460325    15A     -0.442048
      16A     -0.400211    17A     -0.388051    18A     -0.372956
      19A     -0.348011    20A     -0.319174    21A     -0.279718
      22A     -0.213968    23A     -0.200200    24A     -0.192932

  @DF-RHF Final Energy:  -321.42672687682909

   => Energetics <=

    Nuclear Repulsion Energy =            237.8637653818830415
    One-Electron Energy =                -921.0882016728621693
    Two-Electron Energy =                 361.7977094141500629
    Total Energy =                       -321.4267268768290933
  Basis Set: (AUG-CC-PVTZ AUX)
    Blend: AUG-CC-PVTZ-RI
    Molecular point group: c1

    Geometry (in Angstrom), charge = -1, multiplicity = 1:

       Center              X                  Y                   Z               Mass
    ------------   -----------------  -----------------  -----------------  -----------------
         O           -1.351367286167    -1.198508377899     0.044889421037    15.994914619570
         O           -1.362347286167     1.057651622101    -0.222967578963    15.994914619570
         N            1.348875713833     1.282480622101     0.058438421037    14.003074004430
         C            0.703251713833    -0.002244377899     0.381021421037    12.000000000000
         C            1.492135713833    -1.146485377899    -0.237124578963    12.000000000000
         C           -0.814075386167    -0.062683077899     0.069088021037    12.000000000000
         H            0.705445513833    -0.114625077899     1.477758321037     1.007825032230
         H            2.539718713833    -1.114193377899     0.077736421037     1.007825032230
         H            1.055282713833    -2.103441377899     0.046144421037     1.007825032230
         H            1.461709713833    -1.074242377899    -1.331057578963     1.007825032230
         H            0.598579713833     1.969579622101     0.159038421037     1.007825032230
         H            1.519085713833     1.277271622101    -0.951328578963     1.007825032230

  Basis Set: AUG-CC-PVTZ
    Blend: AUG-CC-PVTZ
  Basis Set: (AUG-CC-PVTZ AUX)
    Blend: AUG-CC-PVTZ-JKFIT
	 Reference Energy          =    -321.4267268768290933 [Eh]
	 Singles Energy            =      -0.0000000000000000 [Eh]
	 Same-Spin Energy          =      -0.3256641837943448 [Eh]
	 Opposite-Spin Energy      =      -1.0065717845162230 [Eh]
	 Correlation Energy        =      -1.3322359683105678 [Eh]
	 Total Energy              =    -322.7589628451396493 [Eh]

	 ================> DF-SCS-MP2 Energies <==================
	-----------------------------------------------------------
	 SCS Same-Spin Scale       =       0.3333333333333333 [-]
	 SCS Opposite-Spin Scale   =       1.2000000000000000 [-]
	 SCS Same-Spin Energy      =      -0.1085547279314483 [Eh]
	 SCS Opposite-Spin Energy  =      -1.2078861414194675 [Eh]
	 SCS Correlation Energy    =      -1.3164408693509158 [Eh]
	 SCS Total Energy          =    -322.7431677461800064 [Eh]
	-----------------------------------------------------------

  Dipole Moment: [D]
     X:     4.4456      Y:    -0.2519      Z:    -0.1763     Total:     4.4563

*** Psi4 exiting successfully. Buy a developer a beer!
