                               Psi4 1.3.2 release

  ==> Input File <==

--------------------------------------------------------------------------
#psi4
#
memory 32 gb

molecule  {
-1 1
  O       -1.4557821    -1.1777815     0.0510592
  O       -1.4476160     1.0691130    -0.2107340
  N        1.2636070     1.2939420     0.0706720
  C        0.6177199     0.0359881     0.3893453
  C        1.4068670    -1.1350240    -0.2248910
  C       -0.8878250    -0.0451320     0.0288030
  H        0.6585810    -0.1007720     1.4894850
  H        2.4544500    -1.1027320     0.0899700
  H        0.9700140    -2.0919800     0.0583780
  H        1.3764410    -1.0627810    -1.3188240
  H        0.5133110     1.9810410     0.1712720
  H        1.4338170     1.2887330    -0.9390950
units angstrom
no_reorient  #important for SAPT in psi4, default
symmetry c1  #important for SAPT in psi4, default
}

set PROPERTIES_ORIGIN ["COM"]
properties('MP2/aug-cc-pvtz', properties = ['dipole'])
--------------------------------------------------------------------------

    Molecular point group: c1
  Charge       = -1
  Multiplicity = 1
  Basis Set: AUG-CC-PVTZ
    Blend: AUG-CC-PVTZ
  Basis Set: (AUG-CC-PVTZ AUX)
    Blend: AUG-CC-PVTZ-JKFIT

    Orbital Energies [Eh]
    ---------------------

    Doubly Occupied:

       1A    -20.300307     2A    -20.297912     3A    -15.387477
       4A    -11.140412     5A    -11.094845     6A    -11.072172
       7A     -1.169864     8A     -1.067632     9A     -1.029039
      10A     -0.838871    11A     -0.694750    12A     -0.540231
      13A     -0.504266    14A     -0.459922    15A     -0.443801
      16A     -0.399710    17A     -0.387593    18A     -0.370560
      19A     -0.349923    20A     -0.315914    21A     -0.280685
      22A     -0.213702    23A     -0.199234    24A     -0.194291

  @DF-RHF Final Energy:  -321.42755490170094

   => Energetics <=

    Nuclear Repulsion Energy =            237.9293329241608603
    One-Electron Energy =                -921.2075496428483348
    Two-Electron Energy =                 361.8506618169864737
    Total Energy =                       -321.4275549017009439
  Basis Set: (AUG-CC-PVTZ AUX)
    Blend: AUG-CC-PVTZ-RI
    Molecular point group: c1

    Geometry (in Angstrom), charge = -1, multiplicity = 1:

       Center              X                  Y                   Z               Mass
    ------------   -----------------  -----------------  -----------------  -----------------
         O           -1.369008800283    -1.195432584893     0.047624368417    15.994914619570
         O           -1.360842700283     1.051461915107    -0.214168831583    15.994914619570
         N            1.350380299717     1.276290915107     0.067237168417    14.003074004430
         C            0.704493199717     0.018337015107     0.385910468417    12.000000000000
         C            1.493640299717    -1.152675084893    -0.228325831583    12.000000000000
         C           -0.801051700283    -0.062783084893     0.025368168417    12.000000000000
         H            0.745354299717    -0.118423084893     1.486050168417     1.007825032230
         H            2.541223299717    -1.120383084893     0.086535168417     1.007825032230
         H            1.056787299717    -2.109631084893     0.054943168417     1.007825032230
         H            1.463214299717    -1.080432084893    -1.322258831583     1.007825032230
         H            0.600084299717     1.963389915107     0.167837168417     1.007825032230
         H            1.520590299717     1.271081915107    -0.942529831583     1.007825032230

  Basis Set: AUG-CC-PVTZ
    Blend: AUG-CC-PVTZ
  Basis Set: (AUG-CC-PVTZ AUX)
    Blend: AUG-CC-PVTZ-JKFIT
	 Reference Energy          =    -321.4275549017009439 [Eh]
	 Singles Energy            =      -0.0000000000000000 [Eh]
	 Same-Spin Energy          =      -0.3255897910231172 [Eh]
	 Opposite-Spin Energy      =      -1.0064328466227859 [Eh]
	 Correlation Energy        =      -1.3320226376459030 [Eh]
	 Total Energy              =    -322.7595775393468216 [Eh]

	 ================> DF-SCS-MP2 Energies <==================
	-----------------------------------------------------------
	 SCS Same-Spin Scale       =       0.3333333333333333 [-]
	 SCS Opposite-Spin Scale   =       1.2000000000000000 [-]
	 SCS Same-Spin Energy      =      -0.1085299303410391 [Eh]
	 SCS Opposite-Spin Energy  =      -1.2077194159473430 [Eh]
	 SCS Correlation Energy    =      -1.3162493462883820 [Eh]
	 SCS Total Energy          =    -322.7438042479893170 [Eh]
	-----------------------------------------------------------

  Dipole Moment: [D]
     X:     4.5309      Y:    -0.0631      Z:    -0.2134     Total:     4.5363

*** Psi4 exiting successfully. Buy a developer a beer!
