                               Psi4 1.3.2 release

  ==> Input File <==

--------------------------------------------------------------------------
#psi4
#
memory 32 gb

molecule  {
-1 1
  O       -1.4366360    -1.1870470     0.0571230
  O       -1.4476160     1.0691130    -0.2107340
  N        1.2636070     1.2939420     0.0706720
  C        0.6179830     0.0092170     0.3932550
  C        1.4068670    -1.1350240    -0.2248910
  C       -0.9311317    -0.1352405     0.0310377
  H        0.6585810    -0.1007720     1.4894850
  H        2.4544500    -1.1027320     0.0899700
  H        0.9700140    -2.0919800     0.0583780
  H        1.3764410    -1.0627810    -1.3188240
  H        0.5133110     1.9810410     0.1712720
  H        1.4338170     1.2887330    -0.9390950
units angstrom
no_reorient  #important for SAPT in psi4, default
symmetry c1  #important for SAPT in psi4, default
}

set PROPERTIES_ORIGIN ["COM"]
properties('MP2/aug-cc-pvtz', properties = ['dipole'])
--------------------------------------------------------------------------

    Molecular point group: c1
  Charge       = -1
  Multiplicity = 1
  Basis Set: AUG-CC-PVTZ
    Blend: AUG-CC-PVTZ
  Basis Set: (AUG-CC-PVTZ AUX)
    Blend: AUG-CC-PVTZ-JKFIT

    Orbital Energies [Eh]
    ---------------------

    Doubly Occupied:

       1A    -20.321233     2A    -20.283177     3A    -15.381284
       4A    -11.138779     5A    -11.088315     6A    -11.069450
       7A     -1.215391     8A     -1.060479     9A     -1.011117
      10A     -0.839450    11A     -0.682685    12A     -0.534874
      13A     -0.496687    14A     -0.472426    15A     -0.438508
      16A     -0.407106    17A     -0.390384    18A     -0.377553
      19A     -0.348883    20A     -0.328012    21A     -0.284029
      22A     -0.208408    23A     -0.199678    24A     -0.181157

  @DF-RHF Final Energy:  -321.41651163168962

   => Energetics <=

    Nuclear Repulsion Energy =            237.9712739255095073
    One-Electron Energy =                -921.2574402229945463
    Two-Electron Energy =                 361.8696546657953945
    Total Energy =                       -321.4165116316896160
  Basis Set: (AUG-CC-PVTZ AUX)
    Blend: AUG-CC-PVTZ-RI
    Molecular point group: c1

    Geometry (in Angstrom), charge = -1, multiplicity = 1:

       Center              X                  Y                   Z               Mass
    ------------   -----------------  -----------------  -----------------  -----------------
         O           -1.347474202835    -1.187083833836     0.051749015220    15.994914619570
         O           -1.358454202835     1.069076166164    -0.216107984780    15.994914619570
         N            1.352768797165     1.293905166164     0.065298015220    14.003074004430
         C            0.707144797165     0.009180166164     0.387881015220    12.000000000000
         C            1.496028797165    -1.135060833836    -0.230264984780    12.000000000000
         C           -0.841969902835    -0.135277333836     0.025663715220    12.000000000000
         H            0.747742797165    -0.100808833836     1.484111015220     1.007825032230
         H            2.543611797165    -1.102768833836     0.084596015220     1.007825032230
         H            1.059175797165    -2.092016833836     0.053004015220     1.007825032230
         H            1.465602797165    -1.062817833836    -1.324197984780     1.007825032230
         H            0.602472797165     1.981004166164     0.165898015220     1.007825032230
         H            1.522978797165     1.288696166164    -0.944468984780     1.007825032230

  Basis Set: AUG-CC-PVTZ
    Blend: AUG-CC-PVTZ
  Basis Set: (AUG-CC-PVTZ AUX)
    Blend: AUG-CC-PVTZ-JKFIT
	 Reference Energy          =    -321.4165116316896160 [Eh]
	 Singles Energy            =      -0.0000000000000000 [Eh]
	 Same-Spin Energy          =      -0.3249722001010000 [Eh]
	 Opposite-Spin Energy      =      -1.0051410698804237 [Eh]
	 Correlation Energy        =      -1.3301132699814238 [Eh]
	 Total Energy              =    -322.7466249016710549 [Eh]

	 ================> DF-SCS-MP2 Energies <==================
	-----------------------------------------------------------
	 SCS Same-Spin Scale       =       0.3333333333333333 [-]
	 SCS Opposite-Spin Scale   =       1.2000000000000000 [-]
	 SCS Same-Spin Energy      =      -0.1083240667003333 [Eh]
	 SCS Opposite-Spin Energy  =      -1.2061692838565083 [Eh]
	 SCS Correlation Energy    =      -1.3144933505568417 [Eh]
	 SCS Total Energy          =    -322.7310049822464748 [Eh]
	-----------------------------------------------------------

  Dipole Moment: [D]
     X:     4.1652      Y:    -1.0843      Z:    -0.1481     Total:     4.3066

*** Psi4 exiting successfully. Buy a developer a beer!
