                               Psi4 1.3.2 release

  ==> Input File <==

--------------------------------------------------------------------------
#psi4
#
memory 32 gb

molecule  {
-1 1
  O       -1.4366360    -1.1870470     0.0571230
  O       -1.4476160     1.0691130    -0.2107340
  N        1.2636070     1.2939420     0.0706720
  C        0.6179830     0.0092170     0.3932550
  C        1.4068670    -1.1350240    -0.2248910
  C       -0.9044112    -0.0542393     0.1077274
  H        0.6009708    -0.1043084     1.4897442
  H        2.4544500    -1.1027320     0.0899700
  H        0.9700140    -2.0919800     0.0583780
  H        1.3764410    -1.0627810    -1.3188240
  H        0.5133110     1.9810410     0.1712720
  H        1.4338170     1.2887330    -0.9390950
units angstrom
no_reorient  #important for SAPT in psi4, default
symmetry c1  #important for SAPT in psi4, default
}

set PROPERTIES_ORIGIN ["COM"]
properties('MP2/aug-cc-pvtz', properties = ['dipole'])
--------------------------------------------------------------------------

    Molecular point group: c1
  Charge       = -1
  Multiplicity = 1
  Basis Set: AUG-CC-PVTZ
    Blend: AUG-CC-PVTZ
  Basis Set: (AUG-CC-PVTZ AUX)
    Blend: AUG-CC-PVTZ-JKFIT

    Orbital Energies [Eh]
    ---------------------

    Doubly Occupied:

       1A    -20.302410     2A    -20.297804     3A    -15.386283
       4A    -11.141574     5A    -11.093294     6A    -11.072657
       7A     -1.170313     8A     -1.067821     9A     -1.020117
      10A     -0.842289    11A     -0.698620    12A     -0.533494
      13A     -0.501749    14A     -0.460073    15A     -0.442249
      16A     -0.400185    17A     -0.388075    18A     -0.373436
      19A     -0.347910    20A     -0.319133    21A     -0.279959
      22A     -0.212989    23A     -0.199703    24A     -0.192154

  @DF-RHF Final Energy:  -321.42400394938812

   => Energetics <=

    Nuclear Repulsion Energy =            237.7947946487609840
    One-Electron Energy =                -920.9490119690511847
    Two-Electron Energy =                 361.7302133709020495
    Total Energy =                       -321.4240039493881227
  Basis Set: (AUG-CC-PVTZ AUX)
    Blend: AUG-CC-PVTZ-RI
    Molecular point group: c1

    Geometry (in Angstrom), charge = -1, multiplicity = 1:

       Center              X                  Y                   Z               Mass
    ------------   -----------------  -----------------  -----------------  -----------------
         O           -1.350456772525    -1.198083969454     0.041293095630    15.994914619570
         O           -1.361436772525     1.058076030546    -0.226563904370    15.994914619570
         N            1.349786227475     1.282905030546     0.054842095630    14.003074004430
         C            0.704162227475    -0.001819969454     0.377425095630    12.000000000000
         C            1.493046227475    -1.146060969454    -0.240720904370    12.000000000000
         C           -0.818231972525    -0.065276269454     0.091897495630    12.000000000000
         H            0.687150027475    -0.115345369454     1.473914295630     1.007825032230
         H            2.540629227475    -1.113768969454     0.074140095630     1.007825032230
         H            1.056193227475    -2.103016969454     0.042548095630     1.007825032230
         H            1.462620227475    -1.073817969454    -1.334653904370     1.007825032230
         H            0.599490227475     1.970004030546     0.155442095630     1.007825032230
         H            1.519996227475     1.277696030546    -0.954924904370     1.007825032230

  Basis Set: AUG-CC-PVTZ
    Blend: AUG-CC-PVTZ
  Basis Set: (AUG-CC-PVTZ AUX)
    Blend: AUG-CC-PVTZ-JKFIT
	 Reference Energy          =    -321.4240039493881227 [Eh]
	 Singles Energy            =      -0.0000000000000000 [Eh]
	 Same-Spin Energy          =      -0.3258244226178627 [Eh]
	 Opposite-Spin Energy      =      -1.0068427488633076 [Eh]
	 Correlation Energy        =      -1.3326671714811704 [Eh]
	 Total Energy              =    -322.7566711208692709 [Eh]

	 ================> DF-SCS-MP2 Energies <==================
	-----------------------------------------------------------
	 SCS Same-Spin Scale       =       0.3333333333333333 [-]
	 SCS Opposite-Spin Scale   =       1.2000000000000000 [-]
	 SCS Same-Spin Energy      =      -0.1086081408726209 [Eh]
	 SCS Opposite-Spin Energy  =      -1.2082112986359690 [Eh]
	 SCS Correlation Energy    =      -1.3168194395085899 [Eh]
	 SCS Total Energy          =    -322.7408233888967288 [Eh]
	-----------------------------------------------------------

  Dipole Moment: [D]
     X:     4.4457      Y:    -0.3110      Z:    -0.1589     Total:     4.4594

*** Psi4 exiting successfully. Buy a developer a beer!
