                               Psi4 1.3.2 release

  ==> Input File <==

--------------------------------------------------------------------------
#psi4
#
memory 32 gb

molecule  {
-1 1
  O       -1.4366360    -1.1870470     0.0571230
  O       -1.4476160     1.0691130    -0.2107340
  N        1.2858393     1.2848100     0.0798241
  C        0.6179830     0.0092170     0.3932550
  C        1.4068670    -1.1350240    -0.2248910
  C       -0.8889287    -0.0704986     0.0381501
  H        0.6585810    -0.1007720     1.4894850
  H        2.4544500    -1.1027320     0.0899700
  H        0.9700140    -2.0919800     0.0583780
  H        1.3764410    -1.0627810    -1.3188240
  H        0.5133110     1.9810410     0.1712720
  H        1.4338170     1.2887330    -0.9390950
units angstrom
no_reorient  #important for SAPT in psi4, default
symmetry c1  #important for SAPT in psi4, default
}

set PROPERTIES_ORIGIN ["COM"]
properties('MP2/aug-cc-pvtz', properties = ['dipole'])
--------------------------------------------------------------------------

    Molecular point group: c1
  Charge       = -1
  Multiplicity = 1
  Basis Set: AUG-CC-PVTZ
    Blend: AUG-CC-PVTZ
  Basis Set: (AUG-CC-PVTZ AUX)
    Blend: AUG-CC-PVTZ-JKFIT

    Orbital Energies [Eh]
    ---------------------

    Doubly Occupied:

       1A    -20.305147     2A    -20.297025     3A    -15.389201
       4A    -11.142243     5A    -11.093449     6A    -11.071253
       7A     -1.173475     8A     -1.068692     9A     -1.018773
      10A     -0.841431    11A     -0.694238    12A     -0.539696
      13A     -0.495136    14A     -0.461874    15A     -0.440414
      16A     -0.401024    17A     -0.387176    18A     -0.371683
      19A     -0.345113    20A     -0.319406    21A     -0.282866
      22A     -0.213484    23A     -0.200883    24A     -0.196147

  @DF-RHF Final Energy:  -321.42584758473089

   => Energetics <=

    Nuclear Repulsion Energy =            237.7299252260528135
    One-Electron Energy =                -920.8118866498185753
    Two-Electron Energy =                 361.6561138390348447
    Total Energy =                       -321.4258475847308887
  Basis Set: (AUG-CC-PVTZ AUX)
    Blend: AUG-CC-PVTZ-RI
    Molecular point group: c1

    Geometry (in Angstrom), charge = -1, multiplicity = 1:

       Center              X                  Y                   Z               Mass
    ------------   -----------------  -----------------  -----------------  -----------------
         O           -1.356762684248    -1.194455798950     0.049323905167    15.994914619570
         O           -1.367742684248     1.061704201050    -0.218533094833    15.994914619570
         N            1.365712615752     1.277401201050     0.072025005167    14.003074004430
         C            0.697856315752     0.001808201050     0.385455905167    12.000000000000
         C            1.486740315752    -1.142432798950    -0.232690094833    12.000000000000
         C           -0.809055384248    -0.077907398950     0.030351005167    12.000000000000
         H            0.738454315752    -0.108180798950     1.481685905167     1.007825032230
         H            2.534323315752    -1.110140798950     0.082170905167     1.007825032230
         H            1.049887315752    -2.099388798950     0.050578905167     1.007825032230
         H            1.456314315752    -1.070189798950    -1.326623094833     1.007825032230
         H            0.593184315752     1.973632201050     0.163472905167     1.007825032230
         H            1.513690315752     1.281324201050    -0.946894094833     1.007825032230

  Basis Set: AUG-CC-PVTZ
    Blend: AUG-CC-PVTZ
  Basis Set: (AUG-CC-PVTZ AUX)
    Blend: AUG-CC-PVTZ-JKFIT
	 Reference Energy          =    -321.4258475847308887 [Eh]
	 Singles Energy            =      -0.0000000000000000 [Eh]
	 Same-Spin Energy          =      -0.3258836977478394 [Eh]
	 Opposite-Spin Energy      =      -1.0073167637978395 [Eh]
	 Correlation Energy        =      -1.3332004615456789 [Eh]
	 Total Energy              =    -322.7590480462765754 [Eh]

	 ================> DF-SCS-MP2 Energies <==================
	-----------------------------------------------------------
	 SCS Same-Spin Scale       =       0.3333333333333333 [-]
	 SCS Opposite-Spin Scale   =       1.2000000000000000 [-]
	 SCS Same-Spin Energy      =      -0.1086278992492798 [Eh]
	 SCS Opposite-Spin Energy  =      -1.2087801165574075 [Eh]
	 SCS Correlation Energy    =      -1.3174080158066872 [Eh]
	 SCS Total Energy          =    -322.7432556005375659 [Eh]
	-----------------------------------------------------------

  Dipole Moment: [D]
     X:     4.4057      Y:    -0.4061      Z:    -0.1780     Total:     4.4279

*** Psi4 exiting successfully. Buy a developer a beer!
