                               Psi4 1.4a3.dev225

  ==> Input File <==

--------------------------------------------------------------------------
#psi4
#
memory 32 gb

molecule  {
-1 1
  O       -1.6933650     0.8030190    -0.4602720
  O       -1.1174780    -1.0749000     0.6904900
  N        1.4364130    -1.0622120    -0.3332000
  C        0.6126710     0.1580520    -0.4178300
  C        1.1905680     1.2200680     0.5150430
  C       -0.8738120    -0.0689040    -0.0451960
  H        0.6528320     0.5329630    -1.4473970
  H        2.2305690     1.4435080     0.2589170
  H        0.6009540     2.1390560     0.4596660
  H        1.1629700     0.8554330     1.5482090
  H        1.1765246    -1.6313090    -1.0777647
  H        1.0447980    -1.5551690     0.4751990
units angstrom
no_reorient  #important for SAPT in psi4, default
symmetry c1  #important for SAPT in psi4, default
}

set PROPERTIES_ORIGIN ["COM"]
properties('MP2/aug-cc-pvtz', properties = ['dipole'])
--------------------------------------------------------------------------

    Molecular point group: c1
  Charge       = -1
  Multiplicity = 1
  Basis Set: AUG-CC-PVTZ
    Blend: AUG-CC-PVTZ
  Basis Set: (AUG-CC-PVTZ AUX)
    Blend: AUG-CC-PVTZ-JKFIT

    Orbital Energies [Eh]
    ---------------------

    Doubly Occupied:

       1A    -20.302745     2A    -20.298808     3A    -15.381199
       4A    -11.140504     5A    -11.092227     6A    -11.070067
       7A     -1.170115     8A     -1.069865     9A     -1.027889
      10A     -0.845772    11A     -0.688989    12A     -0.543577
      13A     -0.513426    14A     -0.461502    15A     -0.424771
      16A     -0.407836    17A     -0.395049    18A     -0.367387
      19A     -0.346336    20A     -0.318131    21A     -0.282727
      22A     -0.216602    23A     -0.200699    24A     -0.192756

  @DF-RHF Final Energy:  -321.42859742227972

   => Energetics <=

    Nuclear Repulsion Energy =            238.4153182855117166
    One-Electron Energy =                -922.1698761666334576
    Two-Electron Energy =                 362.3259604588420189
    Total Energy =                       -321.4285974222797222
  Basis Set: (AUG-CC-PVTZ AUX)
    Blend: AUG-CC-PVTZ-RI
    Molecular point group: c1

    Geometry (in Angstrom), charge = -1, multiplicity = 1:

       Center              X                  Y                   Z               Mass
    ------------   -----------------  -----------------  -----------------  -----------------
         O           -1.616473944404     0.822486422196    -0.458672985433    15.994914619570
         O           -1.040586944404    -1.055432577804     0.692089014567    15.994914619570
         N            1.513304055596    -1.042744577804    -0.331600985433    14.003074004430
         C            0.689562055596     0.177519422196    -0.416230985433    12.000000000000
         C            1.267459055596     1.239535422196     0.516642014567    12.000000000000
         C           -0.796920944404    -0.049436577804    -0.043596985433    12.000000000000
         H            0.729723055596     0.552430422196    -1.445797985433     1.007825032230
         H            2.307460055596     1.462975422196     0.260516014567     1.007825032230
         H            0.677845055596     2.158523422196     0.461265014567     1.007825032230
         H            1.239861055596     0.874900422196     1.549808014567     1.007825032230
         H            1.253415655596    -1.611841577804    -1.076165685433     1.007825032230
         H            1.121689055596    -1.535701577804     0.476798014567     1.007825032230

  Basis Set: AUG-CC-PVTZ
    Blend: AUG-CC-PVTZ
  Basis Set: (AUG-CC-PVTZ AUX)
    Blend: AUG-CC-PVTZ-JKFIT
	 Reference Energy          =    -321.4285974222797222 [Eh]
	 Singles Energy            =      -0.0000000000000000 [Eh]
	 Same-Spin Energy          =      -0.3253446689517427 [Eh]
	 Opposite-Spin Energy      =      -1.0059337976291938 [Eh]
	 Correlation Energy        =      -1.3312784665809365 [Eh]
	 Total Energy              =    -322.7598758888606767 [Eh]

	 ================> DF-SCS-MP2 Energies <==================
	-----------------------------------------------------------
	 SCS Same-Spin Scale       =       0.3333333333333333 [-]
	 SCS Opposite-Spin Scale   =       1.2000000000000000 [-]
	 SCS Same-Spin Energy      =      -0.1084482229839142 [Eh]
	 SCS Opposite-Spin Energy  =      -1.2071205571550325 [Eh]
	 SCS Correlation Energy    =      -1.3155687801389468 [Eh]
	 SCS Total Energy          =    -322.7441662024186826 [Eh]
	-----------------------------------------------------------

  Dipole Moment: [D]
     X:     4.1155      Y:     0.2996      Z:    -0.7577     Total:     4.1954

*** Psi4 exiting successfully. Buy a developer a beer!
