                               Psi4 1.3.2 release

  ==> Input File <==

--------------------------------------------------------------------------
#psi4
#
memory 32 gb

molecule  {
-1 1
  O       -1.4366360    -1.1870470     0.0571230
  O       -1.4476160     1.0691130    -0.2107340
  N        1.2636070     1.2939420     0.0706720
  C        0.5745882    -0.0084360     0.3682713
  C        1.4068670    -1.1350240    -0.2248910
  C       -0.8878250    -0.0451320     0.0288030
  H        0.6585810    -0.1007720     1.4894850
  H        2.4610317    -1.1339441     0.0689560
  H        0.9700140    -2.0919800     0.0583780
  H        1.3764410    -1.0627810    -1.3188240
  H        0.5133110     1.9810410     0.1712720
  H        1.4338170     1.2887330    -0.9390950
units angstrom
no_reorient  #important for SAPT in psi4, default
symmetry c1  #important for SAPT in psi4, default
}

set PROPERTIES_ORIGIN ["COM"]
properties('MP2/aug-cc-pvtz', properties = ['dipole'])
--------------------------------------------------------------------------

    Molecular point group: c1
  Charge       = -1
  Multiplicity = 1
  Basis Set: AUG-CC-PVTZ
    Blend: AUG-CC-PVTZ
  Basis Set: (AUG-CC-PVTZ AUX)
    Blend: AUG-CC-PVTZ-JKFIT

    Orbital Energies [Eh]
    ---------------------

    Doubly Occupied:

       1A    -20.302692     2A    -20.298260     3A    -15.386002
       4A    -11.140827     5A    -11.096470     6A    -11.072543
       7A     -1.172532     8A     -1.070301     9A     -1.015249
      10A     -0.843671    11A     -0.702559    12A     -0.540102
      13A     -0.498656    14A     -0.462308    15A     -0.439034
      16A     -0.402621    17A     -0.391026    18A     -0.370615
      19A     -0.341196    20A     -0.313519    21A     -0.277764
      22A     -0.217863    23A     -0.202772    24A     -0.199000

  @DF-RHF Final Energy:  -321.42455915256909

   => Energetics <=

    Nuclear Repulsion Energy =            238.2966340280203781
    One-Electron Energy =                -921.9272226818608260
    Two-Electron Energy =                 362.2060295012714164
    Total Energy =                       -321.4245591525690884
  Basis Set: (AUG-CC-PVTZ AUX)
    Blend: AUG-CC-PVTZ-RI
    Molecular point group: c1

    Geometry (in Angstrom), charge = -1, multiplicity = 1:

       Center              X                  Y                   Z               Mass
    ------------   -----------------  -----------------  -----------------  -----------------
         O           -1.347537537812    -1.196602360181     0.055699490166    15.994914619570
         O           -1.358517537812     1.059557639819    -0.212157509834    15.994914619570
         N            1.352705462188     1.284386639819     0.069248490166    14.003074004430
         C            0.663686662188    -0.017991360181     0.366847790166    12.000000000000
         C            1.495965462188    -1.144579360181    -0.226314509834    12.000000000000
         C           -0.798726537812    -0.054687360181     0.027379490166    12.000000000000
         H            0.747679462188    -0.110327360181     1.488061490166     1.007825032230
         H            2.550130162188    -1.143499460181     0.067532490166     1.007825032230
         H            1.059112462188    -2.101535360181     0.056954490166     1.007825032230
         H            1.465539462188    -1.072336360181    -1.320247509834     1.007825032230
         H            0.602409462188     1.971485639819     0.169848490166     1.007825032230
         H            1.522915462188     1.279177639819    -0.940518509834     1.007825032230

  Basis Set: AUG-CC-PVTZ
    Blend: AUG-CC-PVTZ
  Basis Set: (AUG-CC-PVTZ AUX)
    Blend: AUG-CC-PVTZ-JKFIT
	 Reference Energy          =    -321.4245591525690884 [Eh]
	 Singles Energy            =      -0.0000000000000000 [Eh]
	 Same-Spin Energy          =      -0.3257746409140160 [Eh]
	 Opposite-Spin Energy      =      -1.0073161532855033 [Eh]
	 Correlation Energy        =      -1.3330907941995194 [Eh]
	 Total Energy              =    -322.7576499467685949 [Eh]

	 ================> DF-SCS-MP2 Energies <==================
	-----------------------------------------------------------
	 SCS Same-Spin Scale       =       0.3333333333333333 [-]
	 SCS Opposite-Spin Scale   =       1.2000000000000000 [-]
	 SCS Same-Spin Energy      =      -0.1085915469713387 [Eh]
	 SCS Opposite-Spin Energy  =      -1.2087793839426040 [Eh]
	 SCS Correlation Energy    =      -1.3173709309139428 [Eh]
	 SCS Total Energy          =    -322.7419300834830551 [Eh]
	-----------------------------------------------------------

  Dipole Moment: [D]
     X:     4.4428      Y:    -0.1871      Z:    -0.2372     Total:     4.4531

*** Psi4 exiting successfully. Buy a developer a beer!
