                               Psi4 1.3.2 release

  ==> Input File <==

--------------------------------------------------------------------------
#psi4
#
memory 32 gb

molecule  {
-1 1
  O       -1.4366360    -1.1870470     0.0571230
  O       -1.4476160     1.0691130    -0.2107340
  N        1.2636070     1.2939420     0.0706720
  C        0.6179830     0.0092170     0.3932550
  C        1.4068670    -1.1350240    -0.2248910
  C       -1.0820930    -0.0521437    -0.0182159
  H        0.6585810    -0.1007720     1.4894850
  H        2.4544500    -1.1027320     0.0899700
  H        0.9700140    -2.0919800     0.0583780
  H        1.3764410    -1.0627810    -1.3188240
  H        0.5133110     1.9810410     0.1712720
  H        1.4338170     1.2887330    -0.9390950
units angstrom
no_reorient  #important for SAPT in psi4, default
symmetry c1  #important for SAPT in psi4, default
}

set PROPERTIES_ORIGIN ["COM"]
properties('MP2/aug-cc-pvtz', properties = ['dipole'])
--------------------------------------------------------------------------

    Molecular point group: c1
  Charge       = -1
  Multiplicity = 1
  Basis Set: AUG-CC-PVTZ
    Blend: AUG-CC-PVTZ
  Basis Set: (AUG-CC-PVTZ AUX)
    Blend: AUG-CC-PVTZ-JKFIT

    Orbital Energies [Eh]
    ---------------------

    Doubly Occupied:

       1A    -20.317670     2A    -20.314594     3A    -15.371858
       4A    -11.146702     5A    -11.062165     6A    -11.056069
       7A     -1.220422     8A     -1.139183     9A     -1.002702
      10A     -0.819571    11A     -0.648699    12A     -0.521912
      13A     -0.490653    14A     -0.468444    15A     -0.442020
      16A     -0.419154    17A     -0.400785    18A     -0.381589
      19A     -0.337699    20A     -0.319380    21A     -0.283387
      22A     -0.242581    23A     -0.232470    24A     -0.137725

  @DF-RHF Final Energy:  -321.40763616359783

   => Energetics <=

    Nuclear Repulsion Energy =            237.6695148870013838
    One-Electron Energy =                -920.5994260797226616
    Two-Electron Energy =                 361.5222750291234775
    Total Energy =                       -321.4076361635978287
  Basis Set: (AUG-CC-PVTZ AUX)
    Blend: AUG-CC-PVTZ-RI
    Molecular point group: c1

    Geometry (in Angstrom), charge = -1, multiplicity = 1:

       Center              X                  Y                   Z               Mass
    ------------   -----------------  -----------------  -----------------  -----------------
         O           -1.326897889617    -1.198410086222     0.058462374874    15.994914619570
         O           -1.337877889617     1.057749913778    -0.209394625126    15.994914619570
         N            1.373345110383     1.282578913778     0.072011374874    14.003074004430
         C            0.727721110383    -0.002146086222     0.394594374874    12.000000000000
         C            1.516605110383    -1.146387086222    -0.223551625126    12.000000000000
         C           -0.972354889617    -0.063506786222    -0.016876525126    12.000000000000
         H            0.768319110383    -0.112135086222     1.490824374874     1.007825032230
         H            2.564188110383    -1.114095086222     0.091309374874     1.007825032230
         H            1.079752110383    -2.103343086222     0.059717374874     1.007825032230
         H            1.486179110383    -1.074144086222    -1.317484625126     1.007825032230
         H            0.623049110383     1.969677913778     0.172611374874     1.007825032230
         H            1.543555110383     1.277369913778    -0.937755625126     1.007825032230

  Basis Set: AUG-CC-PVTZ
    Blend: AUG-CC-PVTZ
  Basis Set: (AUG-CC-PVTZ AUX)
    Blend: AUG-CC-PVTZ-JKFIT
	 Reference Energy          =    -321.4076361635978287 [Eh]
	 Singles Energy            =      -0.0000000000000000 [Eh]
	 Same-Spin Energy          =      -0.3245972013956805 [Eh]
	 Opposite-Spin Energy      =      -1.0032057837803343 [Eh]
	 Correlation Energy        =      -1.3278029851760147 [Eh]
	 Total Energy              =    -322.7354391487738212 [Eh]

	 ================> DF-SCS-MP2 Energies <==================
	-----------------------------------------------------------
	 SCS Same-Spin Scale       =       0.3333333333333333 [-]
	 SCS Opposite-Spin Scale   =       1.2000000000000000 [-]
	 SCS Same-Spin Energy      =      -0.1081990671318935 [Eh]
	 SCS Opposite-Spin Energy  =      -1.2038469405364012 [Eh]
	 SCS Correlation Energy    =      -1.3120460076682947 [Eh]
	 SCS Total Energy          =    -322.7196821712661290 [Eh]
	-----------------------------------------------------------

  Dipole Moment: [D]
     X:     2.8869      Y:    -0.1469      Z:    -0.4697     Total:     2.9286

*** Psi4 exiting successfully. Buy a developer a beer!
