                               Psi4 1.3.2 release

  ==> Input File <==

--------------------------------------------------------------------------
#psi4
#
memory 32 gb

molecule  {
-1 1
  O       -1.3782183    -1.2127458     0.0752554
  O       -1.4476160     1.0691130    -0.2107340
  N        1.2636070     1.2939420     0.0706720
  C        0.6160204    -0.0711631     0.4043135
  C        1.4068670    -1.1350240    -0.2248910
  C       -0.8878250    -0.0451320     0.0288030
  H        0.6585810    -0.1007720     1.4894850
  H        2.4544500    -1.1027320     0.0899700
  H        0.9700140    -2.0919800     0.0583780
  H        1.3764410    -1.0627810    -1.3188240
  H        0.5133110     1.9810410     0.1712720
  H        1.4338170     1.2887330    -0.9390950
units angstrom
no_reorient  #important for SAPT in psi4, default
symmetry c1  #important for SAPT in psi4, default
}

set PROPERTIES_ORIGIN ["COM"]
properties('MP2/aug-cc-pvtz', properties = ['dipole'])
--------------------------------------------------------------------------

    Molecular point group: c1
  Charge       = -1
  Multiplicity = 1
  Basis Set: AUG-CC-PVTZ
    Blend: AUG-CC-PVTZ
  Basis Set: (AUG-CC-PVTZ AUX)
    Blend: AUG-CC-PVTZ-JKFIT

    Orbital Energies [Eh]
    ---------------------

    Doubly Occupied:

       1A    -20.308265     2A    -20.300038     3A    -15.379664
       4A    -11.144740     5A    -11.090847     6A    -11.069036
       7A     -1.171677     8A     -1.075499     9A     -1.001366
      10A     -0.851417    11A     -0.693212    12A     -0.537474
      13A     -0.493068    14A     -0.464921    15A     -0.436465
      16A     -0.401255    17A     -0.392230    18A     -0.375985
      19A     -0.341777    20A     -0.321596    21A     -0.272439
      22A     -0.221190    23A     -0.204333    24A     -0.191246

  @DF-RHF Final Energy:  -321.42076482447760

   => Energetics <=

    Nuclear Repulsion Energy =            238.0728113387458507
    One-Electron Energy =                -921.5076704579745410
    Two-Electron Energy =                 362.0140942947510894
    Total Energy =                       -321.4207648244776010
  Basis Set: (AUG-CC-PVTZ AUX)
    Blend: AUG-CC-PVTZ-RI
    Molecular point group: c1

    Geometry (in Angstrom), charge = -1, multiplicity = 1:

       Center              X                  Y                   Z               Mass
    ------------   -----------------  -----------------  -----------------  -----------------
         O           -1.305305000168    -1.209439723775     0.065384454192    15.994914619570
         O           -1.374702700168     1.072419076225    -0.220604945808    15.994914619570
         N            1.336520299832     1.297248076225     0.060801054192    14.003074004430
         C            0.688933699832    -0.067857023775     0.394442554192    12.000000000000
         C            1.479780299832    -1.131717923775    -0.234761945808    12.000000000000
         C           -0.814911700168    -0.041825923775     0.018932054192    12.000000000000
         H            0.731494299832    -0.097465923775     1.479614054192     1.007825032230
         H            2.527363299832    -1.099425923775     0.080099054192     1.007825032230
         H            1.042927299832    -2.088673923775     0.048507054192     1.007825032230
         H            1.449354299832    -1.059474923775    -1.328694945808     1.007825032230
         H            0.586224299832     1.984347076225     0.161401054192     1.007825032230
         H            1.506730299832     1.292039076225    -0.948965945808     1.007825032230

  Basis Set: AUG-CC-PVTZ
    Blend: AUG-CC-PVTZ
  Basis Set: (AUG-CC-PVTZ AUX)
    Blend: AUG-CC-PVTZ-JKFIT
	 Reference Energy          =    -321.4207648244776010 [Eh]
	 Singles Energy            =      -0.0000000000000000 [Eh]
	 Same-Spin Energy          =      -0.3260506087944441 [Eh]
	 Opposite-Spin Energy      =      -1.0078434910817435 [Eh]
	 Correlation Energy        =      -1.3338940998761877 [Eh]
	 Total Energy              =    -322.7546589243538051 [Eh]

	 ================> DF-SCS-MP2 Energies <==================
	-----------------------------------------------------------
	 SCS Same-Spin Scale       =       0.3333333333333333 [-]
	 SCS Opposite-Spin Scale   =       1.2000000000000000 [-]
	 SCS Same-Spin Energy      =      -0.1086835362648147 [Eh]
	 SCS Opposite-Spin Energy  =      -1.2094121892980922 [Eh]
	 SCS Correlation Energy    =      -1.3180957255629069 [Eh]
	 SCS Total Energy          =    -322.7388605500404992 [Eh]
	-----------------------------------------------------------

  Dipole Moment: [D]
     X:     4.1849      Y:    -0.3565      Z:    -0.2129     Total:     4.2055

*** Psi4 exiting successfully. Buy a developer a beer!
