                               Psi4 1.3.2 release

  ==> Input File <==

--------------------------------------------------------------------------
#psi4
#
memory 32 gb

molecule  {
-1 1
  O       -1.4366360    -1.1870470     0.0571230
  O       -1.4476160     1.0691130    -0.2107340
  N        1.2636070     1.2939420     0.0706720
  C        0.6856734    -0.0256203     0.3807631
  C        1.4068670    -1.1350240    -0.2248910
  C       -0.8878250    -0.0451320     0.0288030
  H        0.6585810    -0.1007720     1.4894850
  H        2.4544500    -1.1027320     0.0899700
  H        0.9700140    -2.0919800     0.0583780
  H        1.3764410    -1.0627810    -1.3188240
  H        0.5483362     2.0191841     0.1577416
  H        1.4338170     1.2887330    -0.9390950
units angstrom
no_reorient  #important for SAPT in psi4, default
symmetry c1  #important for SAPT in psi4, default
}

set PROPERTIES_ORIGIN ["COM"]
properties('MP2/aug-cc-pvtz', properties = ['dipole'])
--------------------------------------------------------------------------

    Molecular point group: c1
  Charge       = -1
  Multiplicity = 1
  Basis Set: AUG-CC-PVTZ
    Blend: AUG-CC-PVTZ
  Basis Set: (AUG-CC-PVTZ AUX)
    Blend: AUG-CC-PVTZ-JKFIT

    Orbital Energies [Eh]
    ---------------------

    Doubly Occupied:

       1A    -20.302290     2A    -20.297528     3A    -15.385159
       4A    -11.142420     5A    -11.093268     6A    -11.069951
       7A     -1.167066     8A     -1.067371     9A     -1.021420
      10A     -0.855311    11A     -0.683197    12A     -0.533896
      13A     -0.505042    14A     -0.462018    15A     -0.441460
      16A     -0.397900    17A     -0.384812    18A     -0.375918
      19A     -0.359454    20A     -0.321747    21A     -0.277413
      22A     -0.213710    23A     -0.199182    24A     -0.182349

  @DF-RHF Final Energy:  -321.42192955393591

   => Energetics <=

    Nuclear Repulsion Energy =            237.5183311498239505
    One-Electron Energy =                -920.4007555184026614
    Two-Electron Energy =                 361.4604948146428569
    Total Energy =                       -321.4219295539359109
  Basis Set: (AUG-CC-PVTZ AUX)
    Blend: AUG-CC-PVTZ-RI
    Molecular point group: c1

    Geometry (in Angstrom), charge = -1, multiplicity = 1:

       Center              X                  Y                   Z               Mass
    ------------   -----------------  -----------------  -----------------  -----------------
         O           -1.363004265869    -1.195054042141     0.053911166432    15.994914619570
         O           -1.373984265869     1.061105957859    -0.213945833568    15.994914619570
         N            1.337238734131     1.285934957859     0.067460166432    14.003074004430
         C            0.759305134131    -0.033627342141     0.377551266432    12.000000000000
         C            1.480498734131    -1.143031042141    -0.228102833568    12.000000000000
         C           -0.814193265869    -0.053139042141     0.025591166432    12.000000000000
         H            0.732212734131    -0.108779042141     1.486273166432     1.007825032230
         H            2.528081734131    -1.110739042141     0.086758166432     1.007825032230
         H            1.043645734131    -2.099987042141     0.055166166432     1.007825032230
         H            1.450072734131    -1.070788042141    -1.322035833568     1.007825032230
         H            0.621967934131     2.011177057859     0.154529766432     1.007825032230
         H            1.507448734131     1.280725957859    -0.942306833568     1.007825032230

  Basis Set: AUG-CC-PVTZ
    Blend: AUG-CC-PVTZ
  Basis Set: (AUG-CC-PVTZ AUX)
    Blend: AUG-CC-PVTZ-JKFIT
	 Reference Energy          =    -321.4219295539359109 [Eh]
	 Singles Energy            =      -0.0000000000000000 [Eh]
	 Same-Spin Energy          =      -0.3260249092812098 [Eh]
	 Opposite-Spin Energy      =      -1.0069268695353428 [Eh]
	 Correlation Energy        =      -1.3329517788165526 [Eh]
	 Total Energy              =    -322.7548813327524613 [Eh]

	 ================> DF-SCS-MP2 Energies <==================
	-----------------------------------------------------------
	 SCS Same-Spin Scale       =       0.3333333333333333 [-]
	 SCS Opposite-Spin Scale   =       1.2000000000000000 [-]
	 SCS Same-Spin Energy      =      -0.1086749697604033 [Eh]
	 SCS Opposite-Spin Energy  =      -1.2083122434424114 [Eh]
	 SCS Correlation Energy    =      -1.3169872132028146 [Eh]
	 SCS Total Energy          =    -322.7389167671387327 [Eh]
	-----------------------------------------------------------

  Dipole Moment: [D]
     X:     4.4842      Y:    -0.1669      Z:    -0.2648     Total:     4.4951

*** Psi4 exiting successfully. Buy a developer a beer!
