                               Psi4 1.4a3.dev225

  ==> Input File <==

--------------------------------------------------------------------------
#psi4
#
memory 32 gb

molecule  {
-1 1
  O       -1.6933650     0.8030190    -0.4602720
  O       -1.1174780    -1.0749000     0.6904900
  N        1.4364130    -1.0622120    -0.3332000
  C        0.6126710     0.1580520    -0.4178300
  C        1.1905680     1.2200680     0.5150430
  C       -0.8738120    -0.0689040    -0.0451960
  H        0.6535646     0.5398017    -1.4661772
  H        2.2305690     1.4435080     0.2589170
  H        0.6009540     2.1390560     0.4596660
  H        1.1629700     0.8554330     1.5482090
  H        1.1631630    -1.6605680    -1.1160450
  H        1.0447980    -1.5551690     0.4751990
units angstrom
no_reorient  #important for SAPT in psi4, default
symmetry c1  #important for SAPT in psi4, default
}

set PROPERTIES_ORIGIN ["COM"]
properties('MP2/aug-cc-pvtz', properties = ['dipole'])
--------------------------------------------------------------------------

    Molecular point group: c1
  Charge       = -1
  Multiplicity = 1
  Basis Set: AUG-CC-PVTZ
    Blend: AUG-CC-PVTZ
  Basis Set: (AUG-CC-PVTZ AUX)
    Blend: AUG-CC-PVTZ-JKFIT

    Orbital Energies [Eh]
    ---------------------

    Doubly Occupied:

       1A    -20.302867     2A    -20.298768     3A    -15.387722
       4A    -11.140691     5A    -11.094972     6A    -11.070580
       7A     -1.170096     8A     -1.069735     9A     -1.021424
      10A     -0.843039    11A     -0.686692    12A     -0.542099
      13A     -0.504699    14A     -0.461516    15A     -0.423664
      16A     -0.407694    17A     -0.395199    18A     -0.366117
      19A     -0.345430    20A     -0.316541    21A     -0.282288
      22A     -0.216600    23A     -0.200709    24A     -0.192815

  @DF-RHF Final Energy:  -321.42843218740182

   => Energetics <=

    Nuclear Repulsion Energy =            238.0502949988278942
    One-Electron Energy =                -921.4735410321084146
    Two-Electron Energy =                 361.9948138458786957
    Total Energy =                       -321.4284321874018246
  Basis Set: (AUG-CC-PVTZ AUX)
    Blend: AUG-CC-PVTZ-RI
    Molecular point group: c1

    Geometry (in Angstrom), charge = -1, multiplicity = 1:

       Center              X                  Y                   Z               Mass
    ------------   -----------------  -----------------  -----------------  -----------------
         O           -1.616329375532     0.822743075730    -0.458019792612    15.994914619570
         O           -1.040442375532    -1.055175924270     0.692742207388    15.994914619570
         N            1.513448624468    -1.042487924270    -0.330947792612    14.003074004430
         C            0.689706624468     0.177776075730    -0.415577792612    12.000000000000
         C            1.267603624468     1.239792075730     0.517295207388    12.000000000000
         C           -0.796776375532    -0.049179924270    -0.042943792612    12.000000000000
         H            0.730600224468     0.559525775730    -1.463924992612     1.007825032230
         H            2.307604624468     1.463232075730     0.261169207388     1.007825032230
         H            0.677989624468     2.158780075730     0.461918207388     1.007825032230
         H            1.240005624468     0.875157075730     1.550461207388     1.007825032230
         H            1.240198624468    -1.640843924270    -1.113792792612     1.007825032230
         H            1.121833624468    -1.535444924270     0.477451207388     1.007825032230

  Basis Set: AUG-CC-PVTZ
    Blend: AUG-CC-PVTZ
  Basis Set: (AUG-CC-PVTZ AUX)
    Blend: AUG-CC-PVTZ-JKFIT
	 Reference Energy          =    -321.4284321874018246 [Eh]
	 Singles Energy            =      -0.0000000000000000 [Eh]
	 Same-Spin Energy          =      -0.3255807868562425 [Eh]
	 Opposite-Spin Energy      =      -1.0068854963720304 [Eh]
	 Correlation Energy        =      -1.3324662832282730 [Eh]
	 Total Energy              =    -322.7608984706300816 [Eh]

	 ================> DF-SCS-MP2 Energies <==================
	-----------------------------------------------------------
	 SCS Same-Spin Scale       =       0.3333333333333333 [-]
	 SCS Opposite-Spin Scale   =       1.2000000000000000 [-]
	 SCS Same-Spin Energy      =      -0.1085269289520808 [Eh]
	 SCS Opposite-Spin Energy  =      -1.2082625956464363 [Eh]
	 SCS Correlation Energy    =      -1.3167895245985171 [Eh]
	 SCS Total Energy          =    -322.7452217120003297 [Eh]
	-----------------------------------------------------------

  Dipole Moment: [D]
     X:     4.1140      Y:     0.3031      Z:    -0.7403     Total:     4.1910

*** Psi4 exiting successfully. Buy a developer a beer!
