                               Psi4 1.3.2 release

  ==> Input File <==

--------------------------------------------------------------------------
#psi4
#
memory 32 gb

molecule  {
-1 1
  O       -1.4366360    -1.1870470     0.0571230
  O       -1.4476160     1.0691130    -0.2107340
  N        1.2636070     1.2939420     0.0706720
  C        0.6179830     0.0092170     0.3932550
  C        1.4068670    -1.1350240    -0.2248910
  C       -0.9744383    -0.2253490     0.0332725
  H        0.6585810    -0.1007720     1.4894850
  H        2.4544500    -1.1027320     0.0899700
  H        0.9700140    -2.0919800     0.0583780
  H        1.3764410    -1.0627810    -1.3188240
  H        0.5133110     1.9810410     0.1712720
  H        1.4338170     1.2887330    -0.9390950
units angstrom
no_reorient  #important for SAPT in psi4, default
symmetry c1  #important for SAPT in psi4, default
}

set PROPERTIES_ORIGIN ["COM"]
properties('MP2/aug-cc-pvtz', properties = ['dipole'])
--------------------------------------------------------------------------

    Molecular point group: c1
  Charge       = -1
  Multiplicity = 1
  Basis Set: AUG-CC-PVTZ
    Blend: AUG-CC-PVTZ
  Basis Set: (AUG-CC-PVTZ AUX)
    Blend: AUG-CC-PVTZ-JKFIT

    Orbital Energies [Eh]
    ---------------------

    Doubly Occupied:

       1A    -20.345067     2A    -20.265585     3A    -15.376163
       4A    -11.134293     5A    -11.081604     6A    -11.067315
       7A     -1.300493     8A     -1.031954     9A     -0.995496
      10A     -0.836255    11A     -0.671748    12A     -0.541550
      13A     -0.503033    14A     -0.487431    15A     -0.439517
      16A     -0.423912    17A     -0.410430    18A     -0.386855
      19A     -0.349088    20A     -0.333346    21A     -0.283278
      22A     -0.194699    23A     -0.188288    24A     -0.155831

  @DF-RHF Final Energy:  -321.36028608264638

   => Energetics <=

    Nuclear Repulsion Energy =            238.3407774520745477
    One-Electron Energy =                -921.7956639461547184
    Two-Electron Energy =                 362.0946004114337597
    Total Energy =                       -321.3602860826463825
  Basis Set: (AUG-CC-PVTZ AUX)
    Blend: AUG-CC-PVTZ-RI
    Molecular point group: c1

    Geometry (in Angstrom), charge = -1, multiplicity = 1:

       Center              X                  Y                   Z               Mass
    ------------   -----------------  -----------------  -----------------  -----------------
         O           -1.341571430628    -1.174801873363     0.051444407716    15.994914619570
         O           -1.352551430628     1.081358126637    -0.216412592284    15.994914619570
         N            1.358671569372     1.306187126637     0.064993407716    14.003074004430
         C            0.713047569372     0.021462126637     0.387576407716    12.000000000000
         C            1.501931569372    -1.122778873363    -0.230569592284    12.000000000000
         C           -0.879373730628    -0.213103873363     0.027593907716    12.000000000000
         H            0.753645569372    -0.088526873363     1.483806407716     1.007825032230
         H            2.549514569372    -1.090486873363     0.084291407716     1.007825032230
         H            1.065078569372    -2.079734873363     0.052699407716     1.007825032230
         H            1.471505569372    -1.050535873363    -1.324502592284     1.007825032230
         H            0.608375569372     1.993286126637     0.165593407716     1.007825032230
         H            1.528881569372     1.300978126637    -0.944773592284     1.007825032230

  Basis Set: AUG-CC-PVTZ
    Blend: AUG-CC-PVTZ
  Basis Set: (AUG-CC-PVTZ AUX)
    Blend: AUG-CC-PVTZ-JKFIT
	 Reference Energy          =    -321.3602860826463825 [Eh]
	 Singles Energy            =      -0.0000000000000000 [Eh]
	 Same-Spin Energy          =      -0.3245219770188900 [Eh]
	 Opposite-Spin Energy      =      -1.0041948006513610 [Eh]
	 Correlation Energy        =      -1.3287167776702509 [Eh]
	 Total Energy              =    -322.6890028603166343 [Eh]

	 ================> DF-SCS-MP2 Energies <==================
	-----------------------------------------------------------
	 SCS Same-Spin Scale       =       0.3333333333333333 [-]
	 SCS Opposite-Spin Scale   =       1.2000000000000000 [-]
	 SCS Same-Spin Energy      =      -0.1081739923396300 [Eh]
	 SCS Opposite-Spin Energy  =      -1.2050337607816333 [Eh]
	 SCS Correlation Energy    =      -1.3132077531212634 [Eh]
	 SCS Total Energy          =    -322.6734938357676583 [Eh]
	-----------------------------------------------------------

  Dipole Moment: [D]
     X:     3.8620      Y:    -2.1076      Z:    -0.0751     Total:     4.4003

*** Psi4 exiting successfully. Buy a developer a beer!
