                               Psi4 1.4a3.dev225

  ==> Input File <==

--------------------------------------------------------------------------
#psi4
#
memory 32 gb

molecule  {
-1 1
  O       -1.6933650     0.8030190    -0.4602720
  O       -1.1174780    -1.0749000     0.6904900
  N        1.4364130    -1.0622120    -0.3332000
  C        0.6126710     0.1580520    -0.4178300
  C        1.1905680     1.2200680     0.5150430
  C       -0.8608707    -0.0826722    -0.0386417
  H        0.6528320     0.5329630    -1.4473970
  H        2.2305690     1.4435080     0.2589170
  H        0.6009540     2.1390560     0.4596660
  H        1.1629700     0.8554330     1.5482090
  H        1.1631630    -1.6605680    -1.1160450
  H        1.0447980    -1.5551690     0.4751990
units angstrom
no_reorient  #important for SAPT in psi4, default
symmetry c1  #important for SAPT in psi4, default
}

set PROPERTIES_ORIGIN ["COM"]
properties('MP2/aug-cc-pvtz', properties = ['dipole'])
--------------------------------------------------------------------------

    Molecular point group: c1
  Charge       = -1
  Multiplicity = 1
  Basis Set: AUG-CC-PVTZ
    Blend: AUG-CC-PVTZ
  Basis Set: (AUG-CC-PVTZ AUX)
    Blend: AUG-CC-PVTZ-JKFIT

    Orbital Energies [Eh]
    ---------------------

    Doubly Occupied:

       1A    -20.306527     2A    -20.294311     3A    -15.388304
       4A    -11.140640     5A    -11.093210     6A    -11.070930
       7A     -1.169958     8A     -1.064419     9A     -1.023369
      10A     -0.844110    11A     -0.690013    12A     -0.545719
      13A     -0.505415    14A     -0.461993    15A     -0.423534
      16A     -0.408192    17A     -0.394060    18A     -0.366236
      19A     -0.346581    20A     -0.317697    21A     -0.281150
      22A     -0.216982    23A     -0.198969    24A     -0.192818

  @DF-RHF Final Energy:  -321.42764530133388

   => Energetics <=

    Nuclear Repulsion Energy =            238.1949637524504624
    One-Electron Energy =                -921.7549441840006921
    Two-Electron Energy =                 362.1323351302163474
    Total Energy =                       -321.4276453013338823
  Basis Set: (AUG-CC-PVTZ AUX)
    Blend: AUG-CC-PVTZ-RI
    Molecular point group: c1

    Geometry (in Angstrom), charge = -1, multiplicity = 1:

       Center              X                  Y                   Z               Mass
    ------------   -----------------  -----------------  -----------------  -----------------
         O           -1.618084913068     0.824697992809    -0.459128140160    15.994914619570
         O           -1.042197913068    -1.053221007191     0.691633859840    15.994914619570
         N            1.511693086932    -1.040533007191    -0.332056140160    14.003074004430
         C            0.687951086932     0.179730992809    -0.416686140160    12.000000000000
         C            1.265848086932     1.241746992809     0.516186859840    12.000000000000
         C           -0.785590613068    -0.060993207191    -0.037497840160    12.000000000000
         H            0.728112086932     0.554641992809    -1.446253140160     1.007825032230
         H            2.305849086932     1.465186992809     0.260060859840     1.007825032230
         H            0.676234086932     2.160734992809     0.460809859840     1.007825032230
         H            1.238250086932     0.877111992809     1.549352859840     1.007825032230
         H            1.238443086932    -1.638889007191    -1.114901140160     1.007825032230
         H            1.120078086932    -1.533490007191     0.476342859840     1.007825032230

  Basis Set: AUG-CC-PVTZ
    Blend: AUG-CC-PVTZ
  Basis Set: (AUG-CC-PVTZ AUX)
    Blend: AUG-CC-PVTZ-JKFIT
	 Reference Energy          =    -321.4276453013338823 [Eh]
	 Singles Energy            =      -0.0000000000000000 [Eh]
	 Same-Spin Energy          =      -0.3257075641642756 [Eh]
	 Opposite-Spin Energy      =      -1.0070869370019619 [Eh]
	 Correlation Energy        =      -1.3327945011662377 [Eh]
	 Total Energy              =    -322.7604398025001160 [Eh]

	 ================> DF-SCS-MP2 Energies <==================
	-----------------------------------------------------------
	 SCS Same-Spin Scale       =       0.3333333333333333 [-]
	 SCS Opposite-Spin Scale   =       1.2000000000000000 [-]
	 SCS Same-Spin Energy      =      -0.1085691880547585 [Eh]
	 SCS Opposite-Spin Energy  =      -1.2085043244023543 [Eh]
	 SCS Correlation Energy    =      -1.3170735124571129 [Eh]
	 SCS Total Energy          =    -322.7447188137909961 [Eh]
	-----------------------------------------------------------

  Dipole Moment: [D]
     X:     4.2231      Y:     0.1682      Z:    -0.6726     Total:     4.2796

*** Psi4 exiting successfully. Buy a developer a beer!
