                               Psi4 1.4a3.dev225

  ==> Input File <==

--------------------------------------------------------------------------
#psi4
#
memory 32 gb

molecule  {
-1 1
  O       -1.6933650     0.8030190    -0.4602720
  O       -1.1174780    -1.0749000     0.6904900
  N        1.4364130    -1.0622120    -0.3332000
  C        0.6126710     0.1580520    -0.4178300
  C        1.1905680     1.2200680     0.5150430
  C       -0.8776496    -0.0847478    -0.0336094
  H        0.6528320     0.5329630    -1.4473970
  H        2.2305690     1.4435080     0.2589170
  H        0.6009540     2.1390560     0.4596660
  H        1.1629700     0.8554330     1.5482090
  H        1.1631630    -1.6605680    -1.1160450
  H        1.0447980    -1.5551690     0.4751990
units angstrom
no_reorient  #important for SAPT in psi4, default
symmetry c1  #important for SAPT in psi4, default
}

set PROPERTIES_ORIGIN ["COM"]
properties('MP2/aug-cc-pvtz', properties = ['dipole'])
--------------------------------------------------------------------------

    Molecular point group: c1
  Charge       = -1
  Multiplicity = 1
  Basis Set: AUG-CC-PVTZ
    Blend: AUG-CC-PVTZ
  Basis Set: (AUG-CC-PVTZ AUX)
    Blend: AUG-CC-PVTZ-JKFIT

    Orbital Energies [Eh]
    ---------------------

    Doubly Occupied:

       1A    -20.307158     2A    -20.294940     3A    -15.387281
       4A    -11.140099     5A    -11.091537     6A    -11.069658
       7A     -1.174244     8A     -1.070033     9A     -1.021911
      10A     -0.841973    11A     -0.685444    12A     -0.543250
      13A     -0.504222    14A     -0.463046    15A     -0.422771
      16A     -0.407844    17A     -0.396151    18A     -0.365987
      19A     -0.346990    20A     -0.319393    21A     -0.281511
      22A     -0.218674    23A     -0.201010    24A     -0.189942

  @DF-RHF Final Energy:  -321.42915088269717

   => Energetics <=

    Nuclear Repulsion Energy =            238.1719234993740031
    One-Electron Energy =                -921.7120118031010634
    Two-Electron Energy =                 362.1109374210299165
    Total Energy =                       -321.4291508826971722
  Basis Set: (AUG-CC-PVTZ AUX)
    Blend: AUG-CC-PVTZ-RI
    Molecular point group: c1

    Geometry (in Angstrom), charge = -1, multiplicity = 1:

       Center              X                  Y                   Z               Mass
    ------------   -----------------  -----------------  -----------------  -----------------
         O           -1.615797916985     0.824980901049    -0.459814052251    15.994914619570
         O           -1.039910916985    -1.052938098951     0.690947947749    15.994914619570
         N            1.513980083015    -1.040250098951    -0.332742052251    14.003074004430
         C            0.690238083015     0.180013901049    -0.417372052251    12.000000000000
         C            1.268135083015     1.242029901049     0.515500947749    12.000000000000
         C           -0.800082516985    -0.062785898951    -0.033151452251    12.000000000000
         H            0.730399083015     0.554924901049    -1.446939052251     1.007825032230
         H            2.308136083015     1.465469901049     0.259374947749     1.007825032230
         H            0.678521083015     2.161017901049     0.460123947749     1.007825032230
         H            1.240537083015     0.877394901049     1.548666947749     1.007825032230
         H            1.240730083015    -1.638606098951    -1.115587052251     1.007825032230
         H            1.122365083015    -1.533207098951     0.475656947749     1.007825032230

  Basis Set: AUG-CC-PVTZ
    Blend: AUG-CC-PVTZ
  Basis Set: (AUG-CC-PVTZ AUX)
    Blend: AUG-CC-PVTZ-JKFIT
	 Reference Energy          =    -321.4291508826971722 [Eh]
	 Singles Energy            =      -0.0000000000000000 [Eh]
	 Same-Spin Energy          =      -0.3254045726939596 [Eh]
	 Opposite-Spin Energy      =      -1.0063967693499047 [Eh]
	 Correlation Energy        =      -1.3318013420438644 [Eh]
	 Total Energy              =    -322.7609522247410609 [Eh]

	 ================> DF-SCS-MP2 Energies <==================
	-----------------------------------------------------------
	 SCS Same-Spin Scale       =       0.3333333333333333 [-]
	 SCS Opposite-Spin Scale   =       1.2000000000000000 [-]
	 SCS Same-Spin Energy      =      -0.1084681908979865 [Eh]
	 SCS Opposite-Spin Energy  =      -1.2076761232198856 [Eh]
	 SCS Correlation Energy    =      -1.3161443141178721 [Eh]
	 SCS Total Energy          =    -322.7452951968150501 [Eh]
	-----------------------------------------------------------

  Dipole Moment: [D]
     X:     4.1169      Y:     0.1490      Z:    -0.6552     Total:     4.1714

*** Psi4 exiting successfully. Buy a developer a beer!
