                               Psi4 1.3.2 release

  ==> Input File <==

--------------------------------------------------------------------------
#psi4
#
memory 32 gb

molecule  {
-1 1
  O       -1.4366360    -1.1870470     0.0571230
  O       -1.4476160     1.0691130    -0.2107340
  N        1.3174493     1.2547813     0.0316960
  C        0.6179830     0.0092170     0.3932550
  C        1.4577791    -1.0812888    -0.2542552
  C       -0.8878250    -0.0451320     0.0288030
  H        0.6585810    -0.1007720     1.4894850
  H        2.4544500    -1.1027320     0.0899700
  H        0.9700140    -2.0919800     0.0583780
  H        1.3764410    -1.0627810    -1.3188240
  H        0.5133110     1.9810410     0.1712720
  H        1.4338170     1.2887330    -0.9390950
units angstrom
no_reorient  #important for SAPT in psi4, default
symmetry c1  #important for SAPT in psi4, default
}

set PROPERTIES_ORIGIN ["COM"]
properties('MP2/aug-cc-pvtz', properties = ['dipole'])
--------------------------------------------------------------------------

    Molecular point group: c1
  Charge       = -1
  Multiplicity = 1
  Basis Set: AUG-CC-PVTZ
    Blend: AUG-CC-PVTZ
  Basis Set: (AUG-CC-PVTZ AUX)
    Blend: AUG-CC-PVTZ-JKFIT

    Orbital Energies [Eh]
    ---------------------

    Doubly Occupied:

       1A    -20.304566     2A    -20.299979     3A    -15.386500
       4A    -11.143855     5A    -11.094523     6A    -11.069256
       7A     -1.171608     8A     -1.070612     9A     -1.023605
      10A     -0.837777    11A     -0.698886    12A     -0.543539
      13A     -0.486568    14A     -0.465673    15A     -0.447338
      16A     -0.405768    17A     -0.385958    18A     -0.378837
      19A     -0.325987    20A     -0.314895    21A     -0.282047
      22A     -0.217478    23A     -0.202060    24A     -0.195939

  @DF-RHF Final Energy:  -321.41340455391509

   => Energetics <=

    Nuclear Repulsion Energy =            237.7582217514370768
    One-Electron Energy =                -920.8367428250072635
    Two-Electron Energy =                 361.6651165196551005
    Total Energy =                       -321.4134045539150861
  Basis Set: (AUG-CC-PVTZ AUX)
    Blend: AUG-CC-PVTZ-RI
    Molecular point group: c1

    Geometry (in Angstrom), charge = -1, multiplicity = 1:

       Center              X                  Y                   Z               Mass
    ------------   -----------------  -----------------  -----------------  -----------------
         O           -1.368880227924    -1.200461346109     0.062255286826    15.994914619570
         O           -1.379860227924     1.055698653891    -0.205601713174    15.994914619570
         N            1.385205072076     1.241366953891     0.036828286826    14.003074004430
         C            0.685738772076    -0.004197346109     0.398387286826    12.000000000000
         C            1.525534872076    -1.094703146109    -0.249122913174    12.000000000000
         C           -0.820069227924    -0.058546346109     0.033935286826    12.000000000000
         H            0.726336772076    -0.114186346109     1.494617286826     1.007825032230
         H            2.522205772076    -1.116146346109     0.095102286826     1.007825032230
         H            1.037769772076    -2.105394346109     0.063510286826     1.007825032230
         H            1.444196772076    -1.076195346109    -1.313691713174     1.007825032230
         H            0.581066772076     1.967626653891     0.176404286826     1.007825032230
         H            1.501572772076     1.275318653891    -0.933962713174     1.007825032230

  Basis Set: AUG-CC-PVTZ
    Blend: AUG-CC-PVTZ
  Basis Set: (AUG-CC-PVTZ AUX)
    Blend: AUG-CC-PVTZ-JKFIT
	 Reference Energy          =    -321.4134045539150861 [Eh]
	 Singles Energy            =      -0.0000000000000000 [Eh]
	 Same-Spin Energy          =      -0.3263385316932699 [Eh]
	 Opposite-Spin Energy      =      -1.0081903711231524 [Eh]
	 Correlation Energy        =      -1.3345289028164222 [Eh]
	 Total Energy              =    -322.7479334567315163 [Eh]

	 ================> DF-SCS-MP2 Energies <==================
	-----------------------------------------------------------
	 SCS Same-Spin Scale       =       0.3333333333333333 [-]
	 SCS Opposite-Spin Scale   =       1.2000000000000000 [-]
	 SCS Same-Spin Energy      =      -0.1087795105644233 [Eh]
	 SCS Opposite-Spin Energy  =      -1.2098284453477828 [Eh]
	 SCS Correlation Energy    =      -1.3186079559122061 [Eh]
	 SCS Total Energy          =    -322.7320125098273138 [Eh]
	-----------------------------------------------------------

  Dipole Moment: [D]
     X:     4.3957      Y:    -0.0562      Z:    -0.2242     Total:     4.4018

*** Psi4 exiting successfully. Buy a developer a beer!
