                               Psi4 1.4a3.dev225

  ==> Input File <==

--------------------------------------------------------------------------
#psi4
#
memory 32 gb

molecule  {
-1 1
  O       -1.6933650     0.8030190    -0.4602720
  O       -1.1174780    -1.0749000     0.6904900
  N        1.4364130    -1.0622120    -0.3332000
  C        0.6238426     0.1415027    -0.4166822
  C        1.1905680     1.2200680     0.5150430
  C       -0.8738120    -0.0689040    -0.0451960
  H        0.6528320     0.5329630    -1.4473970
  H        2.2305690     1.4435080     0.2589170
  H        0.6009540     2.1390560     0.4596660
  H        1.1629700     0.8554330     1.5482090
  H        1.1631630    -1.6605680    -1.1160450
  H        1.0447980    -1.5551690     0.4751990
units angstrom
no_reorient  #important for SAPT in psi4, default
symmetry c1  #important for SAPT in psi4, default
}

set PROPERTIES_ORIGIN ["COM"]
properties('MP2/aug-cc-pvtz', properties = ['dipole'])
--------------------------------------------------------------------------

    Molecular point group: c1
  Charge       = -1
  Multiplicity = 1
  Basis Set: AUG-CC-PVTZ
    Blend: AUG-CC-PVTZ
  Basis Set: (AUG-CC-PVTZ AUX)
    Blend: AUG-CC-PVTZ-JKFIT

    Orbital Energies [Eh]
    ---------------------

    Doubly Occupied:

       1A    -20.302315     2A    -20.298846     3A    -15.388207
       4A    -11.140314     5A    -11.092346     6A    -11.070017
       7A     -1.169584     8A     -1.069554     9A     -1.027118
      10A     -0.841323    11A     -0.686060    12A     -0.543300
      13A     -0.507807    14A     -0.462015    15A     -0.423962
      16A     -0.406410    17A     -0.394045    18A     -0.367949
      19A     -0.347568    20A     -0.315322    21A     -0.283496
      22A     -0.216118    23A     -0.200432    24A     -0.191087

  @DF-RHF Final Energy:  -321.42865531880585

   => Energetics <=

    Nuclear Repulsion Energy =            238.1751376885564753
    One-Electron Energy =                -921.7171972143664789
    Two-Electron Energy =                 362.1134042070041801
    Total Energy =                       -321.4286553188058519
  Basis Set: (AUG-CC-PVTZ AUX)
    Blend: AUG-CC-PVTZ-RI
    Molecular point group: c1

    Geometry (in Angstrom), charge = -1, multiplicity = 1:

       Center              X                  Y                   Z               Mass
    ------------   -----------------  -----------------  -----------------  -----------------
         O           -1.617843699582     0.825077062045    -0.458391223894    15.994914619570
         O           -1.041956699582    -1.052841937955     0.692370776106    15.994914619570
         N            1.511934300418    -1.040153937955    -0.331319223894    14.003074004430
         C            0.699363900418     0.163560762045    -0.414801423894    12.000000000000
         C            1.266089300418     1.242126062045     0.516923776106    12.000000000000
         C           -0.798290699582    -0.046845937955    -0.043315223894    12.000000000000
         H            0.728353300418     0.555021062045    -1.445516223894     1.007825032230
         H            2.306090300418     1.465566062045     0.260797776106     1.007825032230
         H            0.676475300418     2.161114062045     0.461546776106     1.007825032230
         H            1.238491300418     0.877491062045     1.550089776106     1.007825032230
         H            1.238684300418    -1.638509937955    -1.114164223894     1.007825032230
         H            1.120319300418    -1.533110937955     0.477079776106     1.007825032230

  Basis Set: AUG-CC-PVTZ
    Blend: AUG-CC-PVTZ
  Basis Set: (AUG-CC-PVTZ AUX)
    Blend: AUG-CC-PVTZ-JKFIT
	 Reference Energy          =    -321.4286553188058519 [Eh]
	 Singles Energy            =      -0.0000000000000000 [Eh]
	 Same-Spin Energy          =      -0.3256256736685110 [Eh]
	 Opposite-Spin Energy      =      -1.0066674646765734 [Eh]
	 Correlation Energy        =      -1.3322931383450844 [Eh]
	 Total Energy              =    -322.7609484571509597 [Eh]

	 ================> DF-SCS-MP2 Energies <==================
	-----------------------------------------------------------
	 SCS Same-Spin Scale       =       0.3333333333333333 [-]
	 SCS Opposite-Spin Scale   =       1.2000000000000000 [-]
	 SCS Same-Spin Energy      =      -0.1085418912228370 [Eh]
	 SCS Opposite-Spin Energy  =      -1.2080009576118880 [Eh]
	 SCS Correlation Energy    =      -1.3165428488347251 [Eh]
	 SCS Total Energy          =    -322.7451981676405808 [Eh]
	-----------------------------------------------------------

  Dipole Moment: [D]
     X:     4.1404      Y:     0.2502      Z:    -0.7638     Total:     4.2177

*** Psi4 exiting successfully. Buy a developer a beer!
