                               Psi4 1.3.2 release

  ==> Input File <==

--------------------------------------------------------------------------
#psi4
#
memory 32 gb

molecule  {
-1 1
  O       -1.4366360    -1.1870470     0.0571230
  O       -1.4089156     1.0893172    -0.2030923
  N        1.2636070     1.2939420     0.0706720
  C        0.6163594     0.0630396     0.3879201
  C        1.4068670    -1.1350240    -0.2248910
  C       -0.8878250    -0.0451320     0.0288030
  H        0.6585810    -0.1007720     1.4894850
  H        2.4544500    -1.1027320     0.0899700
  H        0.9700140    -2.0919800     0.0583780
  H        1.3764410    -1.0627810    -1.3188240
  H        0.5133110     1.9810410     0.1712720
  H        1.4338170     1.2887330    -0.9390950
units angstrom
no_reorient  #important for SAPT in psi4, default
symmetry c1  #important for SAPT in psi4, default
}

set PROPERTIES_ORIGIN ["COM"]
properties('MP2/aug-cc-pvtz', properties = ['dipole'])
--------------------------------------------------------------------------

    Molecular point group: c1
  Charge       = -1
  Multiplicity = 1
  Basis Set: AUG-CC-PVTZ
    Blend: AUG-CC-PVTZ
  Basis Set: (AUG-CC-PVTZ AUX)
    Blend: AUG-CC-PVTZ-JKFIT

    Orbital Energies [Eh]
    ---------------------

    Doubly Occupied:

       1A    -20.302382     2A    -20.301572     3A    -15.385498
       4A    -11.141702     5A    -11.091535     6A    -11.070047
       7A     -1.170733     8A     -1.073760     9A     -1.032929
      10A     -0.832258    11A     -0.692211    12A     -0.540284
      13A     -0.504852    14A     -0.460281    15A     -0.444066
      16A     -0.401867    17A     -0.386810    18A     -0.369912
      19A     -0.349018    20A     -0.310986    21A     -0.280133
      22A     -0.217357    23A     -0.202696    24A     -0.191818

  @DF-RHF Final Energy:  -321.42514870568613

   => Energetics <=

    Nuclear Repulsion Energy =            238.3795781031007834
    One-Electron Energy =                -922.1000416234953718
    Two-Electron Energy =                 362.2953148147084335
    Total Energy =                       -321.4251487056861265
  Basis Set: (AUG-CC-PVTZ AUX)
    Blend: AUG-CC-PVTZ-RI
    Molecular point group: c1

    Geometry (in Angstrom), charge = -1, multiplicity = 1:

       Center              X                  Y                   Z               Mass
    ------------   -----------------  -----------------  -----------------  -----------------
         O           -1.360186704618    -1.210372578353     0.051392436491    15.994914619570
         O           -1.332466304618     1.065991621647    -0.208822863509    15.994914619570
         N            1.340056295382     1.270616421647     0.064941436491    14.003074004430
         C            0.692808695382     0.039714021647     0.382189536491    12.000000000000
         C            1.483316295382    -1.158349578353    -0.230621563509    12.000000000000
         C           -0.811375704618    -0.068457578353     0.023072436491    12.000000000000
         H            0.735030295382    -0.124097578353     1.483754436491     1.007825032230
         H            2.530899295382    -1.126057578353     0.084239436491     1.007825032230
         H            1.046463295382    -2.115305578353     0.052647436491     1.007825032230
         H            1.452890295382    -1.086106578353    -1.324554563509     1.007825032230
         H            0.589760295382     1.957715421647     0.165541436491     1.007825032230
         H            1.510266295382     1.265407421647    -0.944825563509     1.007825032230

  Basis Set: AUG-CC-PVTZ
    Blend: AUG-CC-PVTZ
  Basis Set: (AUG-CC-PVTZ AUX)
    Blend: AUG-CC-PVTZ-JKFIT
	 Reference Energy          =    -321.4251487056861265 [Eh]
	 Singles Energy            =      -0.0000000000000000 [Eh]
	 Same-Spin Energy          =      -0.3258819781023810 [Eh]
	 Opposite-Spin Energy      =      -1.0066663099112172 [Eh]
	 Correlation Energy        =      -1.3325482880135981 [Eh]
	 Total Energy              =    -322.7576969936997102 [Eh]

	 ================> DF-SCS-MP2 Energies <==================
	-----------------------------------------------------------
	 SCS Same-Spin Scale       =       0.3333333333333333 [-]
	 SCS Opposite-Spin Scale   =       1.2000000000000000 [-]
	 SCS Same-Spin Energy      =      -0.1086273260341270 [Eh]
	 SCS Opposite-Spin Energy  =      -1.2079995718934606 [Eh]
	 SCS Correlation Energy    =      -1.3166268979275877 [Eh]
	 SCS Total Energy          =    -322.7417756036136893 [Eh]
	-----------------------------------------------------------

  Dipole Moment: [D]
     X:     4.3632      Y:     0.0016      Z:    -0.2490     Total:     4.3703

*** Psi4 exiting successfully. Buy a developer a beer!
