                               Psi4 1.3.2 release

  ==> Input File <==

--------------------------------------------------------------------------
#psi4
#
memory 32 gb

molecule  {
-1 1
  O       -1.4366360    -1.1870470     0.0571230
  O       -1.4476160     1.0691130    -0.2107340
  N        1.2544463     1.2850073     0.0208545
  C        0.6179830     0.0092170     0.3932550
  C        1.4068670    -1.1350240    -0.2248910
  C       -0.8878250    -0.0451320     0.0288030
  H        0.6405229    -0.1345834     1.4860859
  H        2.4544500    -1.1027320     0.0899700
  H        0.9700140    -2.0919800     0.0583780
  H        1.3764410    -1.0627810    -1.3188240
  H        0.5133110     1.9810410     0.1712720
  H        1.4338170     1.2887330    -0.9390950
units angstrom
no_reorient  #important for SAPT in psi4, default
symmetry c1  #important for SAPT in psi4, default
}

set PROPERTIES_ORIGIN ["COM"]
properties('MP2/aug-cc-pvtz', properties = ['dipole'])
--------------------------------------------------------------------------

    Molecular point group: c1
  Charge       = -1
  Multiplicity = 1
  Basis Set: AUG-CC-PVTZ
    Blend: AUG-CC-PVTZ
  Basis Set: (AUG-CC-PVTZ AUX)
    Blend: AUG-CC-PVTZ-JKFIT

    Orbital Energies [Eh]
    ---------------------

    Doubly Occupied:

       1A    -20.301274     2A    -20.297476     3A    -15.379675
       4A    -11.140012     5A    -11.093630     6A    -11.070472
       7A     -1.169351     8A     -1.068514     9A     -1.024413
      10A     -0.843266    11A     -0.696601    12A     -0.537127
      13A     -0.505915    14A     -0.459910    15A     -0.451529
      16A     -0.400838    17A     -0.387192    18A     -0.372140
      19A     -0.346961    20A     -0.318471    21A     -0.275712
      22A     -0.214695    23A     -0.199719    24A     -0.191514

  @DF-RHF Final Energy:  -321.42746463609006

   => Energetics <=

    Nuclear Repulsion Energy =            238.2941153588130021
    One-Electron Energy =                -921.9503375145892505
    Two-Electron Energy =                 362.2287575196862122
    Total Energy =                       -321.4274646360900647
  Basis Set: (AUG-CC-PVTZ AUX)
    Blend: AUG-CC-PVTZ-RI
    Molecular point group: c1

    Geometry (in Angstrom), charge = -1, multiplicity = 1:

       Center              X                  Y                   Z               Mass
    ------------   -----------------  -----------------  -----------------  -----------------
         O           -1.351713226643    -1.197557644541     0.060016182973    15.994914619570
         O           -1.362693226643     1.058602355459    -0.207840817027    15.994914619570
         N            1.339369073357     1.274496655459     0.023747682973    14.003074004430
         C            0.702905773357    -0.001293644541     0.396148182973    12.000000000000
         C            1.491789773357    -1.145534644541    -0.221997817027    12.000000000000
         C           -0.802902226643    -0.055642644541     0.031696182973    12.000000000000
         H            0.725445673357    -0.145094044541     1.488979082973     1.007825032230
         H            2.539372773357    -1.113242644541     0.092863182973     1.007825032230
         H            1.054936773357    -2.102490644541     0.061271182973     1.007825032230
         H            1.461363773357    -1.073291644541    -1.315930817027     1.007825032230
         H            0.598233773357     1.970530355459     0.174165182973     1.007825032230
         H            1.518739773357     1.278222355459    -0.936201817027     1.007825032230

  Basis Set: AUG-CC-PVTZ
    Blend: AUG-CC-PVTZ
  Basis Set: (AUG-CC-PVTZ AUX)
    Blend: AUG-CC-PVTZ-JKFIT
	 Reference Energy          =    -321.4274646360900647 [Eh]
	 Singles Energy            =      -0.0000000000000000 [Eh]
	 Same-Spin Energy          =      -0.3253526754611509 [Eh]
	 Opposite-Spin Energy      =      -1.0056678678653856 [Eh]
	 Correlation Energy        =      -1.3310205433265365 [Eh]
	 Total Energy              =    -322.7584851794165957 [Eh]

	 ================> DF-SCS-MP2 Energies <==================
	-----------------------------------------------------------
	 SCS Same-Spin Scale       =       0.3333333333333333 [-]
	 SCS Opposite-Spin Scale   =       1.2000000000000000 [-]
	 SCS Same-Spin Energy      =      -0.1084508918203836 [Eh]
	 SCS Opposite-Spin Energy  =      -1.2068014414384627 [Eh]
	 SCS Correlation Energy    =      -1.3152523332588464 [Eh]
	 SCS Total Energy          =    -322.7427169693489191 [Eh]
	-----------------------------------------------------------

  Dipole Moment: [D]
     X:     4.4795      Y:    -0.0981      Z:    -0.1916     Total:     4.4847

*** Psi4 exiting successfully. Buy a developer a beer!
