                               Psi4 1.3.2 release

  ==> Input File <==

--------------------------------------------------------------------------
#psi4
#
memory 32 gb

molecule  {
-1 1
  O       -1.3973204    -1.2048450     0.0668255
  O       -1.4083888     1.0890654    -0.2054949
  N        1.2636070     1.2939420     0.0706720
  C        0.6179830     0.0092170     0.3932550
  C        1.4068670    -1.1350240    -0.2248910
  C       -0.8878250    -0.0451320     0.0288030
  H        0.6585810    -0.1007720     1.4894850
  H        2.4544500    -1.1027320     0.0899700
  H        0.9700140    -2.0919800     0.0583780
  H        1.3764410    -1.0627810    -1.3188240
  H        0.5133110     1.9810410     0.1712720
  H        1.4338170     1.2887330    -0.9390950
units angstrom
no_reorient  #important for SAPT in psi4, default
symmetry c1  #important for SAPT in psi4, default
}

set PROPERTIES_ORIGIN ["COM"]
properties('MP2/aug-cc-pvtz', properties = ['dipole'])
--------------------------------------------------------------------------

    Molecular point group: c1
  Charge       = -1
  Multiplicity = 1
  Basis Set: AUG-CC-PVTZ
    Blend: AUG-CC-PVTZ
  Basis Set: (AUG-CC-PVTZ AUX)
    Blend: AUG-CC-PVTZ-JKFIT

    Orbital Energies [Eh]
    ---------------------

    Doubly Occupied:

       1A    -20.306108     2A    -20.302268     3A    -15.382099
       4A    -11.143479     5A    -11.088457     6A    -11.068558
       7A     -1.171194     8A     -1.076709     9A     -1.018018
      10A     -0.838797    11A     -0.691314    12A     -0.537460
      13A     -0.498979    14A     -0.461915    15A     -0.439567
      16A     -0.402497    17A     -0.386986    18A     -0.371204
      19A     -0.345633    20A     -0.317891    21A     -0.277651
      22A     -0.220642    23A     -0.205050    24A     -0.191025

  @DF-RHF Final Energy:  -321.42770755069421

   => Energetics <=

    Nuclear Repulsion Energy =            238.4411811873655438
    One-Electron Energy =                -922.2507788781790623
    Two-Electron Energy =                 362.3818901401192534
    Total Energy =                       -321.4277075506942083
  Basis Set: (AUG-CC-PVTZ AUX)
    Blend: AUG-CC-PVTZ-RI
    Molecular point group: c1

    Geometry (in Angstrom), charge = -1, multiplicity = 1:

       Center              X                  Y                   Z               Mass
    ------------   -----------------  -----------------  -----------------  -----------------
         O           -1.328330896526    -1.217555201641     0.059041547370    15.994914619570
         O           -1.339399296526     1.076355198359    -0.213278852630    15.994914619570
         N            1.332596503474     1.281231798359     0.062888047370    14.003074004430
         C            0.686972503474    -0.003493201641     0.385471047370    12.000000000000
         C            1.475856503474    -1.147734201641    -0.232674952630    12.000000000000
         C           -0.818835496526    -0.057842201641     0.021019047370    12.000000000000
         H            0.727570503474    -0.113482201641     1.481701047370     1.007825032230
         H            2.523439503474    -1.115442201641     0.082186047370     1.007825032230
         H            1.039003503474    -2.104690201641     0.050594047370     1.007825032230
         H            1.445430503474    -1.075491201641    -1.326607952630     1.007825032230
         H            0.582300503474     1.968330798359     0.163488047370     1.007825032230
         H            1.502806503474     1.276022798359    -0.946878952630     1.007825032230

  Basis Set: AUG-CC-PVTZ
    Blend: AUG-CC-PVTZ
  Basis Set: (AUG-CC-PVTZ AUX)
    Blend: AUG-CC-PVTZ-JKFIT
	 Reference Energy          =    -321.4277075506942083 [Eh]
	 Singles Energy            =      -0.0000000000000000 [Eh]
	 Same-Spin Energy          =      -0.3258406427182715 [Eh]
	 Opposite-Spin Energy      =      -1.0069014786996684 [Eh]
	 Correlation Energy        =      -1.3327421214179398 [Eh]
	 Total Energy              =    -322.7604496721121450 [Eh]

	 ================> DF-SCS-MP2 Energies <==================
	-----------------------------------------------------------
	 SCS Same-Spin Scale       =       0.3333333333333333 [-]
	 SCS Opposite-Spin Scale   =       1.2000000000000000 [-]
	 SCS Same-Spin Energy      =      -0.1086135475727572 [Eh]
	 SCS Opposite-Spin Energy  =      -1.2082817744396019 [Eh]
	 SCS Correlation Energy    =      -1.3168953220123591 [Eh]
	 SCS Total Energy          =    -322.7446028727065936 [Eh]
	-----------------------------------------------------------

  Dipole Moment: [D]
     X:     4.2038      Y:    -0.1431      Z:    -0.2436     Total:     4.2133

*** Psi4 exiting successfully. Buy a developer a beer!
