                               Psi4 1.3.2 release

  ==> Input File <==

--------------------------------------------------------------------------
#psi4
#
memory 32 gb

molecule  {
-1 1
  O       -1.4366360    -1.1870470     0.0571230
  O       -1.4476160     1.0691130    -0.2107340
  N        1.2636070     1.2939420     0.0706720
  C        0.6179830     0.0092170     0.3932550
  C        1.4068670    -1.1350240    -0.2248910
  C       -0.7996521    -0.2206371     0.0665325
  H        0.6585810    -0.1007720     1.4894850
  H        2.4544500    -1.1027320     0.0899700
  H        0.9700140    -2.0919800     0.0583780
  H        1.3764410    -1.0627810    -1.3188240
  H        0.5133110     1.9810410     0.1712720
  H        1.4338170     1.2887330    -0.9390950
units angstrom
no_reorient  #important for SAPT in psi4, default
symmetry c1  #important for SAPT in psi4, default
}

set PROPERTIES_ORIGIN ["COM"]
properties('MP2/aug-cc-pvtz', properties = ['dipole'])
--------------------------------------------------------------------------

    Molecular point group: c1
  Charge       = -1
  Multiplicity = 1
  Basis Set: AUG-CC-PVTZ
    Blend: AUG-CC-PVTZ
  Basis Set: (AUG-CC-PVTZ AUX)
    Blend: AUG-CC-PVTZ-JKFIT

    Orbital Energies [Eh]
    ---------------------

    Doubly Occupied:

       1A    -20.336093     2A    -20.259947     3A    -15.388343
       4A    -11.141852     5A    -11.101668     6A    -11.079243
       7A     -1.227027     8A     -1.037539     9A     -0.972969
      10A     -0.859642    11A     -0.716599    12A     -0.554075
      13A     -0.504693    14A     -0.481859    15A     -0.450047
      16A     -0.409762    17A     -0.385890    18A     -0.382378
      19A     -0.355560    20A     -0.330980    21A     -0.278041
      22A     -0.190821    23A     -0.175795    24A     -0.169127

  @DF-RHF Final Energy:  -321.37471288433011

   => Energetics <=

    Nuclear Repulsion Energy =            238.3057568250521854
    One-Electron Energy =                -921.7810417971717243
    Two-Electron Energy =                 362.1005720877894305
    Total Energy =                       -321.3747128843301084
  Basis Set: (AUG-CC-PVTZ AUX)
    Blend: AUG-CC-PVTZ-RI
    Molecular point group: c1

    Geometry (in Angstrom), charge = -1, multiplicity = 1:

       Center              X                  Y                   Z               Mass
    ------------   -----------------  -----------------  -----------------  -----------------
         O           -1.365395123173    -1.175444114323     0.046911006257    15.994914619570
         O           -1.376375123173     1.080715885677    -0.220945993743    15.994914619570
         N            1.334847876827     1.305544885677     0.060460006257    14.003074004430
         C            0.689223876827     0.020819885677     0.383043006257    12.000000000000
         C            1.478107876827    -1.123421114323    -0.235102993743    12.000000000000
         C           -0.728411223173    -0.209034214323     0.056320506257    12.000000000000
         H            0.729821876827    -0.089169114323     1.479273006257     1.007825032230
         H            2.525690876827    -1.091129114323     0.079758006257     1.007825032230
         H            1.041254876827    -2.080377114323     0.048166006257     1.007825032230
         H            1.447681876827    -1.051178114323    -1.329035993743     1.007825032230
         H            0.584551876827     1.992643885677     0.161060006257     1.007825032230
         H            1.505057876827     1.300335885677    -0.949306993743     1.007825032230

  Basis Set: AUG-CC-PVTZ
    Blend: AUG-CC-PVTZ
  Basis Set: (AUG-CC-PVTZ AUX)
    Blend: AUG-CC-PVTZ-JKFIT
	 Reference Energy          =    -321.3747128843301084 [Eh]
	 Singles Energy            =      -0.0000000000000000 [Eh]
	 Same-Spin Energy          =      -0.3278054651044811 [Eh]
	 Opposite-Spin Energy      =      -1.0115789264034585 [Eh]
	 Correlation Energy        =      -1.3393843915079395 [Eh]
	 Total Energy              =    -322.7140972758380713 [Eh]

	 ================> DF-SCS-MP2 Energies <==================
	-----------------------------------------------------------
	 SCS Same-Spin Scale       =       0.3333333333333333 [-]
	 SCS Opposite-Spin Scale   =       1.2000000000000000 [-]
	 SCS Same-Spin Energy      =      -0.1092684883681603 [Eh]
	 SCS Opposite-Spin Energy  =      -1.2138947116841501 [Eh]
	 SCS Correlation Energy    =      -1.3231632000523104 [Eh]
	 SCS Total Energy          =    -322.6978760843824148 [Eh]
	-----------------------------------------------------------

  Dipole Moment: [D]
     X:     5.0141      Y:    -1.9461      Z:     0.1002     Total:     5.3795

*** Psi4 exiting successfully. Buy a developer a beer!
