                               Psi4 1.3.2 release

  ==> Input File <==

--------------------------------------------------------------------------
#psi4
#
memory 32 gb

molecule  {
-1 1
  O       -1.4366360    -1.1870470     0.0571230
  O       -1.4476160     1.0691130    -0.2107340
  N        1.2636070     1.2939420     0.0706720
  C        0.6179830     0.0092170     0.3932550
  C        1.4068670    -1.1350240    -0.2248910
  C       -0.8878250    -0.0451320     0.0288030
  H        0.6585810    -0.1007720     1.4894850
  H        2.4544500    -1.1027320     0.0899700
  H        0.9700140    -2.0919800     0.0583780
  H        1.3764410    -1.0627810    -1.3188240
  H        0.6600918     1.8466235     0.1515916
  H        1.4338170     1.2887330    -0.9390950
units angstrom
no_reorient  #important for SAPT in psi4, default
symmetry c1  #important for SAPT in psi4, default
}

set PROPERTIES_ORIGIN ["COM"]
properties('MP2/aug-cc-pvtz', properties = ['dipole'])
--------------------------------------------------------------------------

    Molecular point group: c1
  Charge       = -1
  Multiplicity = 1
  Basis Set: AUG-CC-PVTZ
    Blend: AUG-CC-PVTZ
  Basis Set: (AUG-CC-PVTZ AUX)
    Blend: AUG-CC-PVTZ-JKFIT

    Orbital Energies [Eh]
    ---------------------

    Doubly Occupied:

       1A    -20.301520     2A    -20.298289     3A    -15.365213
       4A    -11.141511     5A    -11.094051     6A    -11.071594
       7A     -1.170215     8A     -1.072521     9A     -1.055435
      10A     -0.855140    11A     -0.698454    12A     -0.550968
      13A     -0.530256    14A     -0.460346    15A     -0.443721
      16A     -0.403059    17A     -0.387556    18A     -0.374043
      19A     -0.357244    20A     -0.320449    21A     -0.283171
      22A     -0.215487    23A     -0.199810    24A     -0.194966

  @DF-RHF Final Energy:  -321.38601501844494

   => Energetics <=

    Nuclear Repulsion Energy =            239.0093727674562274
    One-Electron Energy =                -923.1007382193253079
    Two-Electron Energy =                 362.7053504334240870
    Total Energy =                       -321.3860150184449367
  Basis Set: (AUG-CC-PVTZ AUX)
    Blend: AUG-CC-PVTZ-RI
    Molecular point group: c1

    Geometry (in Angstrom), charge = -1, multiplicity = 1:

       Center              X                  Y                   Z               Mass
    ------------   -----------------  -----------------  -----------------  -----------------
         O           -1.355057243225    -1.197827067063     0.052278897971    15.994914619570
         O           -1.366037243225     1.058332932937    -0.215578102029    15.994914619570
         N            1.345185756775     1.283161932937     0.065827897971    14.003074004430
         C            0.699561756775    -0.001563067063     0.388410897971    12.000000000000
         C            1.488445756775    -1.145804067063    -0.229735102029    12.000000000000
         C           -0.806246243225    -0.055912067063     0.023958897971    12.000000000000
         H            0.740159756775    -0.111552067063     1.484640897971     1.007825032230
         H            2.536028756775    -1.113512067063     0.085125897971     1.007825032230
         H            1.051592756775    -2.102760067063     0.053533897971     1.007825032230
         H            1.458019756775    -1.073561067063    -1.323668102029     1.007825032230
         H            0.741670556775     1.835843432937     0.146747497971     1.007825032230
         H            1.515395756775     1.277952932937    -0.943939102029     1.007825032230

  Basis Set: AUG-CC-PVTZ
    Blend: AUG-CC-PVTZ
  Basis Set: (AUG-CC-PVTZ AUX)
    Blend: AUG-CC-PVTZ-JKFIT
	 Reference Energy          =    -321.3860150184449367 [Eh]
	 Singles Energy            =      -0.0000000000000000 [Eh]
	 Same-Spin Energy          =      -0.3242594280521074 [Eh]
	 Opposite-Spin Energy      =      -1.0036504673767048 [Eh]
	 Correlation Energy        =      -1.3279098954288122 [Eh]
	 Total Energy              =    -322.7139249138737682 [Eh]

	 ================> DF-SCS-MP2 Energies <==================
	-----------------------------------------------------------
	 SCS Same-Spin Scale       =       0.3333333333333333 [-]
	 SCS Opposite-Spin Scale   =       1.2000000000000000 [-]
	 SCS Same-Spin Energy      =      -0.1080864760173691 [Eh]
	 SCS Opposite-Spin Energy  =      -1.2043805608520457 [Eh]
	 SCS Correlation Energy    =      -1.3124670368694149 [Eh]
	 SCS Total Energy          =    -322.6984820553143436 [Eh]
	-----------------------------------------------------------

  Dipole Moment: [D]
     X:     4.5896      Y:    -0.1683      Z:    -0.2342     Total:     4.5986

*** Psi4 exiting successfully. Buy a developer a beer!
