                               Psi4 1.3.2 release

  ==> Input File <==

--------------------------------------------------------------------------
#psi4
#
memory 32 gb

molecule  {
-1 1
  O       -1.4935495    -1.1582183     0.0389130
  O       -1.4476160     1.0691130    -0.2107340
  N        1.2636070     1.2939420     0.0706720
  C        0.6158183     0.0894482     0.3811976
  C        1.4068670    -1.1350240    -0.2248910
  C       -0.8878250    -0.0451320     0.0288030
  H        0.6585810    -0.1007720     1.4894850
  H        2.4544500    -1.1027320     0.0899700
  H        0.9700140    -2.0919800     0.0583780
  H        1.3764410    -1.0627810    -1.3188240
  H        0.5133110     1.9810410     0.1712720
  H        1.4338170     1.2887330    -0.9390950
units angstrom
no_reorient  #important for SAPT in psi4, default
symmetry c1  #important for SAPT in psi4, default
}

set PROPERTIES_ORIGIN ["COM"]
properties('MP2/aug-cc-pvtz', properties = ['dipole'])
--------------------------------------------------------------------------

    Molecular point group: c1
  Charge       = -1
  Multiplicity = 1
  Basis Set: AUG-CC-PVTZ
    Blend: AUG-CC-PVTZ
  Basis Set: (AUG-CC-PVTZ AUX)
    Blend: AUG-CC-PVTZ-JKFIT

    Orbital Energies [Eh]
    ---------------------

    Doubly Occupied:

       1A    -20.297189     2A    -20.296559     3A    -15.390643
       4A    -11.138874     5A    -11.098454     6A    -11.073532
       7A     -1.169825     8A     -1.066334     9A     -1.043320
      10A     -0.832559    11A     -0.695353    12A     -0.544137
      13A     -0.510632    14A     -0.458635    15A     -0.448421
      16A     -0.399680    17A     -0.387802    18A     -0.370125
      19A     -0.350810    20A     -0.309402    21A     -0.281760
      22A     -0.209738    23A     -0.197302    24A     -0.193878

  @DF-RHF Final Energy:  -321.41997357887834

   => Energetics <=

    Nuclear Repulsion Energy =            237.9487208072136184
    One-Electron Energy =                -921.2074507051023602
    Two-Electron Energy =                 361.8387563190104288
    Total Energy =                       -321.4199735788783414
  Basis Set: (AUG-CC-PVTZ AUX)
    Blend: AUG-CC-PVTZ-RI
    Molecular point group: c1

    Geometry (in Angstrom), charge = -1, multiplicity = 1:

       Center              X                  Y                   Z               Mass
    ------------   -----------------  -----------------  -----------------  -----------------
         O           -1.399655498533    -1.186710303822     0.038795414193    15.994914619570
         O           -1.353721998533     1.040620996178    -0.210851585807    15.994914619570
         N            1.357501001467     1.265449996178     0.070554414193    14.003074004430
         C            0.709712301467     0.060956196178     0.381080014193    12.000000000000
         C            1.500761001467    -1.163516003822    -0.225008585807    12.000000000000
         C           -0.793930998533    -0.073624003822     0.028685414193    12.000000000000
         H            0.752475001467    -0.129264003822     1.489367414193     1.007825032230
         H            2.548344001467    -1.131224003822     0.089852414193     1.007825032230
         H            1.063908001467    -2.120472003822     0.058260414193     1.007825032230
         H            1.470335001467    -1.091273003822    -1.318941585807     1.007825032230
         H            0.607205001467     1.952548996178     0.171154414193     1.007825032230
         H            1.527711001467     1.260240996178    -0.939212585807     1.007825032230

  Basis Set: AUG-CC-PVTZ
    Blend: AUG-CC-PVTZ
  Basis Set: (AUG-CC-PVTZ AUX)
    Blend: AUG-CC-PVTZ-JKFIT
	 Reference Energy          =    -321.4199735788783414 [Eh]
	 Singles Energy            =      -0.0000000000000000 [Eh]
	 Same-Spin Energy          =      -0.3258642581124789 [Eh]
	 Opposite-Spin Energy      =      -1.0065955297498159 [Eh]
	 Correlation Energy        =      -1.3324597878622948 [Eh]
	 Total Energy              =    -322.7524333667406609 [Eh]

	 ================> DF-SCS-MP2 Energies <==================
	-----------------------------------------------------------
	 SCS Same-Spin Scale       =       0.3333333333333333 [-]
	 SCS Opposite-Spin Scale   =       1.2000000000000000 [-]
	 SCS Same-Spin Energy      =      -0.1086214193708263 [Eh]
	 SCS Opposite-Spin Energy  =      -1.2079146356997790 [Eh]
	 SCS Correlation Energy    =      -1.3165360550706053 [Eh]
	 SCS Total Energy          =    -322.7365096339489696 [Eh]
	-----------------------------------------------------------

  Dipole Moment: [D]
     X:     4.6812      Y:     0.0781      Z:    -0.2199     Total:     4.6870

*** Psi4 exiting successfully. Buy a developer a beer!
