                               Psi4 1.3.2 release

  ==> Input File <==

--------------------------------------------------------------------------
#psi4
#
memory 32 gb

molecule  {
-1 1
  O       -1.4173227    -1.1959647     0.0631782
  O       -1.4476160     1.0691130    -0.2107340
  N        1.2636070     1.2939420     0.0706720
  C        0.6177874    -0.0175707     0.3970537
  C        1.4068670    -1.1350240    -0.2248910
  C       -0.8878250    -0.0451320     0.0288030
  H        0.6585810    -0.1007720     1.4894850
  H        2.4544500    -1.1027320     0.0899700
  H        0.9700140    -2.0919800     0.0583780
  H        1.3764410    -1.0627810    -1.3188240
  H        0.5133110     1.9810410     0.1712720
  H        1.4338170     1.2887330    -0.9390950
units angstrom
no_reorient  #important for SAPT in psi4, default
symmetry c1  #important for SAPT in psi4, default
}

set PROPERTIES_ORIGIN ["COM"]
properties('MP2/aug-cc-pvtz', properties = ['dipole'])
--------------------------------------------------------------------------

    Molecular point group: c1
  Charge       = -1
  Multiplicity = 1
  Basis Set: AUG-CC-PVTZ
    Blend: AUG-CC-PVTZ
  Basis Set: (AUG-CC-PVTZ AUX)
    Blend: AUG-CC-PVTZ-JKFIT

    Orbital Energies [Eh]
    ---------------------

    Doubly Occupied:

       1A    -20.304212     2A    -20.298841     3A    -15.383891
       4A    -11.142363     5A    -11.092287     6A    -11.070622
       7A     -1.170478     8A     -1.071131     9A     -1.014612
      10A     -0.845195    11A     -0.694031    12A     -0.538142
      13A     -0.498449    14A     -0.462011    15A     -0.439640
      16A     -0.400251    17A     -0.388625    18A     -0.373216
      19A     -0.345829    20A     -0.321196    21A     -0.277114
      22A     -0.217537    23A     -0.201598    24A     -0.193438

  @DF-RHF Final Energy:  -321.42766432239580

   => Energetics <=

    Nuclear Repulsion Energy =            237.9709997155509598
    One-Electron Energy =                -921.3079075724584754
    Two-Electron Energy =                 361.9092435345116883
    Total Energy =                       -321.4276643223957990
  Basis Set: (AUG-CC-PVTZ AUX)
    Blend: AUG-CC-PVTZ-RI
    Molecular point group: c1

    Geometry (in Angstrom), charge = -1, multiplicity = 1:

       Center              X                  Y                   Z               Mass
    ------------   -----------------  -----------------  -----------------  -----------------
         O           -1.337545831959    -1.203012128763     0.056490941714    15.994914619570
         O           -1.367839131959     1.062065571237    -0.217421258286    15.994914619570
         N            1.343383868041     1.286894571237     0.063984741714    14.003074004430
         C            0.697564268041    -0.024618128763     0.390366441714    12.000000000000
         C            1.486643868041    -1.142071428763    -0.231578258286    12.000000000000
         C           -0.808048131959    -0.052179428763     0.022115741714    12.000000000000
         H            0.738357868041    -0.107819428763     1.482797741714     1.007825032230
         H            2.534226868041    -1.109779428763     0.083282741714     1.007825032230
         H            1.049790868041    -2.099027428763     0.051690741714     1.007825032230
         H            1.456217868041    -1.069828428763    -1.325511258286     1.007825032230
         H            0.593087868041     1.973993571237     0.164584741714     1.007825032230
         H            1.513593868041     1.281685571237    -0.945782258286     1.007825032230

  Basis Set: AUG-CC-PVTZ
    Blend: AUG-CC-PVTZ
  Basis Set: (AUG-CC-PVTZ AUX)
    Blend: AUG-CC-PVTZ-JKFIT
	 Reference Energy          =    -321.4276643223957990 [Eh]
	 Singles Energy            =      -0.0000000000000000 [Eh]
	 Same-Spin Energy          =      -0.3256523046480836 [Eh]
	 Opposite-Spin Energy      =      -1.0068535477410983 [Eh]
	 Correlation Energy        =      -1.3325058523891817 [Eh]
	 Total Energy              =    -322.7601701747850029 [Eh]

	 ================> DF-SCS-MP2 Energies <==================
	-----------------------------------------------------------
	 SCS Same-Spin Scale       =       0.3333333333333333 [-]
	 SCS Opposite-Spin Scale   =       1.2000000000000000 [-]
	 SCS Same-Spin Energy      =      -0.1085507682160279 [Eh]
	 SCS Opposite-Spin Energy  =      -1.2082242572893178 [Eh]
	 SCS Correlation Energy    =      -1.3167750255053456 [Eh]
	 SCS Total Energy          =    -322.7444393479011637 [Eh]
	-----------------------------------------------------------

  Dipole Moment: [D]
     X:     4.3658      Y:    -0.2059      Z:    -0.2114     Total:     4.3758

*** Psi4 exiting successfully. Buy a developer a beer!
