                               Psi4 1.4a3.dev225

  ==> Input File <==

--------------------------------------------------------------------------
#psi4
#
memory 32 gb

molecule  {
-1 1
  O       -1.6933650     0.8030190    -0.4602720
  O       -1.1174780    -1.0749000     0.6904900
  N        1.4364130    -1.0622120    -0.3332000
  C        0.6126710     0.1580520    -0.4178300
  C        1.1905680     1.2200680     0.5150430
  C       -0.8738120    -0.0689040    -0.0451960
  H        0.6528320     0.5329630    -1.4473970
  H        2.2305690     1.4435080     0.2589170
  H        0.6009540     2.1390560     0.4596660
  H        1.1629700     0.8554330     1.5482090
  H        1.1578183    -1.6722716    -1.1313571
  H        1.0447980    -1.5551690     0.4751990
units angstrom
no_reorient  #important for SAPT in psi4, default
symmetry c1  #important for SAPT in psi4, default
}

set PROPERTIES_ORIGIN ["COM"]
properties('MP2/aug-cc-pvtz', properties = ['dipole'])
--------------------------------------------------------------------------

    Molecular point group: c1
  Charge       = -1
  Multiplicity = 1
  Basis Set: AUG-CC-PVTZ
    Blend: AUG-CC-PVTZ
  Basis Set: (AUG-CC-PVTZ AUX)
    Blend: AUG-CC-PVTZ-JKFIT

    Orbital Energies [Eh]
    ---------------------

    Doubly Occupied:

       1A    -20.302607     2A    -20.298752     3A    -15.389901
       4A    -11.140417     5A    -11.092437     6A    -11.070488
       7A     -1.169939     8A     -1.069548     9A     -1.019235
      10A     -0.842350    11A     -0.687717    12A     -0.543548
      13A     -0.501499    14A     -0.461455    15A     -0.423378
      16A     -0.407396    17A     -0.395117    18A     -0.365402
      19A     -0.346477    20A     -0.317569    21A     -0.281858
      22A     -0.216476    23A     -0.200606    24A     -0.192586

  @DF-RHF Final Energy:  -321.42798861997238

   => Energetics <=

    Nuclear Repulsion Energy =            238.0502310526725864
    One-Electron Energy =                -921.4829223301543379
    Two-Electron Energy =                 362.0047026575094264
    Total Energy =                       -321.4279886199723819
  Basis Set: (AUG-CC-PVTZ AUX)
    Blend: AUG-CC-PVTZ-RI
    Molecular point group: c1

    Geometry (in Angstrom), charge = -1, multiplicity = 1:

       Center              X                  Y                   Z               Mass
    ------------   -----------------  -----------------  -----------------  -----------------
         O           -1.616259806413     0.822955336353    -0.458059493246    15.994914619570
         O           -1.040372806413    -1.054963663647     0.692702506754    15.994914619570
         N            1.513518193587    -1.042275663647    -0.330987493246    14.003074004430
         C            0.689776193587     0.177988336353    -0.415617493246    12.000000000000
         C            1.267673193587     1.240004336353     0.517255506754    12.000000000000
         C           -0.796706806413    -0.048967663647    -0.042983493246    12.000000000000
         H            0.729937193587     0.552899336353    -1.445184493246     1.007825032230
         H            2.307674193587     1.463444336353     0.261129506754     1.007825032230
         H            0.678059193587     2.158992336353     0.461878506754     1.007825032230
         H            1.240075193587     0.875369336353     1.550421506754     1.007825032230
         H            1.234923493587    -1.652335263647    -1.129144593246     1.007825032230
         H            1.121903193587    -1.535232663647     0.477411506754     1.007825032230

  Basis Set: AUG-CC-PVTZ
    Blend: AUG-CC-PVTZ
  Basis Set: (AUG-CC-PVTZ AUX)
    Blend: AUG-CC-PVTZ-JKFIT
	 Reference Energy          =    -321.4279886199723819 [Eh]
	 Singles Energy            =      -0.0000000000000000 [Eh]
	 Same-Spin Energy          =      -0.3256529434575868 [Eh]
	 Opposite-Spin Energy      =      -1.0070986891396680 [Eh]
	 Correlation Energy        =      -1.3327516325972548 [Eh]
	 Total Energy              =    -322.7607402525696330 [Eh]

	 ================> DF-SCS-MP2 Energies <==================
	-----------------------------------------------------------
	 SCS Same-Spin Scale       =       0.3333333333333333 [-]
	 SCS Opposite-Spin Scale   =       1.2000000000000000 [-]
	 SCS Same-Spin Energy      =      -0.1085509811525289 [Eh]
	 SCS Opposite-Spin Energy  =      -1.2085184269676017 [Eh]
	 SCS Correlation Energy    =      -1.3170694081201306 [Eh]
	 SCS Total Energy          =    -322.7450580280925010 [Eh]
	-----------------------------------------------------------

  Dipole Moment: [D]
     X:     4.1171      Y:     0.3144      Z:    -0.7554     Total:     4.1976

*** Psi4 exiting successfully. Buy a developer a beer!
