                               Psi4 1.4a3.dev225

  ==> Input File <==

--------------------------------------------------------------------------
#psi4
#
memory 32 gb

molecule  {
-1 1
  O       -1.6933650     0.8030190    -0.4602720
  O       -1.1174780    -1.0749000     0.6904900
  N        1.4364130    -1.0622120    -0.3332000
  C        0.6126710     0.1580520    -0.4178300
  C        1.1905680     1.2200680     0.5150430
  C       -0.8738120    -0.0689040    -0.0451960
  H        0.6520994     0.5261243    -1.4286168
  H        2.2305690     1.4435080     0.2589170
  H        0.6009540     2.1390560     0.4596660
  H        1.1629700     0.8554330     1.5482090
  H        1.1631630    -1.6605680    -1.1160450
  H        1.0447980    -1.5551690     0.4751990
units angstrom
no_reorient  #important for SAPT in psi4, default
symmetry c1  #important for SAPT in psi4, default
}

set PROPERTIES_ORIGIN ["COM"]
properties('MP2/aug-cc-pvtz', properties = ['dipole'])
--------------------------------------------------------------------------

    Molecular point group: c1
  Charge       = -1
  Multiplicity = 1
  Basis Set: AUG-CC-PVTZ
    Blend: AUG-CC-PVTZ
  Basis Set: (AUG-CC-PVTZ AUX)
    Blend: AUG-CC-PVTZ-JKFIT

    Orbital Energies [Eh]
    ---------------------

    Doubly Occupied:

       1A    -20.302424     2A    -20.298761     3A    -15.387211
       4A    -11.140189     5A    -11.089731     6A    -11.070131
       7A     -1.169875     8A     -1.069511     9A     -1.021531
      10A     -0.843526    11A     -0.689509    12A     -0.545051
      13A     -0.504876    14A     -0.461413    15A     -0.423924
      16A     -0.407356    17A     -0.394987    18A     -0.365912
      19A     -0.347483    20A     -0.318786    21A     -0.281925
      22A     -0.216417    23A     -0.200551    24A     -0.192439

  @DF-RHF Final Energy:  -321.42905779139443

   => Energetics <=

    Nuclear Repulsion Energy =            238.2535963621633357
    One-Electron Energy =                -921.8782731453615042
    Two-Electron Energy =                 362.1956189918037694
    Total Energy =                       -321.4290577913944276
  Basis Set: (AUG-CC-PVTZ AUX)
    Blend: AUG-CC-PVTZ-RI
    Molecular point group: c1

    Geometry (in Angstrom), charge = -1, multiplicity = 1:

       Center              X                  Y                   Z               Mass
    ------------   -----------------  -----------------  -----------------  -----------------
         O           -1.616312602841     0.822899646028    -0.458449760517    15.994914619570
         O           -1.040425602841    -1.055019353972     0.692312239483    15.994914619570
         N            1.513465397159    -1.042331353972    -0.331377760517    14.003074004430
         C            0.689723397159     0.177932646028    -0.416007760517    12.000000000000
         C            1.267620397159     1.239948646028     0.516865239483    12.000000000000
         C           -0.796759602841    -0.049023353972    -0.043373760517    12.000000000000
         H            0.729151797159     0.546004946028    -1.426794560517     1.007825032230
         H            2.307621397159     1.463388646028     0.260739239483     1.007825032230
         H            0.678006397159     2.158936646028     0.461488239483     1.007825032230
         H            1.240022397159     0.875313646028     1.550031239483     1.007825032230
         H            1.240215397159    -1.640687353972    -1.114222760517     1.007825032230
         H            1.121850397159    -1.535288353972     0.477021239483     1.007825032230

  Basis Set: AUG-CC-PVTZ
    Blend: AUG-CC-PVTZ
  Basis Set: (AUG-CC-PVTZ AUX)
    Blend: AUG-CC-PVTZ-JKFIT
	 Reference Energy          =    -321.4290577913944276 [Eh]
	 Singles Energy            =      -0.0000000000000000 [Eh]
	 Same-Spin Energy          =      -0.3255529047201782 [Eh]
	 Opposite-Spin Energy      =      -1.0066297879222155 [Eh]
	 Correlation Energy        =      -1.3321826926423936 [Eh]
	 Total Energy              =    -322.7612404840368185 [Eh]

	 ================> DF-SCS-MP2 Energies <==================
	-----------------------------------------------------------
	 SCS Same-Spin Scale       =       0.3333333333333333 [-]
	 SCS Opposite-Spin Scale   =       1.2000000000000000 [-]
	 SCS Same-Spin Energy      =      -0.1085176349067261 [Eh]
	 SCS Opposite-Spin Energy  =      -1.2079557455066585 [Eh]
	 SCS Correlation Energy    =      -1.3164733804133846 [Eh]
	 SCS Total Energy          =    -322.7455311718077837 [Eh]
	-----------------------------------------------------------

  Dipole Moment: [D]
     X:     4.1193      Y:     0.3149      Z:    -0.7725     Total:     4.2029

*** Psi4 exiting successfully. Buy a developer a beer!
