                               Psi4 1.3.2 release

  ==> Input File <==

--------------------------------------------------------------------------
#psi4
#
memory 32 gb

molecule  {
-1 1
  O       -1.4366360    -1.1870470     0.0571230
  O       -1.5043732     1.0362695    -0.2216465
  N        1.2636070     1.2939420     0.0706720
  C        0.6169786    -0.0716206     0.4004229
  C        1.4068670    -1.1350240    -0.2248910
  C       -0.8878250    -0.0451320     0.0288030
  H        0.6585810    -0.1007720     1.4894850
  H        2.4544500    -1.1027320     0.0899700
  H        0.9700140    -2.0919800     0.0583780
  H        1.3764410    -1.0627810    -1.3188240
  H        0.5133110     1.9810410     0.1712720
  H        1.4338170     1.2887330    -0.9390950
units angstrom
no_reorient  #important for SAPT in psi4, default
symmetry c1  #important for SAPT in psi4, default
}

set PROPERTIES_ORIGIN ["COM"]
properties('MP2/aug-cc-pvtz', properties = ['dipole'])
--------------------------------------------------------------------------

    Molecular point group: c1
  Charge       = -1
  Multiplicity = 1
  Basis Set: AUG-CC-PVTZ
    Blend: AUG-CC-PVTZ
  Basis Set: (AUG-CC-PVTZ AUX)
    Blend: AUG-CC-PVTZ-JKFIT

    Orbital Energies [Eh]
    ---------------------

    Doubly Occupied:

       1A    -20.302274     2A    -20.293955     3A    -15.385253
       4A    -11.141580     5A    -11.098243     6A    -11.073056
       7A     -1.170278     8A     -1.063753     9A     -1.007321
      10A     -0.856715    11A     -0.697427    12A     -0.539270
      13A     -0.497222    14A     -0.463362    15A     -0.439582
      16A     -0.398846    17A     -0.391675    18A     -0.377721
      19A     -0.344949    20A     -0.322334    21A     -0.274773
      22A     -0.214210    23A     -0.197418    24A     -0.194007

  @DF-RHF Final Energy:  -321.42007521403798

   => Energetics <=

    Nuclear Repulsion Energy =            237.4053261637911305
    One-Electron Energy =                -920.1603567257668601
    Two-Electron Energy =                 361.3349553479376937
    Total Energy =                       -321.4200752140379791
  Basis Set: (AUG-CC-PVTZ AUX)
    Blend: AUG-CC-PVTZ-RI
    Molecular point group: c1

    Geometry (in Angstrom), charge = -1, multiplicity = 1:

       Center              X                  Y                   Z               Mass
    ------------   -----------------  -----------------  -----------------  -----------------
         O           -1.342928545926    -1.182380530024     0.053059173078    15.994914619570
         O           -1.410665745926     1.040935969976    -0.225710326922    15.994914619570
         N            1.357314454074     1.298608469976     0.066608173078    14.003074004430
         C            0.710686054074    -0.066954130024     0.396359073078    12.000000000000
         C            1.500574454074    -1.130357530024    -0.228954826922    12.000000000000
         C           -0.794117545926    -0.040465530024     0.024739173078    12.000000000000
         H            0.752288454074    -0.096105530024     1.485421173078     1.007825032230
         H            2.548157454074    -1.098065530024     0.085906173078     1.007825032230
         H            1.063721454074    -2.087313530024     0.054314173078     1.007825032230
         H            1.470148454074    -1.058114530024    -1.322887826922     1.007825032230
         H            0.607018454074     1.985707469976     0.167208173078     1.007825032230
         H            1.527524454074     1.293399469976    -0.943158826922     1.007825032230

  Basis Set: AUG-CC-PVTZ
    Blend: AUG-CC-PVTZ
  Basis Set: (AUG-CC-PVTZ AUX)
    Blend: AUG-CC-PVTZ-JKFIT
	 Reference Energy          =    -321.4200752140379791 [Eh]
	 Singles Energy            =      -0.0000000000000000 [Eh]
	 Same-Spin Energy          =      -0.3257653364478026 [Eh]
	 Opposite-Spin Energy      =      -1.0075170426543512 [Eh]
	 Correlation Energy        =      -1.3332823791021537 [Eh]
	 Total Energy              =    -322.7533575931401515 [Eh]

	 ================> DF-SCS-MP2 Energies <==================
	-----------------------------------------------------------
	 SCS Same-Spin Scale       =       0.3333333333333333 [-]
	 SCS Opposite-Spin Scale   =       1.2000000000000000 [-]
	 SCS Same-Spin Energy      =      -0.1085884454826009 [Eh]
	 SCS Opposite-Spin Energy  =      -1.2090204511852214 [Eh]
	 SCS Correlation Energy    =      -1.3176088966678223 [Eh]
	 SCS Total Energy          =    -322.7376841107057999 [Eh]
	-----------------------------------------------------------

  Dipole Moment: [D]
     X:     4.5527      Y:    -0.3305      Z:    -0.1649     Total:     4.5677

*** Psi4 exiting successfully. Buy a developer a beer!
