                               Psi4 1.3.2 release

  ==> Input File <==

--------------------------------------------------------------------------
#psi4
#
memory 32 gb

molecule  {
-1 1
  O       -1.4366360    -1.1870470     0.0571230
  O       -1.4476160     1.0691130    -0.2107340
  N        1.2636070     1.2939420     0.0706720
  C        0.6400442     0.0175220     0.4054663
  C        1.4068670    -1.1350240    -0.2248910
  C       -0.8878250    -0.0451320     0.0288030
  H        0.6585810    -0.1007720     1.4894850
  H        2.4506800    -1.0871383     0.1003347
  H        0.9700140    -2.0919800     0.0583780
  H        1.3764410    -1.0627810    -1.3188240
  H        0.5133110     1.9810410     0.1712720
  H        1.4338170     1.2887330    -0.9390950
units angstrom
no_reorient  #important for SAPT in psi4, default
symmetry c1  #important for SAPT in psi4, default
}

set PROPERTIES_ORIGIN ["COM"]
properties('MP2/aug-cc-pvtz', properties = ['dipole'])
--------------------------------------------------------------------------

    Molecular point group: c1
  Charge       = -1
  Multiplicity = 1
  Basis Set: AUG-CC-PVTZ
    Blend: AUG-CC-PVTZ
  Basis Set: (AUG-CC-PVTZ AUX)
    Blend: AUG-CC-PVTZ-JKFIT

    Orbital Energies [Eh]
    ---------------------

    Doubly Occupied:

       1A    -20.302041     2A    -20.298384     3A    -15.385660
       4A    -11.141392     5A    -11.092151     6A    -11.071004
       7A     -1.168969     8A     -1.068741     9A     -1.024956
      10A     -0.841426    11A     -0.691041    12A     -0.538103
      13A     -0.502819    14A     -0.460100    15A     -0.443401
      16A     -0.398854    17A     -0.386849    18A     -0.372327
      19A     -0.350907    20A     -0.320879    21A     -0.279735
      22A     -0.214818    23A     -0.199912    24A     -0.189896

  @DF-RHF Final Energy:  -321.42818024810384

   => Energetics <=

    Nuclear Repulsion Energy =            237.7699937892821254
    One-Electron Energy =                -920.9076214804167648
    Two-Electron Energy =                 361.7094474430307969
    Total Energy =                       -321.4281802481038426
  Basis Set: (AUG-CC-PVTZ AUX)
    Blend: AUG-CC-PVTZ-RI
    Molecular point group: c1

    Geometry (in Angstrom), charge = -1, multiplicity = 1:

       Center              X                  Y                   Z               Mass
    ------------   -----------------  -----------------  -----------------  -----------------
         O           -1.356340815729    -1.200676288554     0.050270537019    15.994914619570
         O           -1.367320815729     1.055483711446    -0.217586462981    15.994914619570
         N            1.343902184271     1.280312711446     0.063819537019    14.003074004430
         C            0.720339384271     0.003892711446     0.398613837019    12.000000000000
         C            1.487162184271    -1.148653288554    -0.231743462981    12.000000000000
         C           -0.807529815729    -0.058761288554     0.021950537019    12.000000000000
         H            0.738876184271    -0.114401288554     1.482632537019     1.007825032230
         H            2.530975184271    -1.100767588554     0.093482237019     1.007825032230
         H            1.050309184271    -2.105609288554     0.051525537019     1.007825032230
         H            1.456736184271    -1.076410288554    -1.325676462981     1.007825032230
         H            0.593606184271     1.967411711446     0.164419537019     1.007825032230
         H            1.514112184271     1.275103711446    -0.945947462981     1.007825032230

  Basis Set: AUG-CC-PVTZ
    Blend: AUG-CC-PVTZ
  Basis Set: (AUG-CC-PVTZ AUX)
    Blend: AUG-CC-PVTZ-JKFIT
	 Reference Energy          =    -321.4281802481038426 [Eh]
	 Singles Energy            =      -0.0000000000000000 [Eh]
	 Same-Spin Energy          =      -0.3256030132202495 [Eh]
	 Opposite-Spin Energy      =      -1.0064151672328656 [Eh]
	 Correlation Energy        =      -1.3320181804531153 [Eh]
	 Total Energy              =    -322.7601984285569756 [Eh]

	 ================> DF-SCS-MP2 Energies <==================
	-----------------------------------------------------------
	 SCS Same-Spin Scale       =       0.3333333333333333 [-]
	 SCS Opposite-Spin Scale   =       1.2000000000000000 [-]
	 SCS Same-Spin Energy      =      -0.1085343377400832 [Eh]
	 SCS Opposite-Spin Energy  =      -1.2076982006794388 [Eh]
	 SCS Correlation Energy    =      -1.3162325384195219 [Eh]
	 SCS Total Energy          =    -322.7444127865233554 [Eh]
	-----------------------------------------------------------

  Dipole Moment: [D]
     X:     4.4513      Y:    -0.1083      Z:    -0.2005     Total:     4.4571

*** Psi4 exiting successfully. Buy a developer a beer!
