                               Psi4 1.3.2 release

  ==> Input File <==

--------------------------------------------------------------------------
#psi4
#
memory 32 gb

molecule  {
-1 1
  O       -1.4366360    -1.1870470     0.0571230
  O       -1.4476160     1.0691130    -0.2107340
  N        1.2452589     1.3062181     0.0838658
  C        0.6179830     0.0092170     0.3932550
  C        1.3894087    -1.1522458    -0.2147223
  C       -0.8878250    -0.0451320     0.0288030
  H        0.6585810    -0.1007720     1.4894850
  H        2.4544500    -1.1027320     0.0899700
  H        0.9700140    -2.0919800     0.0583780
  H        1.3764410    -1.0627810    -1.3188240
  H        0.5133110     1.9810410     0.1712720
  H        1.4338170     1.2887330    -0.9390950
units angstrom
no_reorient  #important for SAPT in psi4, default
symmetry c1  #important for SAPT in psi4, default
}

set PROPERTIES_ORIGIN ["COM"]
properties('MP2/aug-cc-pvtz', properties = ['dipole'])
--------------------------------------------------------------------------

    Molecular point group: c1
  Charge       = -1
  Multiplicity = 1
  Basis Set: AUG-CC-PVTZ
    Blend: AUG-CC-PVTZ
  Basis Set: (AUG-CC-PVTZ AUX)
    Blend: AUG-CC-PVTZ-JKFIT

    Orbital Energies [Eh]
    ---------------------

    Doubly Occupied:

       1A    -20.301577     2A    -20.297905     3A    -15.385753
       4A    -11.140627     5A    -11.093486     6A    -11.072805
       7A     -1.169729     8A     -1.068923     9A     -1.021897
      10A     -0.844015    11A     -0.693639    12A     -0.538662
      13A     -0.506173    14A     -0.459487    15A     -0.440219
      16A     -0.399649    17A     -0.388441    18A     -0.368794
      19A     -0.355575    20A     -0.317396    21A     -0.278283
      22A     -0.215060    23A     -0.199883    24A     -0.193536

  @DF-RHF Final Energy:  -321.42724484852499

   => Energetics <=

    Nuclear Repulsion Energy =            238.0317008134184391
    One-Electron Energy =                -921.4148629066695548
    Two-Electron Energy =                 361.9559172447261517
    Total Energy =                       -321.4272448485249924
  Basis Set: (AUG-CC-PVTZ AUX)
    Blend: AUG-CC-PVTZ-RI
    Molecular point group: c1

    Geometry (in Angstrom), charge = -1, multiplicity = 1:

       Center              X                  Y                   Z               Mass
    ------------   -----------------  -----------------  -----------------  -----------------
         O           -1.348079053886    -1.198970990572     0.048569071741    15.994914619570
         O           -1.359059053886     1.057189009428    -0.219287928259    15.994914619570
         N            1.333815846114     1.294294109428     0.075311871741    14.003074004430
         C            0.706539946114    -0.002706990572     0.384701071741    12.000000000000
         C            1.477965646114    -1.164169790572    -0.223276228259    12.000000000000
         C           -0.799268053886    -0.057055990572     0.020249071741    12.000000000000
         H            0.747137946114    -0.112695990572     1.480931071741     1.007825032230
         H            2.543006946114    -1.114655990572     0.081416071741     1.007825032230
         H            1.058570946114    -2.103903990572     0.049824071741     1.007825032230
         H            1.464997946114    -1.074704990572    -1.327377928259     1.007825032230
         H            0.601867946114     1.969117009428     0.162718071741     1.007825032230
         H            1.522373946114     1.276809009428    -0.947648928259     1.007825032230

  Basis Set: AUG-CC-PVTZ
    Blend: AUG-CC-PVTZ
  Basis Set: (AUG-CC-PVTZ AUX)
    Blend: AUG-CC-PVTZ-JKFIT
	 Reference Energy          =    -321.4272448485249924 [Eh]
	 Singles Energy            =      -0.0000000000000000 [Eh]
	 Same-Spin Energy          =      -0.3254350195048591 [Eh]
	 Opposite-Spin Energy      =      -1.0063356578233338 [Eh]
	 Correlation Energy        =      -1.3317706773281930 [Eh]
	 Total Energy              =    -322.7590155258531581 [Eh]

	 ================> DF-SCS-MP2 Energies <==================
	-----------------------------------------------------------
	 SCS Same-Spin Scale       =       0.3333333333333333 [-]
	 SCS Opposite-Spin Scale   =       1.2000000000000000 [-]
	 SCS Same-Spin Energy      =      -0.1084783398349530 [Eh]
	 SCS Opposite-Spin Energy  =      -1.2076027893880006 [Eh]
	 SCS Correlation Energy    =      -1.3160811292229537 [Eh]
	 SCS Total Energy          =    -322.7433259777479293 [Eh]
	-----------------------------------------------------------

  Dipole Moment: [D]
     X:     4.4625      Y:    -0.1565      Z:    -0.2060     Total:     4.4700

*** Psi4 exiting successfully. Buy a developer a beer!
