                               Psi4 1.3.2 release

  ==> Input File <==

--------------------------------------------------------------------------
#psi4
#
memory 32 gb

molecule  {
-1 1
  O       -1.4366360    -1.1870470     0.0571230
  O       -1.4476160     1.0691130    -0.2107340
  N        1.1957574     1.3189795     0.0438163
  C        0.6179830     0.0092170     0.3932550
  C        1.4068670    -1.1350240    -0.2248910
  C       -0.8817640     0.0310361     0.0014391
  H        0.6585810    -0.1007720     1.4894850
  H        2.4544500    -1.1027320     0.0899700
  H        0.9700140    -2.0919800     0.0583780
  H        1.3764410    -1.0627810    -1.3188240
  H        0.5133110     1.9810410     0.1712720
  H        1.4338170     1.2887330    -0.9390950
units angstrom
no_reorient  #important for SAPT in psi4, default
symmetry c1  #important for SAPT in psi4, default
}

set PROPERTIES_ORIGIN ["COM"]
properties('MP2/aug-cc-pvtz', properties = ['dipole'])
--------------------------------------------------------------------------

    Molecular point group: c1
  Charge       = -1
  Multiplicity = 1
  Basis Set: AUG-CC-PVTZ
    Blend: AUG-CC-PVTZ
  Basis Set: (AUG-CC-PVTZ AUX)
    Blend: AUG-CC-PVTZ-JKFIT

    Orbital Energies [Eh]
    ---------------------

    Doubly Occupied:

       1A    -20.317815     2A    -20.278022     3A    -15.375976
       4A    -11.137306     5A    -11.093972     6A    -11.072024
       7A     -1.194435     8A     -1.043634     9A     -1.029562
      10A     -0.843925    11A     -0.695437    12A     -0.539002
      13A     -0.522259    14A     -0.466880    15A     -0.444270
      16A     -0.398830    17A     -0.390231    18A     -0.376346
      19A     -0.356313    20A     -0.324587    21A     -0.268786
      22A     -0.213959    23A     -0.190898    24A     -0.182197

  @DF-RHF Final Energy:  -321.41638507233972

   => Energetics <=

    Nuclear Repulsion Energy =            238.7385628626006451
    One-Electron Energy =                -922.7965618608754994
    Two-Electron Energy =                 362.6416139259350757
    Total Energy =                       -321.4163850723397218
  Basis Set: (AUG-CC-PVTZ AUX)
    Blend: AUG-CC-PVTZ-RI
    Molecular point group: c1

    Geometry (in Angstrom), charge = -1, multiplicity = 1:

       Center              X                  Y                   Z               Mass
    ------------   -----------------  -----------------  -----------------  -----------------
         O           -1.343411377240    -1.213729961400     0.060054862243    15.994914619570
         O           -1.354391377240     1.042430038600    -0.207802137757    15.994914619570
         N            1.288982022760     1.292296538600     0.046748162243    14.003074004430
         C            0.711207622760    -0.017465961400     0.396186862243    12.000000000000
         C            1.500091622760    -1.161706961400    -0.221959137757    12.000000000000
         C           -0.788539377240     0.004353138600     0.004370962243    12.000000000000
         H            0.751805622760    -0.127454961400     1.492416862243     1.007825032230
         H            2.547674622760    -1.129414961400     0.092901862243     1.007825032230
         H            1.063238622760    -2.118662961400     0.061309862243     1.007825032230
         H            1.469665622760    -1.089463961400    -1.315892137757     1.007825032230
         H            0.606535622760     1.954358038600     0.174203862243     1.007825032230
         H            1.527041622760     1.262050038600    -0.936163137757     1.007825032230

  Basis Set: AUG-CC-PVTZ
    Blend: AUG-CC-PVTZ
  Basis Set: (AUG-CC-PVTZ AUX)
    Blend: AUG-CC-PVTZ-JKFIT
	 Reference Energy          =    -321.4163850723397218 [Eh]
	 Singles Energy            =      -0.0000000000000000 [Eh]
	 Same-Spin Energy          =      -0.3249575404737545 [Eh]
	 Opposite-Spin Energy      =      -1.0050809698926284 [Eh]
	 Correlation Energy        =      -1.3300385103663830 [Eh]
	 Total Energy              =    -322.7464235827060861 [Eh]

	 ================> DF-SCS-MP2 Energies <==================
	-----------------------------------------------------------
	 SCS Same-Spin Scale       =       0.3333333333333333 [-]
	 SCS Opposite-Spin Scale   =       1.2000000000000000 [-]
	 SCS Same-Spin Energy      =      -0.1083191801579182 [Eh]
	 SCS Opposite-Spin Energy  =      -1.2060971638711540 [Eh]
	 SCS Correlation Energy    =      -1.3144163440290721 [Eh]
	 SCS Total Energy          =    -322.7308014163688199 [Eh]
	-----------------------------------------------------------

  Dipole Moment: [D]
     X:     4.6214      Y:     0.6847      Z:    -0.2995     Total:     4.6814

*** Psi4 exiting successfully. Buy a developer a beer!
