                               Psi4 1.3.2 release

  ==> Input File <==

--------------------------------------------------------------------------
#psi4
#
memory 32 gb

molecule  {
-1 1
  O       -1.4366360    -1.1870470     0.0571230
  O       -1.4476160     1.0691130    -0.2107340
  N        1.3296870     1.2653831     0.0984119
  C        0.6179830     0.0092170     0.3932550
  C        1.4068670    -1.1350240    -0.2248910
  C       -0.8897587    -0.1211512     0.0571658
  H        0.6585810    -0.1007720     1.4894850
  H        2.4544500    -1.1027320     0.0899700
  H        0.9700140    -2.0919800     0.0583780
  H        1.3764410    -1.0627810    -1.3188240
  H        0.5133110     1.9810410     0.1712720
  H        1.4338170     1.2887330    -0.9390950
units angstrom
no_reorient  #important for SAPT in psi4, default
symmetry c1  #important for SAPT in psi4, default
}

set PROPERTIES_ORIGIN ["COM"]
properties('MP2/aug-cc-pvtz', properties = ['dipole'])
--------------------------------------------------------------------------

    Molecular point group: c1
  Charge       = -1
  Multiplicity = 1
  Basis Set: AUG-CC-PVTZ
    Blend: AUG-CC-PVTZ
  Basis Set: (AUG-CC-PVTZ AUX)
    Blend: AUG-CC-PVTZ-JKFIT

    Orbital Energies [Eh]
    ---------------------

    Doubly Occupied:

       1A    -20.318651     2A    -20.286717     3A    -15.396293
       4A    -11.143406     5A    -11.093802     6A    -11.070998
       7A     -1.196252     8A     -1.055464     9A     -1.012087
      10A     -0.840247    11A     -0.694163    12A     -0.541787
      13A     -0.485109    14A     -0.468796    15A     -0.437131
      16A     -0.402763    17A     -0.387296    18A     -0.373815
      19A     -0.339918    20A     -0.323056    21A     -0.289337
      22A     -0.207479    23A     -0.197858    24A     -0.196285

  @DF-RHF Final Energy:  -321.41084356775696

   => Energetics <=

    Nuclear Repulsion Energy =            237.3827703385070436
    One-Electron Energy =                -920.0698062943481546
    Two-Electron Energy =                 361.2761923880841550
    Total Energy =                       -321.4108435677569560
  Basis Set: (AUG-CC-PVTZ AUX)
    Blend: AUG-CC-PVTZ-RI
    Molecular point group: c1

    Geometry (in Angstrom), charge = -1, multiplicity = 1:

       Center              X                  Y                   Z               Mass
    ------------   -----------------  -----------------  -----------------  -----------------
         O           -1.363623697351    -1.184461830491     0.043775568591    15.994914619570
         O           -1.374603697351     1.071698169509    -0.224081431409    15.994914619570
         N            1.402699302649     1.267968269509     0.085064468591    14.003074004430
         C            0.690995302649     0.011802169509     0.379907568591    12.000000000000
         C            1.479879302649    -1.132438830491    -0.238238431409    12.000000000000
         C           -0.816746397351    -0.118566030491     0.043818368591    12.000000000000
         H            0.731593302649    -0.098186830491     1.476137568591     1.007825032230
         H            2.527462302649    -1.100146830491     0.076622568591     1.007825032230
         H            1.043026302649    -2.089394830491     0.045030568591     1.007825032230
         H            1.449453302649    -1.060195830491    -1.332171431409     1.007825032230
         H            0.586323302649     1.983626169509     0.157924568591     1.007825032230
         H            1.506829302649     1.291318169509    -0.952442431409     1.007825032230

  Basis Set: AUG-CC-PVTZ
    Blend: AUG-CC-PVTZ
  Basis Set: (AUG-CC-PVTZ AUX)
    Blend: AUG-CC-PVTZ-JKFIT
	 Reference Energy          =    -321.4108435677569560 [Eh]
	 Singles Energy            =      -0.0000000000000000 [Eh]
	 Same-Spin Energy          =      -0.3266402756645760 [Eh]
	 Opposite-Spin Energy      =      -1.0091869169369825 [Eh]
	 Correlation Energy        =      -1.3358271926015586 [Eh]
	 Total Energy              =    -322.7466707603585405 [Eh]

	 ================> DF-SCS-MP2 Energies <==================
	-----------------------------------------------------------
	 SCS Same-Spin Scale       =       0.3333333333333333 [-]
	 SCS Opposite-Spin Scale   =       1.2000000000000000 [-]
	 SCS Same-Spin Energy      =      -0.1088800918881920 [Eh]
	 SCS Opposite-Spin Energy  =      -1.2110243003243790 [Eh]
	 SCS Correlation Energy    =      -1.3199043922125711 [Eh]
	 SCS Total Energy          =    -322.7307479599695057 [Eh]
	-----------------------------------------------------------

  Dipole Moment: [D]
     X:     4.3328      Y:    -0.9547      Z:    -0.1031     Total:     4.4380

*** Psi4 exiting successfully. Buy a developer a beer!
