                               Psi4 1.3.2 release

  ==> Input File <==

--------------------------------------------------------------------------
#psi4
#
memory 32 gb

molecule  {
-1 1
  O       -1.4366360    -1.1870470     0.0571230
  O       -1.4476160     1.0691130    -0.2107340
  N        1.2636070     1.2939420     0.0706720
  C        0.6623389     0.0254760     0.4174856
  C        1.4068670    -1.1350240    -0.2248910
  C       -0.8878250    -0.0451320     0.0288030
  H        0.6585810    -0.1007720     1.4894850
  H        2.4465920    -1.0715592     0.1106004
  H        0.9700140    -2.0919800     0.0583780
  H        1.3764410    -1.0627810    -1.3188240
  H        0.5133110     1.9810410     0.1712720
  H        1.4338170     1.2887330    -0.9390950
units angstrom
no_reorient  #important for SAPT in psi4, default
symmetry c1  #important for SAPT in psi4, default
}

set PROPERTIES_ORIGIN ["COM"]
properties('MP2/aug-cc-pvtz', properties = ['dipole'])
--------------------------------------------------------------------------

    Molecular point group: c1
  Charge       = -1
  Multiplicity = 1
  Basis Set: AUG-CC-PVTZ
    Blend: AUG-CC-PVTZ
  Basis Set: (AUG-CC-PVTZ AUX)
    Blend: AUG-CC-PVTZ-JKFIT

    Orbital Energies [Eh]
    ---------------------

    Doubly Occupied:

       1A    -20.301861     2A    -20.298410     3A    -15.385612
       4A    -11.141311     5A    -11.091053     6A    -11.070703
       7A     -1.167888     8A     -1.068267     9A     -1.028196
      10A     -0.840955    11A     -0.688149    12A     -0.537038
      13A     -0.504462    14A     -0.459308    15A     -0.445497
      16A     -0.397922    17A     -0.386514    18A     -0.372967
      19A     -0.352896    20A     -0.322349    21A     -0.280372
      22A     -0.214124    23A     -0.199586    24A     -0.185124

  @DF-RHF Final Energy:  -321.42638305361322

   => Energetics <=

    Nuclear Repulsion Energy =            237.5998499086085189
    One-Electron Energy =                -920.5713366277483374
    Two-Electron Energy =                 361.5451036655266535
    Total Energy =                       -321.4263830536132218
  Basis Set: (AUG-CC-PVTZ AUX)
    Blend: AUG-CC-PVTZ-RI
    Molecular point group: c1

    Geometry (in Angstrom), charge = -1, multiplicity = 1:

       Center              X                  Y                   Z               Mass
    ------------   -----------------  -----------------  -----------------  -----------------
         O           -1.359332829016    -1.201938773697     0.048514768201    15.994914619570
         O           -1.370312829016     1.054221226303    -0.219342231799    15.994914619570
         N            1.340910170984     1.279050226303     0.062063768201    14.003074004430
         C            0.739642070984     0.010584226303     0.408877368201    12.000000000000
         C            1.484170170984    -1.149915773697    -0.233499231799    12.000000000000
         C           -0.810521829016    -0.060023773697     0.020194768201    12.000000000000
         H            0.735884170984    -0.115663773697     1.480876768201     1.007825032230
         H            2.523895170984    -1.086450973697     0.101992168201     1.007825032230
         H            1.047317170984    -2.106871773697     0.049769768201     1.007825032230
         H            1.453744170984    -1.077672773697    -1.327432231799     1.007825032230
         H            0.590614170984     1.966149226303     0.162663768201     1.007825032230
         H            1.511120170984     1.273841226303    -0.947703231799     1.007825032230

  Basis Set: AUG-CC-PVTZ
    Blend: AUG-CC-PVTZ
  Basis Set: (AUG-CC-PVTZ AUX)
    Blend: AUG-CC-PVTZ-JKFIT
	 Reference Energy          =    -321.4263830536132218 [Eh]
	 Singles Energy            =      -0.0000000000000000 [Eh]
	 Same-Spin Energy          =      -0.3257068726999760 [Eh]
	 Opposite-Spin Energy      =      -1.0064033812276507 [Eh]
	 Correlation Energy        =      -1.3321102539276266 [Eh]
	 Total Energy              =    -322.7584933075408458 [Eh]

	 ================> DF-SCS-MP2 Energies <==================
	-----------------------------------------------------------
	 SCS Same-Spin Scale       =       0.3333333333333333 [-]
	 SCS Opposite-Spin Scale   =       1.2000000000000000 [-]
	 SCS Same-Spin Energy      =      -0.1085689575666587 [Eh]
	 SCS Opposite-Spin Energy  =      -1.2076840574731809 [Eh]
	 SCS Correlation Energy    =      -1.3162530150398395 [Eh]
	 SCS Total Energy          =    -322.7426360686530415 [Eh]
	-----------------------------------------------------------

  Dipole Moment: [D]
     X:     4.4506      Y:    -0.0829      Z:    -0.1899     Total:     4.4554

*** Psi4 exiting successfully. Buy a developer a beer!
