                               Psi4 1.4a3.dev225

  ==> Input File <==

--------------------------------------------------------------------------
#psi4
#
memory 32 gb

molecule  {
-1 1
  O       -1.6933650     0.8030190    -0.4602720
  O       -1.1174780    -1.0749000     0.6904900
  N        1.4364130    -1.0622120    -0.3332000
  C        0.6126710     0.1580520    -0.4178300
  C        1.2094891     1.2548399     0.5455865
  C       -0.8738120    -0.0689040    -0.0451960
  H        0.6528320     0.5329630    -1.4473970
  H        2.2305690     1.4435080     0.2589170
  H        0.6009540     2.1390560     0.4596660
  H        1.1629700     0.8554330     1.5482090
  H        1.1631630    -1.6605680    -1.1160450
  H        1.0447980    -1.5551690     0.4751990
units angstrom
no_reorient  #important for SAPT in psi4, default
symmetry c1  #important for SAPT in psi4, default
}

set PROPERTIES_ORIGIN ["COM"]
properties('MP2/aug-cc-pvtz', properties = ['dipole'])
--------------------------------------------------------------------------

    Molecular point group: c1
  Charge       = -1
  Multiplicity = 1
  Basis Set: AUG-CC-PVTZ
    Blend: AUG-CC-PVTZ
  Basis Set: (AUG-CC-PVTZ AUX)
    Blend: AUG-CC-PVTZ-JKFIT

    Orbital Energies [Eh]
    ---------------------

    Doubly Occupied:

       1A    -20.302452     2A    -20.298609     3A    -15.387633
       4A    -11.140232     5A    -11.094846     6A    -11.068404
       7A     -1.169621     8A     -1.069409     9A     -1.019606
      10A     -0.838305    11A     -0.690726    12A     -0.541767
      13A     -0.502721    14A     -0.461509    15A     -0.425917
      16A     -0.407819    17A     -0.398388    18A     -0.367534
      19A     -0.349557    20A     -0.311725    21A     -0.280822
      22A     -0.216456    23A     -0.200567    24A     -0.192031

  @DF-RHF Final Energy:  -321.42738624059473

   => Energetics <=

    Nuclear Repulsion Energy =            237.3850493450314616
    One-Electron Energy =                -920.1515521467057397
    Two-Electron Energy =                 361.3391165610795497
    Total Energy =                       -321.4273862405947284
  Basis Set: (AUG-CC-PVTZ AUX)
    Blend: AUG-CC-PVTZ-RI
    Molecular point group: c1

    Geometry (in Angstrom), charge = -1, multiplicity = 1:

       Center              X                  Y                   Z               Mass
    ------------   -----------------  -----------------  -----------------  -----------------
         O           -1.618899971217     0.818081884566    -0.462397913890    15.994914619570
         O           -1.043012971217    -1.059837115434     0.688364086110    15.994914619570
         N            1.510878028783    -1.047149115434    -0.335325913890    14.003074004430
         C            0.687136028783     0.173114884566    -0.419955913890    12.000000000000
         C            1.283954128783     1.269902784566     0.543460586110    12.000000000000
         C           -0.799346971217    -0.053841115434    -0.047321913890    12.000000000000
         H            0.727297028783     0.548025884566    -1.449522913890     1.007825032230
         H            2.305034028783     1.458570884566     0.256791086110     1.007825032230
         H            0.675419028783     2.154118884566     0.457540086110     1.007825032230
         H            1.237435028783     0.870495884566     1.546083086110     1.007825032230
         H            1.237628028783    -1.645505115434    -1.118170913890     1.007825032230
         H            1.119263028783    -1.540106115434     0.473073086110     1.007825032230

  Basis Set: AUG-CC-PVTZ
    Blend: AUG-CC-PVTZ
  Basis Set: (AUG-CC-PVTZ AUX)
    Blend: AUG-CC-PVTZ-JKFIT
	 Reference Energy          =    -321.4273862405947284 [Eh]
	 Singles Energy            =      -0.0000000000000000 [Eh]
	 Same-Spin Energy          =      -0.3253517841776595 [Eh]
	 Opposite-Spin Energy      =      -1.0066112499650663 [Eh]
	 Correlation Energy        =      -1.3319630341427260 [Eh]
	 Total Energy              =    -322.7593492747374739 [Eh]

	 ================> DF-SCS-MP2 Energies <==================
	-----------------------------------------------------------
	 SCS Same-Spin Scale       =       0.3333333333333333 [-]
	 SCS Opposite-Spin Scale   =       1.2000000000000000 [-]
	 SCS Same-Spin Energy      =      -0.1084505947258865 [Eh]
	 SCS Opposite-Spin Energy  =      -1.2079334999580795 [Eh]
	 SCS Correlation Energy    =      -1.3163840946839660 [Eh]
	 SCS Total Energy          =    -322.7437703352786684 [Eh]
	-----------------------------------------------------------

  Dipole Moment: [D]
     X:     4.1382      Y:     0.3078      Z:    -0.7535     Total:     4.2175

*** Psi4 exiting successfully. Buy a developer a beer!
