                               Psi4 1.3.2 release

  ==> Input File <==

--------------------------------------------------------------------------
#psi4
#
memory 32 gb

molecule  {
-1 1
  O       -1.4366360    -1.1870470     0.0571230
  O       -1.4476160     1.0691130    -0.2107340
  N        1.2524167     1.2983614     0.0661326
  C        0.6179830     0.0092170     0.3932550
  C        1.4068670    -1.1350240    -0.2248910
  C       -0.8871011    -0.0324420     0.0241709
  H        0.6585810    -0.1007720     1.4894850
  H        2.4544500    -1.1027320     0.0899700
  H        0.9700140    -2.0919800     0.0583780
  H        1.3764410    -1.0627810    -1.3188240
  H        0.5133110     1.9810410     0.1712720
  H        1.4338170     1.2887330    -0.9390950
units angstrom
no_reorient  #important for SAPT in psi4, default
symmetry c1  #important for SAPT in psi4, default
}

set PROPERTIES_ORIGIN ["COM"]
properties('MP2/aug-cc-pvtz', properties = ['dipole'])
--------------------------------------------------------------------------

    Molecular point group: c1
  Charge       = -1
  Multiplicity = 1
  Basis Set: AUG-CC-PVTZ
    Blend: AUG-CC-PVTZ
  Basis Set: (AUG-CC-PVTZ AUX)
    Blend: AUG-CC-PVTZ-JKFIT

    Orbital Energies [Eh]
    ---------------------

    Doubly Occupied:

       1A    -20.304853     2A    -20.294946     3A    -15.384055
       4A    -11.140796     5A    -11.093459     6A    -11.071497
       7A     -1.170943     8A     -1.067418     9A     -1.023136
      10A     -0.842344    11A     -0.694520    12A     -0.538729
      13A     -0.504593    14A     -0.461008    15A     -0.442141
      16A     -0.399357    17A     -0.388313    18A     -0.371960
      19A     -0.349726    20A     -0.319137    21A     -0.277202
      22A     -0.216309    23A     -0.199576    24A     -0.192565

  @DF-RHF Final Energy:  -321.42861651946242

   => Energetics <=

    Nuclear Repulsion Energy =            238.0587782957909155
    One-Electron Energy =                -921.4776245957073115
    Two-Electron Energy =                 361.9902297804539444
    Total Energy =                       -321.4286165194624232
  Basis Set: (AUG-CC-PVTZ AUX)
    Blend: AUG-CC-PVTZ-RI
    Molecular point group: c1

    Geometry (in Angstrom), charge = -1, multiplicity = 1:

       Center              X                  Y                   Z               Mass
    ------------   -----------------  -----------------  -----------------  -----------------
         O           -1.351695797789    -1.201798387924     0.053406982021    15.994914619570
         O           -1.362675797789     1.054361612076    -0.214450017979    15.994914619570
         N            1.337356902211     1.283610012076     0.062416582021    14.003074004430
         C            0.702923202211    -0.005534387924     0.389538982021    12.000000000000
         C            1.491807202211    -1.149775387924    -0.228607017979    12.000000000000
         C           -0.802160897789    -0.047193387924     0.020454882021    12.000000000000
         H            0.743521202211    -0.115523387924     1.485768982021     1.007825032230
         H            2.539390202211    -1.117483387924     0.086253982021     1.007825032230
         H            1.054954202211    -2.106731387924     0.054661982021     1.007825032230
         H            1.461381202211    -1.077532387924    -1.322540017979     1.007825032230
         H            0.598251202211     1.966289612076     0.167555982021     1.007825032230
         H            1.518757202211     1.273981612076    -0.942811017979     1.007825032230

  Basis Set: AUG-CC-PVTZ
    Blend: AUG-CC-PVTZ
  Basis Set: (AUG-CC-PVTZ AUX)
    Blend: AUG-CC-PVTZ-JKFIT
	 Reference Energy          =    -321.4286165194624232 [Eh]
	 Singles Energy            =      -0.0000000000000000 [Eh]
	 Same-Spin Energy          =      -0.3254442703944241 [Eh]
	 Opposite-Spin Energy      =      -1.0062436262013319 [Eh]
	 Correlation Energy        =      -1.3316878965957559 [Eh]
	 Total Energy              =    -322.7603044160582044 [Eh]

	 ================> DF-SCS-MP2 Energies <==================
	-----------------------------------------------------------
	 SCS Same-Spin Scale       =       0.3333333333333333 [-]
	 SCS Opposite-Spin Scale   =       1.2000000000000000 [-]
	 SCS Same-Spin Energy      =      -0.1084814234648080 [Eh]
	 SCS Opposite-Spin Energy  =      -1.2074923514415983 [Eh]
	 SCS Correlation Energy    =      -1.3159737749064062 [Eh]
	 SCS Total Energy          =    -322.7445902943688338 [Eh]
	-----------------------------------------------------------

  Dipole Moment: [D]
     X:     4.4747      Y:     0.0020      Z:    -0.2280     Total:     4.4805

*** Psi4 exiting successfully. Buy a developer a beer!
