                               Psi4 1.3.2 release

  ==> Input File <==

--------------------------------------------------------------------------
#psi4
#
memory 32 gb

molecule  {
-1 1
  O       -1.4366360    -1.1870470     0.0571230
  O       -1.4476160     1.0691130    -0.2107340
  N        1.2636070     1.2939420     0.0706720
  C        0.6179830     0.0092170     0.3932550
  C        1.4068670    -1.1350240    -0.2248910
  C       -0.8878250    -0.0451320     0.0288030
  H        0.6585810    -0.1007720     1.4894850
  H        2.4544500    -1.1027320     0.0899700
  H        0.9700140    -2.0919800     0.0583780
  H        1.3764410    -1.0627810    -1.3188240
  H        0.4399206     2.0482498     0.1811122
  H        1.4338170     1.2887330    -0.9390950
units angstrom
no_reorient  #important for SAPT in psi4, default
symmetry c1  #important for SAPT in psi4, default
}

set PROPERTIES_ORIGIN ["COM"]
properties('MP2/aug-cc-pvtz', properties = ['dipole'])
--------------------------------------------------------------------------

    Molecular point group: c1
  Charge       = -1
  Multiplicity = 1
  Basis Set: AUG-CC-PVTZ
    Blend: AUG-CC-PVTZ
  Basis Set: (AUG-CC-PVTZ AUX)
    Blend: AUG-CC-PVTZ-JKFIT

    Orbital Energies [Eh]
    ---------------------

    Doubly Occupied:

       1A    -20.302846     2A    -20.298571     3A    -15.393885
       4A    -11.141493     5A    -11.093316     6A    -11.071561
       7A     -1.170359     8A     -1.069400     9A     -1.010939
      10A     -0.837096    11A     -0.693070    12A     -0.537807
      13A     -0.485473    14A     -0.461302    15A     -0.440707
      16A     -0.398511    17A     -0.388231    18A     -0.370843
      19A     -0.341600    20A     -0.317692    21A     -0.277184
      22A     -0.215538    23A     -0.200826    24A     -0.193621

  @DF-RHF Final Energy:  -321.41889848835700

   => Energetics <=

    Nuclear Repulsion Energy =            237.5256685646198207
    One-Electron Energy =                -920.4653922945079785
    Two-Electron Energy =                 361.5208252415310994
    Total Energy =                       -321.4188984883570015
  Basis Set: (AUG-CC-PVTZ AUX)
    Blend: AUG-CC-PVTZ-RI
    Molecular point group: c1

    Geometry (in Angstrom), charge = -1, multiplicity = 1:

       Center              X                  Y                   Z               Mass
    ------------   -----------------  -----------------  -----------------  -----------------
         O           -1.352536861397    -1.200135158505     0.051940964655    15.994914619570
         O           -1.363516861397     1.056024841495    -0.215916035345    15.994914619570
         N            1.347706138603     1.280853841495     0.065489964655    14.003074004430
         C            0.702082138603    -0.003871158505     0.388072964655    12.000000000000
         C            1.490966138603    -1.148112158505    -0.230073035345    12.000000000000
         C           -0.803725861397    -0.058220158505     0.023620964655    12.000000000000
         H            0.742680138603    -0.113860158505     1.484302964655     1.007825032230
         H            2.538549138603    -1.115820158505     0.084787964655     1.007825032230
         H            1.054113138603    -2.105068158505     0.053195964655     1.007825032230
         H            1.460540138603    -1.075869158505    -1.324006035345     1.007825032230
         H            0.524019738603     2.035161641495     0.175930164655     1.007825032230
         H            1.517916138603     1.275644841495    -0.944277035345     1.007825032230

  Basis Set: AUG-CC-PVTZ
    Blend: AUG-CC-PVTZ
  Basis Set: (AUG-CC-PVTZ AUX)
    Blend: AUG-CC-PVTZ-JKFIT
	 Reference Energy          =    -321.4188984883570015 [Eh]
	 Singles Energy            =      -0.0000000000000000 [Eh]
	 Same-Spin Energy          =      -0.3263773741516899 [Eh]
	 Opposite-Spin Energy      =      -1.0086151685026714 [Eh]
	 Correlation Energy        =      -1.3349925426543614 [Eh]
	 Total Energy              =    -322.7538910310113351 [Eh]

	 ================> DF-SCS-MP2 Energies <==================
	-----------------------------------------------------------
	 SCS Same-Spin Scale       =       0.3333333333333333 [-]
	 SCS Opposite-Spin Scale   =       1.2000000000000000 [-]
	 SCS Same-Spin Energy      =      -0.1087924580505633 [Eh]
	 SCS Opposite-Spin Energy  =      -1.2103382022032056 [Eh]
	 SCS Correlation Energy    =      -1.3191306602537689 [Eh]
	 SCS Total Energy          =    -322.7380291486107922 [Eh]
	-----------------------------------------------------------

  Dipole Moment: [D]
     X:     4.3647      Y:    -0.1400      Z:    -0.2063     Total:     4.3718

*** Psi4 exiting successfully. Buy a developer a beer!
