                               Psi4 1.4a3.dev225

  ==> Input File <==

--------------------------------------------------------------------------
#psi4
#
memory 32 gb

molecule  {
-1 1
  O       -1.6933650     0.8030190    -0.4602720
  O       -1.1174780    -1.0749000     0.6904900
  N        1.4364130    -1.0622120    -0.3332000
  C        0.6126710     0.1580520    -0.4178300
  C        1.1905680     1.2200680     0.5150430
  C       -0.8738120    -0.0689040    -0.0451960
  H        0.6528320     0.5329630    -1.4473970
  H        2.2305690     1.4435080     0.2589170
  H        0.6009540     2.1390560     0.4596660
  H        1.1629700     0.8554330     1.5482090
  H        1.1498014    -1.6898270    -1.1543253
  H        1.0447980    -1.5551690     0.4751990
units angstrom
no_reorient  #important for SAPT in psi4, default
symmetry c1  #important for SAPT in psi4, default
}

set PROPERTIES_ORIGIN ["COM"]
properties('MP2/aug-cc-pvtz', properties = ['dipole'])
--------------------------------------------------------------------------

    Molecular point group: c1
  Charge       = -1
  Multiplicity = 1
  Basis Set: AUG-CC-PVTZ
    Blend: AUG-CC-PVTZ
  Basis Set: (AUG-CC-PVTZ AUX)
    Blend: AUG-CC-PVTZ-JKFIT

    Orbital Energies [Eh]
    ---------------------

    Doubly Occupied:

       1A    -20.302567     2A    -20.298749     3A    -15.393494
       4A    -11.140408     5A    -11.092576     6A    -11.070726
       7A     -1.169893     8A     -1.069467     9A     -1.016243
      10A     -0.841097    11A     -0.687298    12A     -0.543598
      13A     -0.496766    14A     -0.461463    15A     -0.422754
      16A     -0.407214    17A     -0.395174    18A     -0.364454
      19A     -0.346594    20A     -0.317326    21A     -0.281494
      22A     -0.216444    23A     -0.200585    24A     -0.192552

  @DF-RHF Final Energy:  -321.42550834376698

   => Energetics <=

    Nuclear Repulsion Energy =            237.9043496899225829
    One-Electron Energy =                -921.2018409967403159
    Two-Electron Energy =                 361.8719829630507547
    Total Energy =                       -321.4255083437669782
  Basis Set: (AUG-CC-PVTZ AUX)
    Blend: AUG-CC-PVTZ-RI
    Molecular point group: c1

    Geometry (in Angstrom), charge = -1, multiplicity = 1:

       Center              X                  Y                   Z               Mass
    ------------   -----------------  -----------------  -----------------  -----------------
         O           -1.616168033969     0.823156299563    -0.457796567695    15.994914619570
         O           -1.040281033969    -1.054762700437     0.692965432305    15.994914619570
         N            1.513609966031    -1.042074700437    -0.330724567695    14.003074004430
         C            0.689867966031     0.178189299563    -0.415354567695    12.000000000000
         C            1.267764966031     1.240205299563     0.517518432305    12.000000000000
         C           -0.796615033969    -0.048766700437    -0.042720567695    12.000000000000
         H            0.730028966031     0.553100299563    -1.444921567695     1.007825032230
         H            2.307765966031     1.463645299563     0.261392432305     1.007825032230
         H            0.678150966031     2.159193299563     0.462141432305     1.007825032230
         H            1.240166966031     0.875570299563     1.550684432305     1.007825032230
         H            1.226998366031    -1.669689700437    -1.151849867695     1.007825032230
         H            1.121994966031    -1.535031700437     0.477674432305     1.007825032230

  Basis Set: AUG-CC-PVTZ
    Blend: AUG-CC-PVTZ
  Basis Set: (AUG-CC-PVTZ AUX)
    Blend: AUG-CC-PVTZ-JKFIT
	 Reference Energy          =    -321.4255083437669782 [Eh]
	 Singles Energy            =      -0.0000000000000000 [Eh]
	 Same-Spin Energy          =      -0.3257790003544125 [Eh]
	 Opposite-Spin Energy      =      -1.0076354843570487 [Eh]
	 Correlation Energy        =      -1.3334144847114613 [Eh]
	 Total Energy              =    -322.7589228284784326 [Eh]

	 ================> DF-SCS-MP2 Energies <==================
	-----------------------------------------------------------
	 SCS Same-Spin Scale       =       0.3333333333333333 [-]
	 SCS Opposite-Spin Scale   =       1.2000000000000000 [-]
	 SCS Same-Spin Energy      =      -0.1085930001181375 [Eh]
	 SCS Opposite-Spin Energy  =      -1.2091625812284585 [Eh]
	 SCS Correlation Energy    =      -1.3177555813465960 [Eh]
	 SCS Total Energy          =    -322.7432639251135811 [Eh]
	-----------------------------------------------------------

  Dipole Moment: [D]
     X:     4.1176      Y:     0.3237      Z:    -0.7519     Total:     4.1982

*** Psi4 exiting successfully. Buy a developer a beer!
