                               Psi4 1.3.2 release

  ==> Input File <==

--------------------------------------------------------------------------
#psi4
#
memory 32 gb

molecule  {
-1 1
  O       -1.4366360    -1.1870470     0.0571230
  O       -1.4476160     1.0691130    -0.2107340
  N        1.2636070     1.2939420     0.0706720
  C        0.6179830     0.0092170     0.3932550
  C        1.4068670    -1.1350240    -0.2248910
  C       -0.8938148    -0.0481856     0.0550108
  H        0.6393822    -0.1019848     1.4899055
  H        2.4544500    -1.1027320     0.0899700
  H        0.9700140    -2.0919800     0.0583780
  H        1.3764410    -1.0627810    -1.3188240
  H        0.5133110     1.9810410     0.1712720
  H        1.4338170     1.2887330    -0.9390950
units angstrom
no_reorient  #important for SAPT in psi4, default
symmetry c1  #important for SAPT in psi4, default
}

set PROPERTIES_ORIGIN ["COM"]
properties('MP2/aug-cc-pvtz', properties = ['dipole'])
--------------------------------------------------------------------------

    Molecular point group: c1
  Charge       = -1
  Multiplicity = 1
  Basis Set: AUG-CC-PVTZ
    Blend: AUG-CC-PVTZ
  Basis Set: (AUG-CC-PVTZ AUX)
    Blend: AUG-CC-PVTZ-JKFIT

    Orbital Energies [Eh]
    ---------------------

    Doubly Occupied:

       1A    -20.300666     2A    -20.299605     3A    -15.385902
       4A    -11.141162     5A    -11.093262     6A    -11.071799
       7A     -1.170131     8A     -1.069476     9A     -1.021188
      10A     -0.842077    11A     -0.695699    12A     -0.537000
      13A     -0.501458    14A     -0.460589    15A     -0.441839
      16A     -0.400128    17A     -0.387982    18A     -0.372372
      19A     -0.348103    20A     -0.319098    21A     -0.279427
      22A     -0.214855    23A     -0.200422    24A     -0.193556

  @DF-RHF Final Energy:  -321.42822889580015

   => Energetics <=

    Nuclear Repulsion Energy =            237.9130582244869458
    One-Electron Energy =                -921.1869851738804300
    Two-Electron Energy =                 361.8456980535933667
    Total Energy =                       -321.4282288958001459
  Basis Set: (AUG-CC-PVTZ AUX)
    Blend: AUG-CC-PVTZ-RI
    Molecular point group: c1

    Geometry (in Angstrom), charge = -1, multiplicity = 1:

       Center              X                  Y                   Z               Mass
    ------------   -----------------  -----------------  -----------------  -----------------
         O           -1.352340791682    -1.198935699430     0.048476622330    15.994914619570
         O           -1.363320791682     1.057224300570    -0.219380377670    15.994914619570
         N            1.347902208318     1.282053300570     0.062025622330    14.003074004430
         C            0.702278208318    -0.002671699430     0.384608622330    12.000000000000
         C            1.491162208318    -1.146912699430    -0.233537377670    12.000000000000
         C           -0.809519591682    -0.060074299430     0.046364422330    12.000000000000
         H            0.723677408318    -0.113873499430     1.481259122330     1.007825032230
         H            2.538745208318    -1.114620699430     0.081323622330     1.007825032230
         H            1.054309208318    -2.103868699430     0.049731622330     1.007825032230
         H            1.460736208318    -1.074669699430    -1.327470377670     1.007825032230
         H            0.597606208318     1.969152300570     0.162625622330     1.007825032230
         H            1.518112208318     1.276844300570    -0.947741377670     1.007825032230

  Basis Set: AUG-CC-PVTZ
    Blend: AUG-CC-PVTZ
  Basis Set: (AUG-CC-PVTZ AUX)
    Blend: AUG-CC-PVTZ-JKFIT
	 Reference Energy          =    -321.4282288958001459 [Eh]
	 Singles Energy            =      -0.0000000000000000 [Eh]
	 Same-Spin Energy          =      -0.3255824477660011 [Eh]
	 Opposite-Spin Energy      =      -1.0064823680526727 [Eh]
	 Correlation Energy        =      -1.3320648158186739 [Eh]
	 Total Energy              =    -322.7602937116188286 [Eh]

	 ================> DF-SCS-MP2 Energies <==================
	-----------------------------------------------------------
	 SCS Same-Spin Scale       =       0.3333333333333333 [-]
	 SCS Opposite-Spin Scale   =       1.2000000000000000 [-]
	 SCS Same-Spin Energy      =      -0.1085274825886670 [Eh]
	 SCS Opposite-Spin Energy  =      -1.2077788416632071 [Eh]
	 SCS Correlation Energy    =      -1.3163063242518742 [Eh]
	 SCS Total Energy          =    -322.7445352200520006 [Eh]
	-----------------------------------------------------------

  Dipole Moment: [D]
     X:     4.4471      Y:    -0.1928      Z:    -0.1940     Total:     4.4555

*** Psi4 exiting successfully. Buy a developer a beer!
