                               Psi4 1.3.2 release

  ==> Input File <==

--------------------------------------------------------------------------
#psi4
#
memory 32 gb

molecule  {
-1 1
  O       -1.4366360    -1.1870470     0.0571230
  O       -1.4476160     1.0691130    -0.2107340
  N        1.3078683     1.2752894     0.0890717
  C        0.6179830     0.0092170     0.3932550
  C        1.4068670    -1.1350240    -0.2248910
  C       -0.8895733    -0.0958409     0.0476053
  H        0.6585810    -0.1007720     1.4894850
  H        2.4544500    -1.1027320     0.0899700
  H        0.9700140    -2.0919800     0.0583780
  H        1.3764410    -1.0627810    -1.3188240
  H        0.5133110     1.9810410     0.1712720
  H        1.4338170     1.2887330    -0.9390950
units angstrom
no_reorient  #important for SAPT in psi4, default
symmetry c1  #important for SAPT in psi4, default
}

set PROPERTIES_ORIGIN ["COM"]
properties('MP2/aug-cc-pvtz', properties = ['dipole'])
--------------------------------------------------------------------------

    Molecular point group: c1
  Charge       = -1
  Multiplicity = 1
  Basis Set: AUG-CC-PVTZ
    Blend: AUG-CC-PVTZ
  Basis Set: (AUG-CC-PVTZ AUX)
    Blend: AUG-CC-PVTZ-JKFIT

    Orbital Energies [Eh]
    ---------------------

    Doubly Occupied:

       1A    -20.311922     2A    -20.291842     3A    -15.392720
       4A    -11.142927     5A    -11.093570     6A    -11.071115
       7A     -1.182802     8A     -1.063438     9A     -1.015625
      10A     -0.840834    11A     -0.694156    12A     -0.540642
      13A     -0.489672    14A     -0.464613    15A     -0.438912
      16A     -0.401962    17A     -0.386902    18A     -0.372378
      19A     -0.342267    20A     -0.320959    21A     -0.286362
      22A     -0.210619    23A     -0.200010    24A     -0.196983

  @DF-RHF Final Energy:  -321.41994253399679

   => Energetics <=

    Nuclear Repulsion Energy =            237.5434381052403410
    One-Electron Energy =                -920.4202981463566857
    Two-Electron Energy =                 361.4569175071194991
    Total Energy =                       -321.4199425339967888
  Basis Set: (AUG-CC-PVTZ AUX)
    Blend: AUG-CC-PVTZ-RI
    Molecular point group: c1

    Geometry (in Angstrom), charge = -1, multiplicity = 1:

       Center              X                  Y                   Z               Mass
    ------------   -----------------  -----------------  -----------------  -----------------
         O           -1.360178620389    -1.189487307417     0.046564277366    15.994914619570
         O           -1.371158620389     1.066672692583    -0.221292722634    15.994914619570
         N            1.384325679611     1.272849092583     0.078512977366    14.003074004430
         C            0.694440379611     0.006776692583     0.382696277366    12.000000000000
         C            1.483324379611    -1.137464307417    -0.235449722634    12.000000000000
         C           -0.813115920389    -0.098281207417     0.037046577366    12.000000000000
         H            0.735038379611    -0.103212307417     1.478926277366     1.007825032230
         H            2.530907379611    -1.105172307417     0.079411277366     1.007825032230
         H            1.046471379611    -2.094420307417     0.047819277366     1.007825032230
         H            1.452898379611    -1.065221307417    -1.329382722634     1.007825032230
         H            0.589768379611     1.978600692583     0.160713277366     1.007825032230
         H            1.510274379611     1.286292692583    -0.949653722634     1.007825032230

  Basis Set: AUG-CC-PVTZ
    Blend: AUG-CC-PVTZ
  Basis Set: (AUG-CC-PVTZ AUX)
    Blend: AUG-CC-PVTZ-JKFIT
	 Reference Energy          =    -321.4199425339967888 [Eh]
	 Singles Energy            =      -0.0000000000000000 [Eh]
	 Same-Spin Energy          =      -0.3262363394464187 [Eh]
	 Opposite-Spin Energy      =      -1.0081868173014625 [Eh]
	 Correlation Energy        =      -1.3344231567478813 [Eh]
	 Total Energy              =    -322.7543656907446916 [Eh]

	 ================> DF-SCS-MP2 Energies <==================
	-----------------------------------------------------------
	 SCS Same-Spin Scale       =       0.3333333333333333 [-]
	 SCS Opposite-Spin Scale   =       1.2000000000000000 [-]
	 SCS Same-Spin Energy      =      -0.1087454464821396 [Eh]
	 SCS Opposite-Spin Energy  =      -1.2098241807617549 [Eh]
	 SCS Correlation Energy    =      -1.3185696272438945 [Eh]
	 SCS Total Energy          =    -322.7385121612406920 [Eh]
	-----------------------------------------------------------

  Dipole Moment: [D]
     X:     4.3667      Y:    -0.6794      Z:    -0.1417     Total:     4.4215

*** Psi4 exiting successfully. Buy a developer a beer!
