                               Psi4 1.3.2 release

  ==> Input File <==

--------------------------------------------------------------------------
#psi4
#
memory 32 gb

molecule  {
-1 1
  O       -1.4366360    -1.1870470     0.0571230
  O       -1.4476160     1.0691130    -0.2107340
  N        1.2636070     1.2939420     0.0706720
  C        0.7056102     0.1835861     0.3494725
  C        1.4068670    -1.1350240    -0.2248910
  C       -0.8878250    -0.0451320     0.0288030
  H        0.6585810    -0.1007720     1.4894850
  H        2.4544500    -1.1027320     0.0899700
  H        0.9700140    -2.0919800     0.0583780
  H        1.3764410    -1.0627810    -1.3188240
  H        0.5133110     1.9810410     0.1712720
  H        1.4338170     1.2887330    -0.9390950
units angstrom
no_reorient  #important for SAPT in psi4, default
symmetry c1  #important for SAPT in psi4, default
}

set PROPERTIES_ORIGIN ["COM"]
properties('MP2/aug-cc-pvtz', properties = ['dipole'])
--------------------------------------------------------------------------

    Molecular point group: c1
  Charge       = -1
  Multiplicity = 1
  Basis Set: AUG-CC-PVTZ
    Blend: AUG-CC-PVTZ
  Basis Set: (AUG-CC-PVTZ AUX)
    Blend: AUG-CC-PVTZ-JKFIT

    Orbital Energies [Eh]
    ---------------------

    Doubly Occupied:

       1A    -20.300108     2A    -20.299260     3A    -15.392039
       4A    -11.139833     5A    -11.097922     6A    -11.070300
       7A     -1.168038     8A     -1.099867     9A     -1.063462
      10A     -0.822201    11A     -0.676571    12A     -0.554639
      13A     -0.529743    14A     -0.463046    15A     -0.454425
      16A     -0.398805    17A     -0.391068    18A     -0.370595
      19A     -0.352778    20A     -0.308449    21A     -0.271821
      22A     -0.213257    23A     -0.199736    24A     -0.167421

  @DF-RHF Final Energy:  -321.38050533741256

   => Energetics <=

    Nuclear Repulsion Energy =            238.3598922402844948
    One-Electron Energy =                -921.8700288114550858
    Two-Electron Energy =                 362.1296312337580616
    Total Energy =                       -321.3805053374125578
  Basis Set: (AUG-CC-PVTZ AUX)
    Blend: AUG-CC-PVTZ-RI
    Molecular point group: c1

    Geometry (in Angstrom), charge = -1, multiplicity = 1:

       Center              X                  Y                   Z               Mass
    ------------   -----------------  -----------------  -----------------  -----------------
         O           -1.365320743222    -1.223132635329     0.058021247379    15.994914619570
         O           -1.376300743222     1.033027364671    -0.209835752621    15.994914619570
         N            1.334922256778     1.257856364671     0.071570247379    14.003074004430
         C            0.776925456778     0.147500464671     0.350370747379    12.000000000000
         C            1.478182256778    -1.171109635329    -0.223992752621    12.000000000000
         C           -0.816509743222    -0.081217635329     0.029701247379    12.000000000000
         H            0.729896256778    -0.136857635329     1.490383247379     1.007825032230
         H            2.525765256778    -1.138817635329     0.090868247379     1.007825032230
         H            1.041329256778    -2.128065635329     0.059276247379     1.007825032230
         H            1.447756256778    -1.098866635329    -1.317925752621     1.007825032230
         H            0.584626256778     1.944955364671     0.172170247379     1.007825032230
         H            1.505132256778     1.252647364671    -0.938196752621     1.007825032230

  Basis Set: AUG-CC-PVTZ
    Blend: AUG-CC-PVTZ
  Basis Set: (AUG-CC-PVTZ AUX)
    Blend: AUG-CC-PVTZ-JKFIT
	 Reference Energy          =    -321.3805053374125578 [Eh]
	 Singles Energy            =      -0.0000000000000000 [Eh]
	 Same-Spin Energy          =      -0.3278443906702413 [Eh]
	 Opposite-Spin Energy      =      -1.0082708748183649 [Eh]
	 Correlation Energy        =      -1.3361152654886062 [Eh]
	 Total Energy              =    -322.7166206029011732 [Eh]

	 ================> DF-SCS-MP2 Energies <==================
	-----------------------------------------------------------
	 SCS Same-Spin Scale       =       0.3333333333333333 [-]
	 SCS Opposite-Spin Scale   =       1.2000000000000000 [-]
	 SCS Same-Spin Energy      =      -0.1092814635567471 [Eh]
	 SCS Opposite-Spin Energy  =      -1.2099250497820377 [Eh]
	 SCS Correlation Energy    =      -1.3192065133387849 [Eh]
	 SCS Total Energy          =    -322.6997118507513278 [Eh]
	-----------------------------------------------------------

  Dipole Moment: [D]
     X:     4.6346      Y:     0.4627      Z:    -0.4234     Total:     4.6769

*** Psi4 exiting successfully. Buy a developer a beer!
