                               Psi4 1.4a3.dev225

  ==> Input File <==

--------------------------------------------------------------------------
#psi4
#
memory 32 gb

molecule  {
-1 1
  O       -1.6933650     0.8030190    -0.4602720
  O       -1.1174780    -1.0749000     0.6904900
  N        1.4364130    -1.0622120    -0.3332000
  C        0.5847420     0.1994251    -0.4206994
  C        1.1905680     1.2200680     0.5150430
  C       -0.8738120    -0.0689040    -0.0451960
  H        0.6528320     0.5329630    -1.4473970
  H        2.2305690     1.4435080     0.2589170
  H        0.6009540     2.1390560     0.4596660
  H        1.1629700     0.8554330     1.5482090
  H        1.1631630    -1.6605680    -1.1160450
  H        1.0447980    -1.5551690     0.4751990
units angstrom
no_reorient  #important for SAPT in psi4, default
symmetry c1  #important for SAPT in psi4, default
}

set PROPERTIES_ORIGIN ["COM"]
properties('MP2/aug-cc-pvtz', properties = ['dipole'])
--------------------------------------------------------------------------

    Molecular point group: c1
  Charge       = -1
  Multiplicity = 1
  Basis Set: AUG-CC-PVTZ
    Blend: AUG-CC-PVTZ
  Basis Set: (AUG-CC-PVTZ AUX)
    Blend: AUG-CC-PVTZ-JKFIT

    Orbital Energies [Eh]
    ---------------------

    Doubly Occupied:

       1A    -20.303535     2A    -20.298698     3A    -15.385297
       4A    -11.140825     5A    -11.092949     6A    -11.071270
       7A     -1.171136     8A     -1.070129     9A     -1.008416
      10A     -0.847923    11A     -0.692913    12A     -0.545069
      13A     -0.497969    14A     -0.460274    15A     -0.423432
      16A     -0.411103    17A     -0.397408    18A     -0.364850
      19A     -0.339396    20A     -0.323069    21A     -0.278255
      22A     -0.217762    23A     -0.201323    24A     -0.195295

  @DF-RHF Final Energy:  -321.42648748779254

   => Energetics <=

    Nuclear Repulsion Energy =            238.0998037216670866
    One-Electron Energy =                -921.5759909948237691
    Two-Electron Energy =                 362.0496997853641687
    Total Energy =                       -321.4264874877925422
  Basis Set: (AUG-CC-PVTZ AUX)
    Blend: AUG-CC-PVTZ-RI
    Molecular point group: c1

    Geometry (in Angstrom), charge = -1, multiplicity = 1:

       Center              X                  Y                   Z               Mass
    ------------   -----------------  -----------------  -----------------  -----------------
         O           -1.612514213199     0.817182128411    -0.457843671869    15.994914619570
         O           -1.036627213199    -1.060736871589     0.692918328131    15.994914619570
         N            1.517263786801    -1.048048871589    -0.330771671869    14.003074004430
         C            0.665592786801     0.213588228411    -0.418271071869    12.000000000000
         C            1.271418786801     1.234231128411     0.517471328131    12.000000000000
         C           -0.792961213199    -0.054740871589    -0.042767671869    12.000000000000
         H            0.733682786801     0.547126128411    -1.444968671869     1.007825032230
         H            2.311419786801     1.457671128411     0.261345328131     1.007825032230
         H            0.681804786801     2.153219128411     0.462094328131     1.007825032230
         H            1.243820786801     0.869596128411     1.550637328131     1.007825032230
         H            1.244013786801    -1.646404871589    -1.113616671869     1.007825032230
         H            1.125648786801    -1.541005871589     0.477627328131     1.007825032230

  Basis Set: AUG-CC-PVTZ
    Blend: AUG-CC-PVTZ
  Basis Set: (AUG-CC-PVTZ AUX)
    Blend: AUG-CC-PVTZ-JKFIT
	 Reference Energy          =    -321.4264874877925422 [Eh]
	 Singles Energy            =      -0.0000000000000000 [Eh]
	 Same-Spin Energy          =      -0.3255765941374290 [Eh]
	 Opposite-Spin Energy      =      -1.0072268904059984 [Eh]
	 Correlation Energy        =      -1.3328034845434273 [Eh]
	 Total Energy              =    -322.7592909723359753 [Eh]

	 ================> DF-SCS-MP2 Energies <==================
	-----------------------------------------------------------
	 SCS Same-Spin Scale       =       0.3333333333333333 [-]
	 SCS Opposite-Spin Scale   =       1.2000000000000000 [-]
	 SCS Same-Spin Energy      =      -0.1085255313791430 [Eh]
	 SCS Opposite-Spin Energy  =      -1.2086722684871980 [Eh]
	 SCS Correlation Energy    =      -1.3171977998663409 [Eh]
	 SCS Total Energy          =    -322.7436852876588773 [Eh]
	-----------------------------------------------------------

  Dipole Moment: [D]
     X:     4.0517      Y:     0.4548      Z:    -0.7394     Total:     4.1436

*** Psi4 exiting successfully. Buy a developer a beer!
