                               Psi4 1.3.2 release

  ==> Input File <==

--------------------------------------------------------------------------
#psi4
#
memory 32 gb

molecule  {
-1 1
  O       -1.4462303    -1.1824575     0.0540920
  O       -1.4476160     1.0691130    -0.2107340
  N        1.2636070     1.2939420     0.0706720
  C        0.6179088     0.0226052     0.3913139
  C        1.4068670    -1.1350240    -0.2248910
  C       -0.8878250    -0.0451320     0.0288030
  H        0.6585810    -0.1007720     1.4894850
  H        2.4544500    -1.1027320     0.0899700
  H        0.9700140    -2.0919800     0.0583780
  H        1.3764410    -1.0627810    -1.3188240
  H        0.5133110     1.9810410     0.1712720
  H        1.4338170     1.2887330    -0.9390950
units angstrom
no_reorient  #important for SAPT in psi4, default
symmetry c1  #important for SAPT in psi4, default
}

set PROPERTIES_ORIGIN ["COM"]
properties('MP2/aug-cc-pvtz', properties = ['dipole'])
--------------------------------------------------------------------------

    Molecular point group: c1
  Charge       = -1
  Multiplicity = 1
  Basis Set: AUG-CC-PVTZ
    Blend: AUG-CC-PVTZ
  Basis Set: (AUG-CC-PVTZ AUX)
    Blend: AUG-CC-PVTZ-JKFIT

    Orbital Energies [Eh]
    ---------------------

    Doubly Occupied:

       1A    -20.301269     2A    -20.298123     3A    -15.386628
       4A    -11.140861     5A    -11.094105     6A    -11.071796
       7A     -1.169964     8A     -1.068391     9A     -1.025355
      10A     -0.840454    11A     -0.694581    12A     -0.539553
      13A     -0.502767    14A     -0.460369    15A     -0.442693
      16A     -0.399798    17A     -0.387684    18A     -0.371055
      19A     -0.349160    20A     -0.317476    21A     -0.279950
      22A     -0.214674    23A     -0.199787    24A     -0.194199

  @DF-RHF Final Energy:  -321.42826512260211

   => Energetics <=

    Nuclear Repulsion Energy =            237.9340523290142926
    One-Electron Energy =                -921.2232481806549913
    Two-Electron Energy =                 361.8609307290385573
    Total Energy =                       -321.4282651226021130
  Basis Set: (AUG-CC-PVTZ AUX)
    Blend: AUG-CC-PVTZ-RI
    Molecular point group: c1

    Geometry (in Angstrom), charge = -1, multiplicity = 1:

       Center              X                  Y                   Z               Mass
    ------------   -----------------  -----------------  -----------------  -----------------
         O           -1.361218100732    -1.197434943223     0.049837851094    15.994914619570
         O           -1.362603800732     1.054135556777    -0.214988148906    15.994914619570
         N            1.348619199268     1.278964556777     0.066417851094    14.003074004430
         C            0.702920999268     0.007627756777     0.387059751094    12.000000000000
         C            1.491879199268    -1.150001443223    -0.229145148906    12.000000000000
         C           -0.802812800732    -0.060109443223     0.024548851094    12.000000000000
         H            0.743593199268    -0.115749443223     1.485230851094     1.007825032230
         H            2.539462199268    -1.117709443223     0.085715851094     1.007825032230
         H            1.055026199268    -2.106957443223     0.054123851094     1.007825032230
         H            1.461453199268    -1.077758443223    -1.323078148906     1.007825032230
         H            0.598323199268     1.966063556777     0.167017851094     1.007825032230
         H            1.518829199268     1.273755556777    -0.943349148906     1.007825032230

  Basis Set: AUG-CC-PVTZ
    Blend: AUG-CC-PVTZ
  Basis Set: (AUG-CC-PVTZ AUX)
    Blend: AUG-CC-PVTZ-JKFIT
	 Reference Energy          =    -321.4282651226021130 [Eh]
	 Singles Energy            =      -0.0000000000000000 [Eh]
	 Same-Spin Energy          =      -0.3255738701863282 [Eh]
	 Opposite-Spin Energy      =      -1.0064836246746662 [Eh]
	 Correlation Energy        =      -1.3320574948609945 [Eh]
	 Total Energy              =    -322.7603226174630890 [Eh]

	 ================> DF-SCS-MP2 Energies <==================
	-----------------------------------------------------------
	 SCS Same-Spin Scale       =       0.3333333333333333 [-]
	 SCS Opposite-Spin Scale   =       1.2000000000000000 [-]
	 SCS Same-Spin Energy      =      -0.1085246233954427 [Eh]
	 SCS Opposite-Spin Energy  =      -1.2077803496095993 [Eh]
	 SCS Correlation Energy    =      -1.3163049730050420 [Eh]
	 SCS Total Energy          =    -322.7445700956071732 [Eh]
	-----------------------------------------------------------

  Dipole Moment: [D]
     X:     4.4910      Y:    -0.0984      Z:    -0.2125     Total:     4.4971

*** Psi4 exiting successfully. Buy a developer a beer!
