                               Psi4 1.3.2 release

  ==> Input File <==

--------------------------------------------------------------------------
#psi4
#
memory 32 gb

molecule  {
-1 1
  O       -1.4366360    -1.1870470     0.0571230
  O       -1.4476160     1.0691130    -0.2107340
  N        1.2678931     1.2978230     0.0957319
  C        0.6179830     0.0092170     0.3932550
  C        1.4068670    -1.1350240    -0.2248910
  C       -0.8878250    -0.0451320     0.0288030
  H        0.6675929    -0.0838135     1.4906839
  H        2.4544500    -1.1027320     0.0899700
  H        0.9700140    -2.0919800     0.0583780
  H        1.3764410    -1.0627810    -1.3188240
  H        0.5133110     1.9810410     0.1712720
  H        1.4338170     1.2887330    -0.9390950
units angstrom
no_reorient  #important for SAPT in psi4, default
symmetry c1  #important for SAPT in psi4, default
}

set PROPERTIES_ORIGIN ["COM"]
properties('MP2/aug-cc-pvtz', properties = ['dipole'])
--------------------------------------------------------------------------

    Molecular point group: c1
  Charge       = -1
  Multiplicity = 1
  Basis Set: AUG-CC-PVTZ
    Blend: AUG-CC-PVTZ
  Basis Set: (AUG-CC-PVTZ AUX)
    Blend: AUG-CC-PVTZ-JKFIT

    Orbital Energies [Eh]
    ---------------------

    Doubly Occupied:

       1A    -20.302743     2A    -20.298803     3A    -15.388966
       4A    -11.142022     5A    -11.093436     6A    -11.071883
       7A     -1.170499     8A     -1.069630     9A     -1.020624
      10A     -0.841532    11A     -0.693455    12A     -0.540245
      13A     -0.498877    14A     -0.461506    15A     -0.437116
      16A     -0.399205    17A     -0.388258    18A     -0.371152
      19A     -0.348681    20A     -0.318731    21A     -0.280748
      22A     -0.216118    23A     -0.200714    24A     -0.195267

  @DF-RHF Final Energy:  -321.42689242210440

   => Energetics <=

    Nuclear Repulsion Energy =            237.7730598665389152
    One-Electron Energy =                -920.8994837737518537
    Two-Electron Energy =                 361.6995314851085368
    Total Energy =                       -321.4268924221044017
  Basis Set: (AUG-CC-PVTZ AUX)
    Blend: AUG-CC-PVTZ-RI
    Molecular point group: c1

    Geometry (in Angstrom), charge = -1, multiplicity = 1:

       Center              X                  Y                   Z               Mass
    ------------   -----------------  -----------------  -----------------  -----------------
         O           -1.354161871782    -1.200177212414     0.048054012298    15.994914619570
         O           -1.365141871782     1.055982787586    -0.219802987702    15.994914619570
         N            1.350367228218     1.284692787586     0.086662912298    14.003074004430
         C            0.700457128218    -0.003913212414     0.384186012298    12.000000000000
         C            1.489341128218    -1.148154212414    -0.233959987702    12.000000000000
         C           -0.805350871782    -0.058262212414     0.019734012298    12.000000000000
         H            0.750067028218    -0.096943712414     1.481614912298     1.007825032230
         H            2.536924128218    -1.115862212414     0.080901012298     1.007825032230
         H            1.052488128218    -2.105110212414     0.049309012298     1.007825032230
         H            1.458915128218    -1.075911212414    -1.327892987702     1.007825032230
         H            0.595785128218     1.967910787586     0.162203012298     1.007825032230
         H            1.516291128218     1.275602787586    -0.948163987702     1.007825032230

  Basis Set: AUG-CC-PVTZ
    Blend: AUG-CC-PVTZ
  Basis Set: (AUG-CC-PVTZ AUX)
    Blend: AUG-CC-PVTZ-JKFIT
	 Reference Energy          =    -321.4268924221044017 [Eh]
	 Singles Energy            =      -0.0000000000000000 [Eh]
	 Same-Spin Energy          =      -0.3257464390258996 [Eh]
	 Opposite-Spin Energy      =      -1.0071536738262450 [Eh]
	 Correlation Energy        =      -1.3329001128521445 [Eh]
	 Total Energy              =    -322.7597925349565458 [Eh]

	 ================> DF-SCS-MP2 Energies <==================
	-----------------------------------------------------------
	 SCS Same-Spin Scale       =       0.3333333333333333 [-]
	 SCS Opposite-Spin Scale   =       1.2000000000000000 [-]
	 SCS Same-Spin Energy      =      -0.1085821463419665 [Eh]
	 SCS Opposite-Spin Energy  =      -1.2085844085914939 [Eh]
	 SCS Correlation Energy    =      -1.3171665549334604 [Eh]
	 SCS Total Energy          =    -322.7440589770378665 [Eh]
	-----------------------------------------------------------

  Dipole Moment: [D]
     X:     4.4349      Y:    -0.1518      Z:    -0.2175     Total:     4.4429

*** Psi4 exiting successfully. Buy a developer a beer!
