                               Psi4 1.3.2 release

  ==> Input File <==

--------------------------------------------------------------------------
#psi4
#
memory 32 gb

molecule  {
-1 1
  O       -1.4366360    -1.1870470     0.0571230
  O       -1.4476160     1.0691130    -0.2107340
  N        1.2636070     1.2939420     0.0706720
  C        0.5532678    -0.0177787     0.3555065
  C        1.4068670    -1.1350240    -0.2248910
  C       -0.8878250    -0.0451320     0.0288030
  H        0.6585810    -0.1007720     1.4894850
  H        2.4638413    -1.1495530     0.0583131
  H        0.9700140    -2.0919800     0.0583780
  H        1.3764410    -1.0627810    -1.3188240
  H        0.5133110     1.9810410     0.1712720
  H        1.4338170     1.2887330    -0.9390950
units angstrom
no_reorient  #important for SAPT in psi4, default
symmetry c1  #important for SAPT in psi4, default
}

set PROPERTIES_ORIGIN ["COM"]
properties('MP2/aug-cc-pvtz', properties = ['dipole'])
--------------------------------------------------------------------------

    Molecular point group: c1
  Charge       = -1
  Multiplicity = 1
  Basis Set: AUG-CC-PVTZ
    Blend: AUG-CC-PVTZ
  Basis Set: (AUG-CC-PVTZ AUX)
    Blend: AUG-CC-PVTZ-JKFIT

    Orbital Energies [Eh]
    ---------------------

    Doubly Occupied:

       1A    -20.302938     2A    -20.298220     3A    -15.386137
       4A    -11.140386     5A    -11.098196     6A    -11.073267
       7A     -1.173843     8A     -1.070868     9A     -1.012048
      10A     -0.844688    11A     -0.707326    12A     -0.540333
      13A     -0.497538    14A     -0.462976    15A     -0.438206
      16A     -0.404340    17A     -0.392696    18A     -0.370278
      19A     -0.337206    20A     -0.310152    21A     -0.277028
      22A     -0.219341    23A     -0.204692    24A     -0.199791

  @DF-RHF Final Energy:  -321.42016078780841

   => Energetics <=

    Nuclear Repulsion Energy =            238.4787634572265631
    One-Electron Energy =                -922.2728584968856467
    Two-Electron Energy =                 362.3739342518506419
    Total Energy =                       -321.4201607878084133
  Basis Set: (AUG-CC-PVTZ AUX)
    Blend: AUG-CC-PVTZ-RI
    Molecular point group: c1

    Geometry (in Angstrom), charge = -1, multiplicity = 1:

       Center              X                  Y                   Z               Mass
    ------------   -----------------  -----------------  -----------------  -----------------
         O           -1.344663689152    -1.195150251446     0.057561190006    15.994914619570
         O           -1.355643689152     1.061009748554    -0.210295809994    15.994914619570
         N            1.355579310848     1.285838748554     0.071110190006    14.003074004430
         C            0.645240110848    -0.025881951446     0.355944690006    12.000000000000
         C            1.498839310848    -1.143127251446    -0.224452809994    12.000000000000
         C           -0.795852689152    -0.053235251446     0.029241190006    12.000000000000
         H            0.750553310848    -0.108875251446     1.489923190006     1.007825032230
         H            2.555813610848    -1.157656251446     0.058751290006     1.007825032230
         H            1.061986310848    -2.100083251446     0.058816190006     1.007825032230
         H            1.468413310848    -1.070884251446    -1.318385809994     1.007825032230
         H            0.605283310848     1.972937748554     0.171710190006     1.007825032230
         H            1.525789310848     1.280629748554    -0.938656809994     1.007825032230

  Basis Set: AUG-CC-PVTZ
    Blend: AUG-CC-PVTZ
  Basis Set: (AUG-CC-PVTZ AUX)
    Blend: AUG-CC-PVTZ-JKFIT
	 Reference Energy          =    -321.4201607878084133 [Eh]
	 Singles Energy            =      -0.0000000000000000 [Eh]
	 Same-Spin Energy          =      -0.3259964498189276 [Eh]
	 Opposite-Spin Energy      =      -1.0079066671170849 [Eh]
	 Correlation Energy        =      -1.3339031169360125 [Eh]
	 Total Energy              =    -322.7540639047444415 [Eh]

	 ================> DF-SCS-MP2 Energies <==================
	-----------------------------------------------------------
	 SCS Same-Spin Scale       =       0.3333333333333333 [-]
	 SCS Opposite-Spin Scale   =       1.2000000000000000 [-]
	 SCS Same-Spin Energy      =      -0.1086654832729759 [Eh]
	 SCS Opposite-Spin Energy  =      -1.2094880005405018 [Eh]
	 SCS Correlation Energy    =      -1.3181534838134776 [Eh]
	 SCS Total Energy          =    -322.7383142716219027 [Eh]
	-----------------------------------------------------------

  Dipole Moment: [D]
     X:     4.4364      Y:    -0.2151      Z:    -0.2511     Total:     4.4487

*** Psi4 exiting successfully. Buy a developer a beer!
