                               Psi4 1.4a3.dev225

  ==> Input File <==

--------------------------------------------------------------------------
#psi4
#
memory 32 gb

molecule  {
-1 1
  O       -1.6933650     0.8030190    -0.4602720
  O       -1.1174780    -1.0749000     0.6904900
  N        1.4364130    -1.0622120    -0.3332000
  C        0.6126710     0.1580520    -0.4178300
  C        1.1829995     1.2061593     0.5028256
  C       -0.8738120    -0.0689040    -0.0451960
  H        0.6528320     0.5329630    -1.4473970
  H        2.2305690     1.4435080     0.2589170
  H        0.6009540     2.1390560     0.4596660
  H        1.1629700     0.8554330     1.5482090
  H        1.1631630    -1.6605680    -1.1160450
  H        1.0447980    -1.5551690     0.4751990
units angstrom
no_reorient  #important for SAPT in psi4, default
symmetry c1  #important for SAPT in psi4, default
}

set PROPERTIES_ORIGIN ["COM"]
properties('MP2/aug-cc-pvtz', properties = ['dipole'])
--------------------------------------------------------------------------

    Molecular point group: c1
  Charge       = -1
  Multiplicity = 1
  Basis Set: AUG-CC-PVTZ
    Blend: AUG-CC-PVTZ
  Basis Set: (AUG-CC-PVTZ AUX)
    Blend: AUG-CC-PVTZ-JKFIT

    Orbital Energies [Eh]
    ---------------------

    Doubly Occupied:

       1A    -20.302749     2A    -20.298852     3A    -15.387437
       4A    -11.140570     5A    -11.091341     6A    -11.071325
       7A     -1.170167     8A     -1.069737     9A     -1.022358
      10A     -0.845542    11A     -0.686848    12A     -0.544371
      13A     -0.505777    14A     -0.461554    15A     -0.423472
      16A     -0.407866    17A     -0.394192    18A     -0.364530
      19A     -0.344989    20A     -0.319575    21A     -0.282472
      22A     -0.216538    23A     -0.200673    24A     -0.192839

  @DF-RHF Final Energy:  -321.42837242492612

   => Energetics <=

    Nuclear Repulsion Energy =            238.4639593266350630
    One-Electron Energy =                -922.2931142445756905
    Two-Electron Energy =                 362.4007824930145034
    Total Energy =                       -321.4283724249261240
  Basis Set: (AUG-CC-PVTZ AUX)
    Blend: AUG-CC-PVTZ-RI
    Molecular point group: c1

    Geometry (in Angstrom), charge = -1, multiplicity = 1:

       Center              X                  Y                   Z               Mass
    ------------   -----------------  -----------------  -----------------  -----------------
         O           -1.615289388196     0.824717143227    -0.456569521634    15.994914619570
         O           -1.039402388196    -1.053201856773     0.694192478366    15.994914619570
         N            1.514488611804    -1.040513856773    -0.329497521634    14.003074004430
         C            0.690746611804     0.179750143227    -0.414127521634    12.000000000000
         C            1.261075111804     1.227857443227     0.506528078366    12.000000000000
         C           -0.795736388196    -0.047205856773    -0.041493521634    12.000000000000
         H            0.730907611804     0.554661143227    -1.443694521634     1.007825032230
         H            2.308644611804     1.465206143227     0.262619478366     1.007825032230
         H            0.679029611804     2.160754143227     0.463368478366     1.007825032230
         H            1.241045611804     0.877131143227     1.551911478366     1.007825032230
         H            1.241238611804    -1.638869856773    -1.112342521634     1.007825032230
         H            1.122873611804    -1.533470856773     0.478901478366     1.007825032230

  Basis Set: AUG-CC-PVTZ
    Blend: AUG-CC-PVTZ
  Basis Set: (AUG-CC-PVTZ AUX)
    Blend: AUG-CC-PVTZ-JKFIT
	 Reference Energy          =    -321.4283724249261240 [Eh]
	 Singles Energy            =      -0.0000000000000000 [Eh]
	 Same-Spin Energy          =      -0.3257072566340796 [Eh]
	 Opposite-Spin Energy      =      -1.0069019246921682 [Eh]
	 Correlation Energy        =      -1.3326091813262479 [Eh]
	 Total Energy              =    -322.7609816062523578 [Eh]

	 ================> DF-SCS-MP2 Energies <==================
	-----------------------------------------------------------
	 SCS Same-Spin Scale       =       0.3333333333333333 [-]
	 SCS Opposite-Spin Scale   =       1.2000000000000000 [-]
	 SCS Same-Spin Energy      =      -0.1085690855446932 [Eh]
	 SCS Opposite-Spin Energy  =      -1.2082823096306019 [Eh]
	 SCS Correlation Energy    =      -1.3168513951752951 [Eh]
	 SCS Total Energy          =    -322.7452238201014438 [Eh]
	-----------------------------------------------------------

  Dipole Moment: [D]
     X:     4.1052      Y:     0.3063      Z:    -0.7608     Total:     4.1863

*** Psi4 exiting successfully. Buy a developer a beer!
