                               Psi4 1.4a3.dev225

  ==> Input File <==

--------------------------------------------------------------------------
#psi4
#
memory 32 gb

molecule  {
-1 1
  O       -1.6933650     0.8030190    -0.4602720
  O       -1.1174780    -1.0749000     0.6904900
  N        1.4364130    -1.0622120    -0.3332000
  C        0.6126710     0.1580520    -0.4178300
  C        1.1905680     1.2200680     0.5150430
  C       -0.8738120    -0.0689040    -0.0451960
  H        0.6546634     0.5500597    -1.4943475
  H        2.2305690     1.4435080     0.2589170
  H        0.6009540     2.1390560     0.4596660
  H        1.1629700     0.8554330     1.5482090
  H        1.1631630    -1.6605680    -1.1160450
  H        1.0447980    -1.5551690     0.4751990
units angstrom
no_reorient  #important for SAPT in psi4, default
symmetry c1  #important for SAPT in psi4, default
}

set PROPERTIES_ORIGIN ["COM"]
properties('MP2/aug-cc-pvtz', properties = ['dipole'])
--------------------------------------------------------------------------

    Molecular point group: c1
  Charge       = -1
  Multiplicity = 1
  Basis Set: AUG-CC-PVTZ
    Blend: AUG-CC-PVTZ
  Basis Set: (AUG-CC-PVTZ AUX)
    Blend: AUG-CC-PVTZ-JKFIT

    Orbital Energies [Eh]
    ---------------------

    Doubly Occupied:

       1A    -20.303230     2A    -20.298794     3A    -15.388143
       4A    -11.141105     5A    -11.098846     6A    -11.070950
       7A     -1.170292     8A     -1.069925     9A     -1.021437
      10A     -0.842796    11A     -0.684892    12A     -0.540109
      13A     -0.504532    14A     -0.461621    15A     -0.423512
      16A     -0.407978    17A     -0.395381    18A     -0.366337
      19A     -0.344115    20A     -0.314497    21A     -0.282586
      22A     -0.216754    23A     -0.200847    24A     -0.193126

  @DF-RHF Final Energy:  -321.42682790568460

   => Energetics <=

    Nuclear Repulsion Energy =            237.9033579191105048
    One-Electron Energy =                -921.1767630029736438
    Two-Electron Energy =                 361.8465771781785634
    Total Energy =                       -321.4268279056846040
  Basis Set: (AUG-CC-PVTZ AUX)
    Blend: AUG-CC-PVTZ-RI
    Molecular point group: c1

    Geometry (in Angstrom), charge = -1, multiplicity = 1:

       Center              X                  Y                   Z               Mass
    ------------   -----------------  -----------------  -----------------  -----------------
         O           -1.616341953905     0.822625648579    -0.457697316683    15.994914619570
         O           -1.040454953905    -1.055293351421     0.693064683317    15.994914619570
         N            1.513436046095    -1.042605351421    -0.330625316683    14.003074004430
         C            0.689694046095     0.177658648579    -0.415255316683    12.000000000000
         C            1.267591046095     1.239674648579     0.517617683317    12.000000000000
         C           -0.796788953905    -0.049297351421    -0.042621316683    12.000000000000
         H            0.731686446095     0.569666348579    -1.491772816683     1.007825032230
         H            2.307592046095     1.463114648579     0.261491683317     1.007825032230
         H            0.677977046095     2.158662648579     0.462240683317     1.007825032230
         H            1.239993046095     0.875039648579     1.550783683317     1.007825032230
         H            1.240186046095    -1.640961351421    -1.113470316683     1.007825032230
         H            1.121821046095    -1.535562351421     0.477773683317     1.007825032230

  Basis Set: AUG-CC-PVTZ
    Blend: AUG-CC-PVTZ
  Basis Set: (AUG-CC-PVTZ AUX)
    Blend: AUG-CC-PVTZ-JKFIT
	 Reference Energy          =    -321.4268279056846040 [Eh]
	 Singles Energy            =      -0.0000000000000000 [Eh]
	 Same-Spin Energy          =      -0.3256039408293359 [Eh]
	 Opposite-Spin Energy      =      -1.0071024307994123 [Eh]
	 Correlation Energy        =      -1.3327063716287482 [Eh]
	 Total Energy              =    -322.7595342773133780 [Eh]

	 ================> DF-SCS-MP2 Energies <==================
	-----------------------------------------------------------
	 SCS Same-Spin Scale       =       0.3333333333333333 [-]
	 SCS Opposite-Spin Scale   =       1.2000000000000000 [-]
	 SCS Same-Spin Energy      =      -0.1085346469431119 [Eh]
	 SCS Opposite-Spin Energy  =      -1.2085229169592948 [Eh]
	 SCS Correlation Energy    =      -1.3170575639024067 [Eh]
	 SCS Total Energy          =    -322.7438854695869850 [Eh]
	-----------------------------------------------------------

  Dipole Moment: [D]
     X:     4.1094      Y:     0.2933      Z:    -0.7131     Total:     4.1812

*** Psi4 exiting successfully. Buy a developer a beer!
