                               Psi4 1.3.2 release

  ==> Input File <==

--------------------------------------------------------------------------
#psi4
#
memory 32 gb

molecule  {
-1 1
  O       -1.4366360    -1.1870470     0.0571230
  O       -1.4476160     1.0691130    -0.2107340
  N        1.2636070     1.2939420     0.0706720
  C        0.6179830     0.0092170     0.3932550
  C        1.4068670    -1.1350240    -0.2248910
  C       -0.9319114     0.0426205     0.0099382
  H        0.6585810    -0.1007720     1.4894850
  H        2.4544500    -1.1027320     0.0899700
  H        0.9700140    -2.0919800     0.0583780
  H        1.3764410    -1.0627810    -1.3188240
  H        0.5133110     1.9810410     0.1712720
  H        1.4338170     1.2887330    -0.9390950
units angstrom
no_reorient  #important for SAPT in psi4, default
symmetry c1  #important for SAPT in psi4, default
}

set PROPERTIES_ORIGIN ["COM"]
properties('MP2/aug-cc-pvtz', properties = ['dipole'])
--------------------------------------------------------------------------

    Molecular point group: c1
  Charge       = -1
  Multiplicity = 1
  Basis Set: AUG-CC-PVTZ
    Blend: AUG-CC-PVTZ
  Basis Set: (AUG-CC-PVTZ AUX)
    Blend: AUG-CC-PVTZ-JKFIT

    Orbital Energies [Eh]
    ---------------------

    Doubly Occupied:

       1A    -20.325137     2A    -20.279606     3A    -15.384800
       4A    -11.138616     5A    -11.088738     6A    -11.067142
       7A     -1.217802     8A     -1.053455     9A     -1.021621
      10A     -0.834401    11A     -0.682968    12A     -0.535636
      13A     -0.501946    14A     -0.473786    15A     -0.437487
      16A     -0.403432    17A     -0.393122    18A     -0.380148
      19A     -0.347286    20A     -0.328287    21A     -0.278228
      22A     -0.219113    23A     -0.197401    24A     -0.176977

  @DF-RHF Final Energy:  -321.41661003909877

   => Energetics <=

    Nuclear Repulsion Energy =            238.0693087302866786
    One-Electron Energy =                -921.4375665566954012
    Two-Electron Energy =                 361.9516477873099234
    Total Energy =                       -321.4166100390987708
  Basis Set: (AUG-CC-PVTZ AUX)
    Blend: AUG-CC-PVTZ-RI
    Molecular point group: c1

    Geometry (in Angstrom), charge = -1, multiplicity = 1:

       Center              X                  Y                   Z               Mass
    ------------   -----------------  -----------------  -----------------  -----------------
         O           -1.347367928238    -1.211326627488     0.054624917327    15.994914619570
         O           -1.358347928238     1.044833372512    -0.213232082673    15.994914619570
         N            1.352875071762     1.269662372512     0.068173917327    14.003074004430
         C            0.707251071762    -0.015062627488     0.390756917327    12.000000000000
         C            1.496135071762    -1.159303627488    -0.227389082673    12.000000000000
         C           -0.842643328238     0.018340872512     0.007440117327    12.000000000000
         H            0.747849071762    -0.125051627488     1.486986917327     1.007825032230
         H            2.543718071762    -1.127011627488     0.087471917327     1.007825032230
         H            1.059282071762    -2.116259627488     0.055879917327     1.007825032230
         H            1.465709071762    -1.087060627488    -1.321322082673     1.007825032230
         H            0.602579071762     1.956761372512     0.168773917327     1.007825032230
         H            1.523085071762     1.264453372512    -0.941593082673     1.007825032230

  Basis Set: AUG-CC-PVTZ
    Blend: AUG-CC-PVTZ
  Basis Set: (AUG-CC-PVTZ AUX)
    Blend: AUG-CC-PVTZ-JKFIT
	 Reference Energy          =    -321.4166100390987708 [Eh]
	 Singles Energy            =      -0.0000000000000000 [Eh]
	 Same-Spin Energy          =      -0.3247822827517706 [Eh]
	 Opposite-Spin Energy      =      -1.0049544072438037 [Eh]
	 Correlation Energy        =      -1.3297366899955743 [Eh]
	 Total Energy              =    -322.7463467290943413 [Eh]

	 ================> DF-SCS-MP2 Energies <==================
	-----------------------------------------------------------
	 SCS Same-Spin Scale       =       0.3333333333333333 [-]
	 SCS Opposite-Spin Scale   =       1.2000000000000000 [-]
	 SCS Same-Spin Energy      =      -0.1082607609172569 [Eh]
	 SCS Opposite-Spin Energy  =      -1.2059452886925643 [Eh]
	 SCS Correlation Energy    =      -1.3142060496098211 [Eh]
	 SCS Total Energy          =    -322.7308160887085933 [Eh]
	-----------------------------------------------------------

  Dipole Moment: [D]
     X:     4.1904      Y:     0.8157      Z:    -0.3634     Total:     4.2844

*** Psi4 exiting successfully. Buy a developer a beer!
