                               Psi4 1.3.2 release

  ==> Input File <==

--------------------------------------------------------------------------
#psi4
#
memory 32 gb

molecule  {
-1 1
  O       -1.4366360    -1.1870470     0.0571230
  O       -1.4476160     1.0691130    -0.2107340
  N        1.2636070     1.2939420     0.0706720
  C        0.6289840     0.0134132     0.3993844
  C        1.4068670    -1.1350240    -0.2248910
  C       -0.8878250    -0.0451320     0.0288030
  H        0.6585810    -0.1007720     1.4894850
  H        2.4526048    -1.0949336     0.0951646
  H        0.9700140    -2.0919800     0.0583780
  H        1.3764410    -1.0627810    -1.3188240
  H        0.5133110     1.9810410     0.1712720
  H        1.4338170     1.2887330    -0.9390950
units angstrom
no_reorient  #important for SAPT in psi4, default
symmetry c1  #important for SAPT in psi4, default
}

set PROPERTIES_ORIGIN ["COM"]
properties('MP2/aug-cc-pvtz', properties = ['dipole'])
--------------------------------------------------------------------------

    Molecular point group: c1
  Charge       = -1
  Multiplicity = 1
  Basis Set: AUG-CC-PVTZ
    Blend: AUG-CC-PVTZ
  Basis Set: (AUG-CC-PVTZ AUX)
    Blend: AUG-CC-PVTZ-JKFIT

    Orbital Energies [Eh]
    ---------------------

    Doubly Occupied:

       1A    -20.302138     2A    -20.298367     3A    -15.385701
       4A    -11.141381     5A    -11.092769     6A    -11.071194
       7A     -1.169528     8A     -1.068987     9A     -1.023334
      10A     -0.841714    11A     -0.692663    12A     -0.538568
      13A     -0.502043    14A     -0.460486    15A     -0.442472
      16A     -0.399368    17A     -0.387286    18A     -0.372006
      19A     -0.349630    20A     -0.319957    21A     -0.279417
      22A     -0.215209    23A     -0.200114    24A     -0.192054

  @DF-RHF Final Energy:  -321.42853447003381

   => Energetics <=

    Nuclear Repulsion Energy =            237.8559538245712588
    One-Electron Energy =                -921.0762036998070243
    Two-Electron Energy =                 361.7917154052020123
    Total Energy =                       -321.4285344700338101
  Basis Set: (AUG-CC-PVTZ AUX)
    Blend: AUG-CC-PVTZ-RI
    Molecular point group: c1

    Geometry (in Angstrom), charge = -1, multiplicity = 1:

       Center              X                  Y                   Z               Mass
    ------------   -----------------  -----------------  -----------------  -----------------
         O           -1.354855323270    -1.200027015569     0.051158695656    15.994914619570
         O           -1.365835323270     1.056132984431    -0.216698304344    15.994914619570
         N            1.345387676730     1.280961984431     0.064707695656    14.003074004430
         C            0.710764676730     0.000433184431     0.393420095656    12.000000000000
         C            1.488647676730    -1.148004015569    -0.230855304344    12.000000000000
         C           -0.806044323270    -0.058112015569     0.022838695656    12.000000000000
         H            0.740361676730    -0.113752015569     1.483520695656     1.007825032230
         H            2.534385476730    -1.107913615569     0.089200295656     1.007825032230
         H            1.051794676730    -2.104960015569     0.052413695656     1.007825032230
         H            1.458221676730    -1.075761015569    -1.324788304344     1.007825032230
         H            0.595091676730     1.968060984431     0.165307695656     1.007825032230
         H            1.515597676730     1.275752984431    -0.945059304344     1.007825032230

  Basis Set: AUG-CC-PVTZ
    Blend: AUG-CC-PVTZ
  Basis Set: (AUG-CC-PVTZ AUX)
    Blend: AUG-CC-PVTZ-JKFIT
	 Reference Energy          =    -321.4285344700338101 [Eh]
	 Singles Energy            =      -0.0000000000000000 [Eh]
	 Same-Spin Energy          =      -0.3255809599251268 [Eh]
	 Opposite-Spin Energy      =      -1.0064749575860781 [Eh]
	 Correlation Energy        =      -1.3320559175112048 [Eh]
	 Total Energy              =    -322.7605903875449940 [Eh]

	 ================> DF-SCS-MP2 Energies <==================
	-----------------------------------------------------------
	 SCS Same-Spin Scale       =       0.3333333333333333 [-]
	 SCS Opposite-Spin Scale   =       1.2000000000000000 [-]
	 SCS Same-Spin Energy      =      -0.1085269866417089 [Eh]
	 SCS Opposite-Spin Energy  =      -1.2077699491032936 [Eh]
	 SCS Correlation Energy    =      -1.3162969357450025 [Eh]
	 SCS Total Energy          =    -322.7448314057788252 [Eh]
	-----------------------------------------------------------

  Dipole Moment: [D]
     X:     4.4510      Y:    -0.1210      Z:    -0.2061     Total:     4.4574

*** Psi4 exiting successfully. Buy a developer a beer!
