                               Psi4 1.4a3.dev225

  ==> Input File <==

--------------------------------------------------------------------------
#psi4
#
memory 32 gb

molecule  {
-1 1
  O       -1.6933650     0.8030190    -0.4602720
  O       -1.1174780    -1.0749000     0.6904900
  N        1.4364130    -1.0622120    -0.3332000
  C        0.6126710     0.1580520    -0.4178300
  C        1.1905680     1.2200680     0.5150430
  C       -0.9061652    -0.0344834    -0.0615818
  H        0.6528320     0.5329630    -1.4473970
  H        2.2305690     1.4435080     0.2589170
  H        0.6009540     2.1390560     0.4596660
  H        1.1629700     0.8554330     1.5482090
  H        1.1631630    -1.6605680    -1.1160450
  H        1.0447980    -1.5551690     0.4751990
units angstrom
no_reorient  #important for SAPT in psi4, default
symmetry c1  #important for SAPT in psi4, default
}

set PROPERTIES_ORIGIN ["COM"]
properties('MP2/aug-cc-pvtz', properties = ['dipole'])
--------------------------------------------------------------------------

    Molecular point group: c1
  Charge       = -1
  Multiplicity = 1
  Basis Set: AUG-CC-PVTZ
    Blend: AUG-CC-PVTZ
  Basis Set: (AUG-CC-PVTZ AUX)
    Blend: AUG-CC-PVTZ-JKFIT

    Orbital Energies [Eh]
    ---------------------

    Doubly Occupied:

       1A    -20.310069     2A    -20.293010     3A    -15.385260
       4A    -11.139502     5A    -11.090089     6A    -11.068871
       7A     -1.184353     8A     -1.071265     9A     -1.016360
      10A     -0.841021    11A     -0.683124    12A     -0.538696
      13A     -0.503343    14A     -0.463583    15A     -0.425296
      16A     -0.406678    17A     -0.397147    18A     -0.366505
      19A     -0.347320    20A     -0.319909    21A     -0.284995
      22A     -0.213935    23A     -0.202158    24A     -0.188372

  @DF-RHF Final Energy:  -321.42718509308071

   => Energetics <=

    Nuclear Repulsion Energy =            238.0853579347638913
    One-Electron Energy =                -921.5433649832178844
    Two-Electron Energy =                 362.0308219553732556
    Total Energy =                       -321.4271850930807091
  Basis Set: (AUG-CC-PVTZ AUX)
    Blend: AUG-CC-PVTZ-RI
    Molecular point group: c1

    Geometry (in Angstrom), charge = -1, multiplicity = 1:

       Center              X                  Y                   Z               Mass
    ------------   -----------------  -----------------  -----------------  -----------------
         O           -1.611911186298     0.818129767426    -0.456001360761    15.994914619570
         O           -1.036024186298    -1.059789232574     0.694760639239    15.994914619570
         N            1.517866813702    -1.047101232574    -0.328929360761    14.003074004430
         C            0.694124813702     0.173162767426    -0.413559360761    12.000000000000
         C            1.272021813702     1.235178767426     0.519313639239    12.000000000000
         C           -0.824711386298    -0.019372632574    -0.057311160761    12.000000000000
         H            0.734285813702     0.548073767426    -1.443126360761     1.007825032230
         H            2.312022813702     1.458618767426     0.263187639239     1.007825032230
         H            0.682407813702     2.154166767426     0.463936639239     1.007825032230
         H            1.244423813702     0.870543767426     1.552479639239     1.007825032230
         H            1.244616813702    -1.645457232574    -1.111774360761     1.007825032230
         H            1.126251813702    -1.540058232574     0.479469639239     1.007825032230

  Basis Set: AUG-CC-PVTZ
    Blend: AUG-CC-PVTZ
  Basis Set: (AUG-CC-PVTZ AUX)
    Blend: AUG-CC-PVTZ-JKFIT
	 Reference Energy          =    -321.4271850930807091 [Eh]
	 Singles Energy            =      -0.0000000000000000 [Eh]
	 Same-Spin Energy          =      -0.3252282229898890 [Eh]
	 Opposite-Spin Energy      =      -1.0059823725368271 [Eh]
	 Correlation Energy        =      -1.3312105955267159 [Eh]
	 Total Energy              =    -322.7583956886074361 [Eh]

	 ================> DF-SCS-MP2 Energies <==================
	-----------------------------------------------------------
	 SCS Same-Spin Scale       =       0.3333333333333333 [-]
	 SCS Opposite-Spin Scale   =       1.2000000000000000 [-]
	 SCS Same-Spin Energy      =      -0.1084094076632963 [Eh]
	 SCS Opposite-Spin Energy  =      -1.2071788470441924 [Eh]
	 SCS Correlation Energy    =      -1.3155882547074886 [Eh]
	 SCS Total Energy          =    -322.7427733477882157 [Eh]
	-----------------------------------------------------------

  Dipole Moment: [D]
     X:     3.8481      Y:     0.6694      Z:    -0.9715     Total:     4.0249

*** Psi4 exiting successfully. Buy a developer a beer!
