                               Psi4 1.3.2 release

  ==> Input File <==

--------------------------------------------------------------------------
#psi4
#
memory 32 gb

molecule  {
-1 1
  O       -1.4366360    -1.1870470     0.0571230
  O       -1.4476160     1.0691130    -0.2107340
  N        1.2079951     1.3295813     0.1105322
  C        0.6179830     0.0092170     0.3932550
  C        1.3537926    -1.1856229    -0.1938325
  C       -0.8878250    -0.0451320     0.0288030
  H        0.6585810    -0.1007720     1.4894850
  H        2.4544500    -1.1027320     0.0899700
  H        0.9700140    -2.0919800     0.0583780
  H        1.3764410    -1.0627810    -1.3188240
  H        0.5133110     1.9810410     0.1712720
  H        1.4338170     1.2887330    -0.9390950
units angstrom
no_reorient  #important for SAPT in psi4, default
symmetry c1  #important for SAPT in psi4, default
}

set PROPERTIES_ORIGIN ["COM"]
properties('MP2/aug-cc-pvtz', properties = ['dipole'])
--------------------------------------------------------------------------

    Molecular point group: c1
  Charge       = -1
  Multiplicity = 1
  Basis Set: AUG-CC-PVTZ
    Blend: AUG-CC-PVTZ
  Basis Set: (AUG-CC-PVTZ AUX)
    Blend: AUG-CC-PVTZ-JKFIT

    Orbital Energies [Eh]
    ---------------------

    Doubly Occupied:

       1A    -20.300430     2A    -20.297195     3A    -15.386077
       4A    -11.139424     5A    -11.094261     6A    -11.076536
       7A     -1.169206     8A     -1.068542     9A     -1.023483
      10A     -0.848805    11A     -0.693684    12A     -0.541284
      13A     -0.513452    14A     -0.457101    15A     -0.437905
      16A     -0.408602    17A     -0.385519    18A     -0.369841
      19A     -0.356442    20A     -0.313959    21A     -0.276904
      22A     -0.213995    23A     -0.199052    24A     -0.192793

  @DF-RHF Final Energy:  -321.41402024985518

   => Energetics <=

    Nuclear Repulsion Energy =            238.2536932988514877
    One-Electron Energy =                -921.8064430506251483
    Two-Electron Energy =                 362.1387295019185331
    Total Energy =                       -321.4140202498551844
  Basis Set: (AUG-CC-PVTZ AUX)
    Blend: AUG-CC-PVTZ-RI
    Molecular point group: c1

    Geometry (in Angstrom), charge = -1, multiplicity = 1:

       Center              X                  Y                   Z               Mass
    ------------   -----------------  -----------------  -----------------  -----------------
         O           -1.337297562186    -1.198137634102     0.041480359661    15.994914619570
         O           -1.348277562186     1.058022365898    -0.226376640339    15.994914619570
         N            1.307333537814     1.318490665898     0.094889559661    14.003074004430
         C            0.717321437814    -0.001873634102     0.377612359661    12.000000000000
         C            1.453131037814    -1.196713534102    -0.209475140339    12.000000000000
         C           -0.788486562186    -0.056222634102     0.013160359661    12.000000000000
         H            0.757919437814    -0.111862634102     1.473842359661     1.007825032230
         H            2.553788437814    -1.113822634102     0.074327359661     1.007825032230
         H            1.069352437814    -2.103070634102     0.042735359661     1.007825032230
         H            1.475779437814    -1.073871634102    -1.334466640339     1.007825032230
         H            0.612649437814     1.969950365898     0.155629359661     1.007825032230
         H            1.533155437814     1.277642365898    -0.954737640339     1.007825032230

  Basis Set: AUG-CC-PVTZ
    Blend: AUG-CC-PVTZ
  Basis Set: (AUG-CC-PVTZ AUX)
    Blend: AUG-CC-PVTZ-JKFIT
	 Reference Energy          =    -321.4140202498551844 [Eh]
	 Singles Energy            =      -0.0000000000000000 [Eh]
	 Same-Spin Energy          =      -0.3253102888280265 [Eh]
	 Opposite-Spin Energy      =      -1.0063337991523076 [Eh]
	 Correlation Energy        =      -1.3316440879803342 [Eh]
	 Total Energy              =    -322.7456643378355352 [Eh]

	 ================> DF-SCS-MP2 Energies <==================
	-----------------------------------------------------------
	 SCS Same-Spin Scale       =       0.3333333333333333 [-]
	 SCS Opposite-Spin Scale   =       1.2000000000000000 [-]
	 SCS Same-Spin Energy      =      -0.1084367629426755 [Eh]
	 SCS Opposite-Spin Energy  =      -1.2076005589827690 [Eh]
	 SCS Correlation Energy    =      -1.3160373219254444 [Eh]
	 SCS Total Energy          =    -322.7300575717806055 [Eh]
	-----------------------------------------------------------

  Dipole Moment: [D]
     X:     4.4761      Y:    -0.1971      Z:    -0.1908     Total:     4.4845

*** Psi4 exiting successfully. Buy a developer a beer!
