                               Psi4 1.3.2 release

  ==> Input File <==

--------------------------------------------------------------------------
#psi4
#
memory 32 gb

molecule  {
-1 1
  O       -1.4366360    -1.1870470     0.0571230
  O       -1.4476160     1.0691130    -0.2107340
  N        1.2636070     1.2939420     0.0706720
  C        0.6179830     0.0092170     0.3932550
  C        1.4068670    -1.1350240    -0.2248910
  C       -0.8744713    -0.0389761    -0.0232715
  H        0.6969357    -0.0982463     1.4876425
  H        2.4544500    -1.1027320     0.0899700
  H        0.9700140    -2.0919800     0.0583780
  H        1.3764410    -1.0627810    -1.3188240
  H        0.5133110     1.9810410     0.1712720
  H        1.4338170     1.2887330    -0.9390950
units angstrom
no_reorient  #important for SAPT in psi4, default
symmetry c1  #important for SAPT in psi4, default
}

set PROPERTIES_ORIGIN ["COM"]
properties('MP2/aug-cc-pvtz', properties = ['dipole'])
--------------------------------------------------------------------------

    Molecular point group: c1
  Charge       = -1
  Multiplicity = 1
  Basis Set: AUG-CC-PVTZ
    Blend: AUG-CC-PVTZ
  Basis Set: (AUG-CC-PVTZ AUX)
    Blend: AUG-CC-PVTZ-JKFIT

    Orbital Energies [Eh]
    ---------------------

    Doubly Occupied:

       1A    -20.305652     2A    -20.296141     3A    -15.385523
       4A    -11.142412     5A    -11.094152     6A    -11.070725
       7A     -1.170151     8A     -1.066597     9A     -1.022776
      10A     -0.842092    11A     -0.692120    12A     -0.543348
      13A     -0.500979    14A     -0.461451    15A     -0.441189
      16A     -0.399106    17A     -0.387511    18A     -0.370035
      19A     -0.348352    20A     -0.318214    21A     -0.278359
      22A     -0.216846    23A     -0.199465    24A     -0.194503

  @DF-RHF Final Energy:  -321.42547261486919

   => Energetics <=

    Nuclear Repulsion Energy =            237.9424368239533862
    One-Electron Energy =                -921.2404167098652579
    Two-Electron Energy =                 361.8725072710427071
    Total Energy =                       -321.4254726148691930
  Basis Set: (AUG-CC-PVTZ AUX)
    Blend: AUG-CC-PVTZ-RI
    Molecular point group: c1

    Geometry (in Angstrom), charge = -1, multiplicity = 1:

       Center              X                  Y                   Z               Mass
    ------------   -----------------  -----------------  -----------------  -----------------
         O           -1.355636184015    -1.200233767855     0.059172554584    15.994914619570
         O           -1.366616184015     1.055926232145    -0.208684445416    15.994914619570
         N            1.344606815985     1.280755232145     0.072721554584    14.003074004430
         C            0.698982815985    -0.003969767855     0.395304554584    12.000000000000
         C            1.487866815985    -1.148210767855    -0.222841445416    12.000000000000
         C           -0.793471484015    -0.052162867855    -0.021221945416    12.000000000000
         H            0.777935515985    -0.111433067855     1.489692054584     1.007825032230
         H            2.535449815985    -1.115918767855     0.092019554584     1.007825032230
         H            1.051013815985    -2.105166767855     0.060427554584     1.007825032230
         H            1.457440815985    -1.075967767855    -1.316774445416     1.007825032230
         H            0.594310815985     1.967854232145     0.173321554584     1.007825032230
         H            1.514816815985     1.275546232145    -0.937045445416     1.007825032230

  Basis Set: AUG-CC-PVTZ
    Blend: AUG-CC-PVTZ
  Basis Set: (AUG-CC-PVTZ AUX)
    Blend: AUG-CC-PVTZ-JKFIT
	 Reference Energy          =    -321.4254726148691930 [Eh]
	 Singles Energy            =      -0.0000000000000000 [Eh]
	 Same-Spin Energy          =      -0.3258055900988061 [Eh]
	 Opposite-Spin Energy      =      -1.0072715053081689 [Eh]
	 Correlation Energy        =      -1.3330770954069751 [Eh]
	 Total Energy              =    -322.7585497102761565 [Eh]

	 ================> DF-SCS-MP2 Energies <==================
	-----------------------------------------------------------
	 SCS Same-Spin Scale       =       0.3333333333333333 [-]
	 SCS Opposite-Spin Scale   =       1.2000000000000000 [-]
	 SCS Same-Spin Energy      =      -0.1086018633662687 [Eh]
	 SCS Opposite-Spin Energy  =      -1.2087258063698025 [Eh]
	 SCS Correlation Energy    =      -1.3173276697360712 [Eh]
	 SCS Total Energy          =    -322.7428002846052664 [Eh]
	-----------------------------------------------------------

  Dipole Moment: [D]
     X:     4.4611      Y:    -0.0179      Z:    -0.2469     Total:     4.4679

*** Psi4 exiting successfully. Buy a developer a beer!
