                               Psi4 1.4a3.dev225

  ==> Input File <==

--------------------------------------------------------------------------
#psi4
#
memory 32 gb

molecule  {
-1 1
  O       -1.6933650     0.8030190    -0.4602720
  O       -1.1174780    -1.0749000     0.6904900
  N        1.4364130    -1.0622120    -0.3332000
  C        0.6014994     0.1746013    -0.4189778
  C        1.1905680     1.2200680     0.5150430
  C       -0.8738120    -0.0689040    -0.0451960
  H        0.6528320     0.5329630    -1.4473970
  H        2.2305690     1.4435080     0.2589170
  H        0.6009540     2.1390560     0.4596660
  H        1.1629700     0.8554330     1.5482090
  H        1.1631630    -1.6605680    -1.1160450
  H        1.0447980    -1.5551690     0.4751990
units angstrom
no_reorient  #important for SAPT in psi4, default
symmetry c1  #important for SAPT in psi4, default
}

set PROPERTIES_ORIGIN ["COM"]
properties('MP2/aug-cc-pvtz', properties = ['dipole'])
--------------------------------------------------------------------------

    Molecular point group: c1
  Charge       = -1
  Multiplicity = 1
  Basis Set: AUG-CC-PVTZ
    Blend: AUG-CC-PVTZ
  Basis Set: (AUG-CC-PVTZ AUX)
    Blend: AUG-CC-PVTZ-JKFIT

    Orbital Energies [Eh]
    ---------------------

    Doubly Occupied:

       1A    -20.302984     2A    -20.298708     3A    -15.386648
       4A    -11.140571     5A    -11.092501     6A    -11.070700
       7A     -1.170413     8A     -1.069771     9A     -1.016052
      10A     -0.845155    11A     -0.690002    12A     -0.543998
      13A     -0.501944    14A     -0.460947    15A     -0.423631
      16A     -0.408813    17A     -0.396075    18A     -0.364937
      19A     -0.344264    20A     -0.320000    21A     -0.280613
      22A     -0.216958    23A     -0.200872    24A     -0.193887

  @DF-RHF Final Energy:  -321.42852822656414

   => Energetics <=

    Nuclear Repulsion Energy =            238.1289760733764638
    One-Electron Energy =                -921.6341242757296186
    Two-Electron Energy =                 362.0766199757890718
    Total Energy =                       -321.4285282265641399
  Basis Set: (AUG-CC-PVTZ AUX)
    Blend: AUG-CC-PVTZ-RI
    Molecular point group: c1

    Geometry (in Angstrom), charge = -1, multiplicity = 1:

       Center              X                  Y                   Z               Mass
    ------------   -----------------  -----------------  -----------------  -----------------
         O           -1.614798278792     0.820565659714    -0.458078329234    15.994914619570
         O           -1.038911278792    -1.057353340286     0.692683670766    15.994914619570
         N            1.514979721208    -1.044665340286    -0.331006329234    14.003074004430
         C            0.680066121208     0.192147959714    -0.416784129234    12.000000000000
         C            1.269134721208     1.237614659714     0.517236670766    12.000000000000
         C           -0.795245278792    -0.051357340286    -0.043002329234    12.000000000000
         H            0.731398721208     0.550509659714    -1.445203329234     1.007825032230
         H            2.309135721208     1.461054659714     0.261110670766     1.007825032230
         H            0.679520721208     2.156602659714     0.461859670766     1.007825032230
         H            1.241536721208     0.872979659714     1.550402670766     1.007825032230
         H            1.241729721208    -1.643021340286    -1.113851329234     1.007825032230
         H            1.123364721208    -1.537622340286     0.477392670766     1.007825032230

  Basis Set: AUG-CC-PVTZ
    Blend: AUG-CC-PVTZ
  Basis Set: (AUG-CC-PVTZ AUX)
    Blend: AUG-CC-PVTZ-JKFIT
	 Reference Energy          =    -321.4285282265641399 [Eh]
	 Singles Energy            =      -0.0000000000000000 [Eh]
	 Same-Spin Energy          =      -0.3255436368438235 [Eh]
	 Opposite-Spin Energy      =      -1.0068978559761352 [Eh]
	 Correlation Energy        =      -1.3324414928199588 [Eh]
	 Total Energy              =    -322.7609697193840930 [Eh]

	 ================> DF-SCS-MP2 Energies <==================
	-----------------------------------------------------------
	 SCS Same-Spin Scale       =       0.3333333333333333 [-]
	 SCS Opposite-Spin Scale   =       1.2000000000000000 [-]
	 SCS Same-Spin Energy      =      -0.1085145456146078 [Eh]
	 SCS Opposite-Spin Energy  =      -1.2082774271713623 [Eh]
	 SCS Correlation Energy    =      -1.3167919727859703 [Eh]
	 SCS Total Energy          =    -322.7453201993500898 [Eh]
	-----------------------------------------------------------

  Dipole Moment: [D]
     X:     4.0918      Y:     0.3676      Z:    -0.7500     Total:     4.1762

*** Psi4 exiting successfully. Buy a developer a beer!
