                               Psi4 1.3.2 release

  ==> Input File <==

--------------------------------------------------------------------------
#psi4
#
memory 32 gb

molecule  {
-1 1
  O       -1.4366360    -1.1870470     0.0571230
  O       -1.4667133     1.0585002    -0.2144460
  N        1.2636070     1.2939420     0.0706720
  C        0.6181069    -0.0177233     0.3957563
  C        1.4068670    -1.1350240    -0.2248910
  C       -0.8878250    -0.0451320     0.0288030
  H        0.6585810    -0.1007720     1.4894850
  H        2.4544500    -1.1027320     0.0899700
  H        0.9700140    -2.0919800     0.0583780
  H        1.3764410    -1.0627810    -1.3188240
  H        0.5133110     1.9810410     0.1712720
  H        1.4338170     1.2887330    -0.9390950
units angstrom
no_reorient  #important for SAPT in psi4, default
symmetry c1  #important for SAPT in psi4, default
}

set PROPERTIES_ORIGIN ["COM"]
properties('MP2/aug-cc-pvtz', properties = ['dipole'])
--------------------------------------------------------------------------

    Molecular point group: c1
  Charge       = -1
  Multiplicity = 1
  Basis Set: AUG-CC-PVTZ
    Blend: AUG-CC-PVTZ
  Basis Set: (AUG-CC-PVTZ AUX)
    Blend: AUG-CC-PVTZ-JKFIT

    Orbital Energies [Eh]
    ---------------------

    Doubly Occupied:

       1A    -20.302223     2A    -20.296821     3A    -15.385724
       4A    -11.141313     5A    -11.094778     6A    -11.071993
       7A     -1.170017     8A     -1.067263     9A     -1.016570
      10A     -0.846947    11A     -0.695448    12A     -0.538816
      13A     -0.499784    14A     -0.461487    15A     -0.440673
      16A     -0.399136    17A     -0.388813    18A     -0.373521
      19A     -0.347285    20A     -0.321342    21A     -0.277924
      22A     -0.215014    23A     -0.199337    24A     -0.194428

  @DF-RHF Final Energy:  -321.42742576784974

   => Energetics <=

    Nuclear Repulsion Energy =            237.7482470354235033
    One-Electron Energy =                -920.8580291954923496
    Two-Electron Energy =                 361.6823563922190488
    Total Energy =                       -321.4274257678497406
  Basis Set: (AUG-CC-PVTZ AUX)
    Blend: AUG-CC-PVTZ-RI
    Molecular point group: c1

    Geometry (in Angstrom), charge = -1, multiplicity = 1:

       Center              X                  Y                   Z               Mass
    ------------   -----------------  -----------------  -----------------  -----------------
         O           -1.349924315013    -1.193765666519     0.052387066294    15.994914619570
         O           -1.380001615013     1.051781533481    -0.219181933706    15.994914619570
         N            1.350318684987     1.287223333481     0.065936066294    14.003074004430
         C            0.704818584987    -0.024441966519     0.391020366294    12.000000000000
         C            1.493578684987    -1.141742666519    -0.229626933706    12.000000000000
         C           -0.801113315013    -0.051850666519     0.024067066294    12.000000000000
         H            0.745292684987    -0.107490666519     1.484749066294     1.007825032230
         H            2.541161684987    -1.109450666519     0.085234066294     1.007825032230
         H            1.056725684987    -2.098698666519     0.053642066294     1.007825032230
         H            1.463152684987    -1.069499666519    -1.323559933706     1.007825032230
         H            0.600022684987     1.974322333481     0.166536066294     1.007825032230
         H            1.520528684987     1.282014333481    -0.943830933706     1.007825032230

  Basis Set: AUG-CC-PVTZ
    Blend: AUG-CC-PVTZ
  Basis Set: (AUG-CC-PVTZ AUX)
    Blend: AUG-CC-PVTZ-JKFIT
	 Reference Energy          =    -321.4274257678497406 [Eh]
	 Singles Energy            =      -0.0000000000000000 [Eh]
	 Same-Spin Energy          =      -0.3255570188638405 [Eh]
	 Opposite-Spin Energy      =      -1.0067426728444955 [Eh]
	 Correlation Energy        =      -1.3322996917083358 [Eh]
	 Total Energy              =    -322.7597254595580694 [Eh]

	 ================> DF-SCS-MP2 Energies <==================
	-----------------------------------------------------------
	 SCS Same-Spin Scale       =       0.3333333333333333 [-]
	 SCS Opposite-Spin Scale   =       1.2000000000000000 [-]
	 SCS Same-Spin Energy      =      -0.1085190062879468 [Eh]
	 SCS Opposite-Spin Energy  =      -1.2080912074133945 [Eh]
	 SCS Correlation Energy    =      -1.3166102137013413 [Eh]
	 SCS Total Energy          =    -322.7440359815510647 [Eh]
	-----------------------------------------------------------

  Dipole Moment: [D]
     X:     4.4881      Y:    -0.1997      Z:    -0.1951     Total:     4.4968

*** Psi4 exiting successfully. Buy a developer a beer!
