                               Psi4 1.3.2 release

  ==> Input File <==

--------------------------------------------------------------------------
#psi4
#
memory 32 gb

molecule  {
-1 1
  O       -1.4366360    -1.1870470     0.0571230
  O       -1.4856343     1.0475513    -0.2180839
  N        1.2636070     1.2939420     0.0706720
  C        0.6177720    -0.0446719     0.3981459
  C        1.4068670    -1.1350240    -0.2248910
  C       -0.8878250    -0.0451320     0.0288030
  H        0.6585810    -0.1007720     1.4894850
  H        2.4544500    -1.1027320     0.0899700
  H        0.9700140    -2.0919800     0.0583780
  H        1.3764410    -1.0627810    -1.3188240
  H        0.5133110     1.9810410     0.1712720
  H        1.4338170     1.2887330    -0.9390950
units angstrom
no_reorient  #important for SAPT in psi4, default
symmetry c1  #important for SAPT in psi4, default
}

set PROPERTIES_ORIGIN ["COM"]
properties('MP2/aug-cc-pvtz', properties = ['dipole'])
--------------------------------------------------------------------------

    Molecular point group: c1
  Charge       = -1
  Multiplicity = 1
  Basis Set: AUG-CC-PVTZ
    Blend: AUG-CC-PVTZ
  Basis Set: (AUG-CC-PVTZ AUX)
    Blend: AUG-CC-PVTZ-JKFIT

    Orbital Energies [Eh]
    ---------------------

    Doubly Occupied:

       1A    -20.302235     2A    -20.295356     3A    -15.385566
       4A    -11.141395     5A    -11.096383     6A    -11.072535
       7A     -1.170078     8A     -1.065440     9A     -1.011769
      10A     -0.851847    11A     -0.696455    12A     -0.538923
      13A     -0.498427    14A     -0.462318    15A     -0.439978
      16A     -0.398643    17A     -0.390159    18A     -0.375679
      19A     -0.346128    20A     -0.322495    21A     -0.276468
      22A     -0.214547    23A     -0.198373    24A     -0.194394

  @DF-RHF Final Energy:  -321.42458735684755

   => Energetics <=

    Nuclear Repulsion Energy =            237.5693477198583992
    One-Electron Energy =                -920.4966923858804648
    Two-Electron Energy =                 361.5027573091744557
    Total Energy =                       -321.4245873568475531
  Basis Set: (AUG-CC-PVTZ AUX)
    Blend: AUG-CC-PVTZ-RI
    Molecular point group: c1

    Geometry (in Angstrom), charge = -1, multiplicity = 1:

       Center              X                  Y                   Z               Mass
    ------------   -----------------  -----------------  -----------------  -----------------
         O           -1.346441135890    -1.188103345409     0.052722286070    15.994914619570
         O           -1.395439435890     1.046494954591    -0.222484613930    15.994914619570
         N            1.353801864110     1.292885654591     0.066271286070    14.003074004430
         C            0.707966864110    -0.045728245409     0.393745186070    12.000000000000
         C            1.497061864110    -1.136080345409    -0.229291713930    12.000000000000
         C           -0.797630135890    -0.046188345409     0.024402286070    12.000000000000
         H            0.748775864110    -0.101828345409     1.485084286070     1.007825032230
         H            2.544644864110    -1.103788345409     0.085569286070     1.007825032230
         H            1.060208864110    -2.093036345409     0.053977286070     1.007825032230
         H            1.466635864110    -1.063837345409    -1.323224713930     1.007825032230
         H            0.603505864110     1.979984654591     0.166871286070     1.007825032230
         H            1.524011864110     1.287676654591    -0.943495713930     1.007825032230

  Basis Set: AUG-CC-PVTZ
    Blend: AUG-CC-PVTZ
  Basis Set: (AUG-CC-PVTZ AUX)
    Blend: AUG-CC-PVTZ-JKFIT
	 Reference Energy          =    -321.4245873568475531 [Eh]
	 Singles Energy            =      -0.0000000000000000 [Eh]
	 Same-Spin Energy          =      -0.3256196022739176 [Eh]
	 Opposite-Spin Energy      =      -1.0070589645088392 [Eh]
	 Correlation Energy        =      -1.3326785667827568 [Eh]
	 Total Energy              =    -322.7572659236303139 [Eh]

	 ================> DF-SCS-MP2 Energies <==================
	-----------------------------------------------------------
	 SCS Same-Spin Scale       =       0.3333333333333333 [-]
	 SCS Opposite-Spin Scale   =       1.2000000000000000 [-]
	 SCS Same-Spin Energy      =      -0.1085398674246392 [Eh]
	 SCS Opposite-Spin Energy  =      -1.2084707574106071 [Eh]
	 SCS Correlation Energy    =      -1.3170106248352462 [Eh]
	 SCS Total Energy          =    -322.7415979816827871 [Eh]
	-----------------------------------------------------------

  Dipole Moment: [D]
     X:     4.5223      Y:    -0.2650      Z:    -0.1795     Total:     4.5336

*** Psi4 exiting successfully. Buy a developer a beer!
