                               Psi4 1.3.2 release

  ==> Input File <==

--------------------------------------------------------------------------
#psi4
#
memory 32 gb

molecule  {
-1 1
  O       -1.4366360    -1.1870470     0.0571230
  O       -1.4476160     1.0691130    -0.2107340
  N        1.2636070     1.2939420     0.0706720
  C        0.6179830     0.0092170     0.3932550
  C        1.4068670    -1.1350240    -0.2248910
  C       -0.8878250    -0.0451320     0.0288030
  H        0.6512162    -0.0808190     1.2906191
  H        2.4544500    -1.1027320     0.0899700
  H        0.9700140    -2.0919800     0.0583780
  H        1.3764410    -1.0627810    -1.3188240
  H        0.5133110     1.9810410     0.1712720
  H        1.4338170     1.2887330    -0.9390950
units angstrom
no_reorient  #important for SAPT in psi4, default
symmetry c1  #important for SAPT in psi4, default
}

set PROPERTIES_ORIGIN ["COM"]
properties('MP2/aug-cc-pvtz', properties = ['dipole'])
--------------------------------------------------------------------------

    Molecular point group: c1
  Charge       = -1
  Multiplicity = 1
  Basis Set: AUG-CC-PVTZ
    Blend: AUG-CC-PVTZ
  Basis Set: (AUG-CC-PVTZ AUX)
    Blend: AUG-CC-PVTZ-JKFIT

    Orbital Energies [Eh]
    ---------------------

    Doubly Occupied:

       1A    -20.301415     2A    -20.298180     3A    -15.383454
       4A    -11.139590     5A    -11.069721     6A    -11.066571
       7A     -1.169764     8A     -1.068679     9A     -1.023757
      10A     -0.847565    11A     -0.715340    12A     -0.553458
      13A     -0.501677    14A     -0.460829    15A     -0.445329
      16A     -0.399124    17A     -0.387009    18A     -0.378193
      19A     -0.348870    20A     -0.326622    21A     -0.280000
      22A     -0.214976    23A     -0.199815    24A     -0.193541

  @DF-RHF Final Energy:  -321.39750895725456

   => Energetics <=

    Nuclear Repulsion Energy =            239.0875721033429784
    One-Electron Energy =                -923.4232081400070911
    Two-Electron Energy =                 362.9381270794095826
    Total Energy =                       -321.3975089572545585
  Basis Set: (AUG-CC-PVTZ AUX)
    Blend: AUG-CC-PVTZ-RI
    Molecular point group: c1

    Geometry (in Angstrom), charge = -1, multiplicity = 1:

       Center              X                  Y                   Z               Mass
    ------------   -----------------  -----------------  -----------------  -----------------
         O           -1.353292681061    -1.199594203741     0.054330101208    15.994914619570
         O           -1.364272681061     1.056565796259    -0.213526898792    15.994914619570
         N            1.346950318939     1.281394796259     0.067879101208    14.003074004430
         C            0.701326318939    -0.003330203741     0.390462101208    12.000000000000
         C            1.490210318939    -1.147571203741    -0.227683898792    12.000000000000
         C           -0.804481681061    -0.057679203741     0.026010101208    12.000000000000
         H            0.734559518939    -0.093366203741     1.287826201208     1.007825032230
         H            2.537793318939    -1.115279203741     0.087177101208     1.007825032230
         H            1.053357318939    -2.104527203741     0.055585101208     1.007825032230
         H            1.459784318939    -1.075328203741    -1.321616898792     1.007825032230
         H            0.596654318939     1.968493796259     0.168479101208     1.007825032230
         H            1.517160318939     1.276185796259    -0.941887898792     1.007825032230

  Basis Set: AUG-CC-PVTZ
    Blend: AUG-CC-PVTZ
  Basis Set: (AUG-CC-PVTZ AUX)
    Blend: AUG-CC-PVTZ-JKFIT
	 Reference Energy          =    -321.3975089572545585 [Eh]
	 Singles Energy            =      -0.0000000000000000 [Eh]
	 Same-Spin Energy          =      -0.3255780524570315 [Eh]
	 Opposite-Spin Energy      =      -1.0060426203982349 [Eh]
	 Correlation Energy        =      -1.3316206728552664 [Eh]
	 Total Energy              =    -322.7291296301098100 [Eh]

	 ================> DF-SCS-MP2 Energies <==================
	-----------------------------------------------------------
	 SCS Same-Spin Scale       =       0.3333333333333333 [-]
	 SCS Opposite-Spin Scale   =       1.2000000000000000 [-]
	 SCS Same-Spin Energy      =      -0.1085260174856772 [Eh]
	 SCS Opposite-Spin Energy  =      -1.2072511444778817 [Eh]
	 SCS Correlation Energy    =      -1.3157771619635590 [Eh]
	 SCS Total Energy          =    -322.7132861192181394 [Eh]
	-----------------------------------------------------------

  Dipole Moment: [D]
     X:     4.4422      Y:    -0.1649      Z:    -0.1039     Total:     4.4464

*** Psi4 exiting successfully. Buy a developer a beer!
