                               Psi4 1.4a3.dev225

  ==> Input File <==

--------------------------------------------------------------------------
#psi4
#
memory 32 gb

molecule  {
-1 1
  O       -1.6933650     0.8030190    -0.4602720
  O       -1.1174780    -1.0749000     0.6904900
  N        1.4364130    -1.0622120    -0.3332000
  C        0.6126710     0.1580520    -0.4178300
  C        1.1905680     1.2200680     0.5150430
  C       -0.9217881    -0.0762290    -0.0331693
  H        0.6528320     0.5329630    -1.4473970
  H        2.2305690     1.4435080     0.2589170
  H        0.6009540     2.1390560     0.4596660
  H        1.1629700     0.8554330     1.5482090
  H        1.1631630    -1.6605680    -1.1160450
  H        1.0447980    -1.5551690     0.4751990
units angstrom
no_reorient  #important for SAPT in psi4, default
symmetry c1  #important for SAPT in psi4, default
}

set PROPERTIES_ORIGIN ["COM"]
properties('MP2/aug-cc-pvtz', properties = ['dipole'])
--------------------------------------------------------------------------

    Molecular point group: c1
  Charge       = -1
  Multiplicity = 1
  Basis Set: AUG-CC-PVTZ
    Blend: AUG-CC-PVTZ
  Basis Set: (AUG-CC-PVTZ AUX)
    Blend: AUG-CC-PVTZ-JKFIT

    Orbital Energies [Eh]
    ---------------------

    Doubly Occupied:

       1A    -20.304821     2A    -20.301030     3A    -15.384385
       4A    -11.139512     5A    -11.086947     6A    -11.066737
       7A     -1.182044     8A     -1.085929     9A     -1.017343
      10A     -0.837228    11A     -0.675622    12A     -0.536688
      13A     -0.501472    14A     -0.464438    15A     -0.422448
      16A     -0.407511    17A     -0.400329    18A     -0.365833
      19A     -0.347486    20A     -0.321048    21A     -0.283245
      22A     -0.222638    23A     -0.207332    24A     -0.181488

  @DF-RHF Final Energy:  -321.43048864314557

   => Energetics <=

    Nuclear Repulsion Energy =            238.0830795134170330
    One-Electron Energy =                -921.5400270188108607
    Two-Electron Energy =                 362.0264588622482620
    Total Energy =                       -321.4304886431455657
  Basis Set: (AUG-CC-PVTZ AUX)
    Blend: AUG-CC-PVTZ-RI
    Molecular point group: c1

    Geometry (in Angstrom), charge = -1, multiplicity = 1:

       Center              X                  Y                   Z               Mass
    ------------   -----------------  -----------------  -----------------  -----------------
         O           -1.609781755220     0.823819772355    -0.459874038721    15.994914619570
         O           -1.033894755220    -1.054099227645     0.690887961279    15.994914619570
         N            1.519996244780    -1.041411227645    -0.332802038721    14.003074004430
         C            0.696254244780     0.178852772355    -0.417432038721    12.000000000000
         C            1.274151244780     1.240868772355     0.515440961279    12.000000000000
         C           -0.838204855220    -0.055428227645    -0.032771338721    12.000000000000
         H            0.736415244780     0.553763772355    -1.446999038721     1.007825032230
         H            2.314152244780     1.464308772355     0.259314961279     1.007825032230
         H            0.684537244780     2.159856772355     0.460063961279     1.007825032230
         H            1.246553244780     0.876233772355     1.548606961279     1.007825032230
         H            1.246746244780    -1.639767227645    -1.115647038721     1.007825032230
         H            1.128381244780    -1.534368227645     0.475596961279     1.007825032230

  Basis Set: AUG-CC-PVTZ
    Blend: AUG-CC-PVTZ
  Basis Set: (AUG-CC-PVTZ AUX)
    Blend: AUG-CC-PVTZ-JKFIT
	 Reference Energy          =    -321.4304886431455657 [Eh]
	 Singles Energy            =      -0.0000000000000000 [Eh]
	 Same-Spin Energy          =      -0.3248681808265220 [Eh]
	 Opposite-Spin Energy      =      -1.0050979136223641 [Eh]
	 Correlation Energy        =      -1.3299660944488860 [Eh]
	 Total Energy              =    -322.7604547375944435 [Eh]

	 ================> DF-SCS-MP2 Energies <==================
	-----------------------------------------------------------
	 SCS Same-Spin Scale       =       0.3333333333333333 [-]
	 SCS Opposite-Spin Scale   =       1.2000000000000000 [-]
	 SCS Same-Spin Energy      =      -0.1082893936088407 [Eh]
	 SCS Opposite-Spin Energy  =      -1.2061174963468368 [Eh]
	 SCS Correlation Energy    =      -1.3144068899556776 [Eh]
	 SCS Total Energy          =    -322.7448955331012712 [Eh]
	-----------------------------------------------------------

  Dipole Moment: [D]
     X:     3.7949      Y:     0.2566      Z:    -0.7077     Total:     3.8689

*** Psi4 exiting successfully. Buy a developer a beer!
