                               Psi4 1.3.2 release

  ==> Input File <==

--------------------------------------------------------------------------
#psi4
#
memory 32 gb

molecule  {
-1 1
  O       -1.4366360    -1.1870470     0.0571230
  O       -1.4476160     1.0691130    -0.2107340
  N        1.2636070     1.2939420     0.0706720
  C        0.6179830     0.0092170     0.3932550
  C        1.4068670    -1.1350240    -0.2248910
  C       -0.9759979     0.1303731    -0.0089265
  H        0.6585810    -0.1007720     1.4894850
  H        2.4544500    -1.1027320     0.0899700
  H        0.9700140    -2.0919800     0.0583780
  H        1.3764410    -1.0627810    -1.3188240
  H        0.5133110     1.9810410     0.1712720
  H        1.4338170     1.2887330    -0.9390950
units angstrom
no_reorient  #important for SAPT in psi4, default
symmetry c1  #important for SAPT in psi4, default
}

set PROPERTIES_ORIGIN ["COM"]
properties('MP2/aug-cc-pvtz', properties = ['dipole'])
--------------------------------------------------------------------------

    Molecular point group: c1
  Charge       = -1
  Multiplicity = 1
  Basis Set: AUG-CC-PVTZ
    Blend: AUG-CC-PVTZ
  Basis Set: (AUG-CC-PVTZ AUX)
    Blend: AUG-CC-PVTZ-JKFIT

    Orbital Energies [Eh]
    ---------------------

    Doubly Occupied:

       1A    -20.348916     2A    -20.262348     3A    -15.383894
       4A    -11.133875     5A    -11.082367     6A    -11.062362
       7A     -1.302446     8A     -1.026206     9A     -1.010661
      10A     -0.827041    11A     -0.672121    12A     -0.543849
      13A     -0.511992    14A     -0.488650    15A     -0.436555
      16A     -0.425641    17A     -0.413038    18A     -0.386923
      19A     -0.344974    20A     -0.332200    21A     -0.279361
      22A     -0.206069    23A     -0.184975    24A     -0.152927

  @DF-RHF Final Energy:  -321.36097792397408

   => Energetics <=

    Nuclear Repulsion Energy =            238.5255609161802113
    One-Electron Energy =                -922.1342996216050096
    Two-Electron Energy =                 362.2477607814507223
    Total Energy =                       -321.3609779239740760
  Basis Set: (AUG-CC-PVTZ AUX)
    Blend: AUG-CC-PVTZ-RI
    Molecular point group: c1

    Geometry (in Angstrom), charge = -1, multiplicity = 1:

       Center              X                  Y                   Z               Mass
    ------------   -----------------  -----------------  -----------------  -----------------
         O           -1.341358854173    -1.223287474296     0.057196211930    15.994914619570
         O           -1.352338854173     1.032872525704    -0.210660788070    15.994914619570
         N            1.358884145827     1.257701525704     0.070745211930    14.003074004430
         C            0.713260145827    -0.027023474296     0.393328211930    12.000000000000
         C            1.502144145827    -1.171264474296    -0.224817788070    12.000000000000
         C           -0.880720754173     0.094132625704    -0.008853288070    12.000000000000
         H            0.753858145827    -0.137012474296     1.489558211930     1.007825032230
         H            2.549727145827    -1.138972474296     0.090043211930     1.007825032230
         H            1.065291145827    -2.128220474296     0.058451211930     1.007825032230
         H            1.471718145827    -1.099021474296    -1.318750788070     1.007825032230
         H            0.608588145827     1.944800525704     0.171345211930     1.007825032230
         H            1.529094145827     1.252492525704    -0.939021788070     1.007825032230

  Basis Set: AUG-CC-PVTZ
    Blend: AUG-CC-PVTZ
  Basis Set: (AUG-CC-PVTZ AUX)
    Blend: AUG-CC-PVTZ-JKFIT
	 Reference Energy          =    -321.3609779239740760 [Eh]
	 Singles Energy            =      -0.0000000000000000 [Eh]
	 Same-Spin Energy          =      -0.3241660670193792 [Eh]
	 Opposite-Spin Energy      =      -1.0038352411971980 [Eh]
	 Correlation Energy        =      -1.3280013082165771 [Eh]
	 Total Energy              =    -322.6889792321906612 [Eh]

	 ================> DF-SCS-MP2 Energies <==================
	-----------------------------------------------------------
	 SCS Same-Spin Scale       =       0.3333333333333333 [-]
	 SCS Opposite-Spin Scale   =       1.2000000000000000 [-]
	 SCS Same-Spin Energy      =      -0.1080553556731264 [Eh]
	 SCS Opposite-Spin Energy  =      -1.2046022894366375 [Eh]
	 SCS Correlation Energy    =      -1.3126576451097640 [Eh]
	 SCS Total Energy          =    -322.6736355690838423 [Eh]
	-----------------------------------------------------------

  Dipole Moment: [D]
     X:     3.9216      Y:     1.8343      Z:    -0.5206     Total:     4.3606

*** Psi4 exiting successfully. Buy a developer a beer!
