                               Psi4 1.3.2 release

  ==> Input File <==

--------------------------------------------------------------------------
#psi4
#
memory 32 gb

molecule  {
-1 1
  O       -1.4366360    -1.1870470     0.0571230
  O       -1.4476160     1.0691130    -0.2107340
  N        1.2495744     1.2799563    -0.0038878
  C        0.6179830     0.0092170     0.3932550
  C        1.4068670    -1.1350240    -0.2248910
  C       -0.8878250    -0.0451320     0.0288030
  H        0.6314821    -0.1514259     1.4838868
  H        2.4544500    -1.1027320     0.0899700
  H        0.9700140    -2.0919800     0.0583780
  H        1.3764410    -1.0627810    -1.3188240
  H        0.5133110     1.9810410     0.1712720
  H        1.4338170     1.2887330    -0.9390950
units angstrom
no_reorient  #important for SAPT in psi4, default
symmetry c1  #important for SAPT in psi4, default
}

set PROPERTIES_ORIGIN ["COM"]
properties('MP2/aug-cc-pvtz', properties = ['dipole'])
--------------------------------------------------------------------------

    Molecular point group: c1
  Charge       = -1
  Multiplicity = 1
  Basis Set: AUG-CC-PVTZ
    Blend: AUG-CC-PVTZ
  Basis Set: (AUG-CC-PVTZ AUX)
    Blend: AUG-CC-PVTZ-JKFIT

    Orbital Energies [Eh]
    ---------------------

    Doubly Occupied:

       1A    -20.300807     2A    -20.297061     3A    -15.376816
       4A    -11.139376     5A    -11.093839     6A    -11.070008
       7A     -1.169001     8A     -1.068183     9A     -1.026031
      10A     -0.844013    11A     -0.697861    12A     -0.536699
      13A     -0.507976    14A     -0.460370    15A     -0.455786
      16A     -0.401068    17A     -0.386889    18A     -0.372154
      19A     -0.346233    20A     -0.317886    21A     -0.274040
      22A     -0.214230    23A     -0.199419    24A     -0.190248

  @DF-RHF Final Energy:  -321.42452388618057

   => Energetics <=

    Nuclear Repulsion Energy =            238.4763560088840961
    One-Electron Energy =                -922.3097662714143326
    Two-Electron Energy =                 362.4088863763496988
    Total Energy =                       -321.4245238861805660
  Basis Set: (AUG-CC-PVTZ AUX)
    Blend: AUG-CC-PVTZ-RI
    Molecular point group: c1

    Geometry (in Angstrom), charge = -1, multiplicity = 1:

       Center              X                  Y                   Z               Mass
    ------------   -----------------  -----------------  -----------------  -----------------
         O           -1.350834838984    -1.196561461376     0.063976713941    15.994914619570
         O           -1.361814838984     1.059598538624    -0.203880286059    15.994914619570
         N            1.335375561016     1.270441838624     0.002965913941    14.003074004430
         C            0.703784161016    -0.000297461376     0.400108713941    12.000000000000
         C            1.492668161016    -1.144538461376    -0.218037286059    12.000000000000
         C           -0.802023838984    -0.054646461376     0.035656713941    12.000000000000
         H            0.717283261016    -0.160940361376     1.490740513941     1.007825032230
         H            2.540251161016    -1.112246461376     0.096823713941     1.007825032230
         H            1.055815161016    -2.101494461376     0.065231713941     1.007825032230
         H            1.462242161016    -1.072295461376    -1.311970286059     1.007825032230
         H            0.599112161016     1.971526538624     0.178125713941     1.007825032230
         H            1.519618161016     1.279218538624    -0.932241286059     1.007825032230

  Basis Set: AUG-CC-PVTZ
    Blend: AUG-CC-PVTZ
  Basis Set: (AUG-CC-PVTZ AUX)
    Blend: AUG-CC-PVTZ-JKFIT
	 Reference Energy          =    -321.4245238861805660 [Eh]
	 Singles Energy            =      -0.0000000000000000 [Eh]
	 Same-Spin Energy          =      -0.3252944403831742 [Eh]
	 Opposite-Spin Energy      =      -1.0053521883837009 [Eh]
	 Correlation Energy        =      -1.3306466287668752 [Eh]
	 Total Energy              =    -322.7551705149474515 [Eh]

	 ================> DF-SCS-MP2 Energies <==================
	-----------------------------------------------------------
	 SCS Same-Spin Scale       =       0.3333333333333333 [-]
	 SCS Opposite-Spin Scale   =       1.2000000000000000 [-]
	 SCS Same-Spin Energy      =      -0.1084314801277247 [Eh]
	 SCS Opposite-Spin Energy  =      -1.2064226260604409 [Eh]
	 SCS Correlation Energy    =      -1.3148541061881658 [Eh]
	 SCS Total Energy          =    -322.7393779923687589 [Eh]
	-----------------------------------------------------------

  Dipole Moment: [D]
     X:     4.4938      Y:    -0.0803      Z:    -0.1772     Total:     4.4980

*** Psi4 exiting successfully. Buy a developer a beer!
