                               Psi4 1.3.2 release

  ==> Input File <==

--------------------------------------------------------------------------
#psi4
#
memory 32 gb

molecule  {
-1 1
  O       -1.4366360    -1.1870470     0.0571230
  O       -1.4476160     1.0691130    -0.2107340
  N        1.2636070     1.2939420     0.0706720
  C        0.5961621     0.0005634     0.3808554
  C        1.4068670    -1.1350240    -0.2248910
  C       -0.8878250    -0.0451320     0.0288030
  H        0.6585810    -0.1007720     1.4894850
  H        2.4579009    -1.1183355     0.0795093
  H        0.9700140    -2.0919800     0.0583780
  H        1.3764410    -1.0627810    -1.3188240
  H        0.5133110     1.9810410     0.1712720
  H        1.4338170     1.2887330    -0.9390950
units angstrom
no_reorient  #important for SAPT in psi4, default
symmetry c1  #important for SAPT in psi4, default
}

set PROPERTIES_ORIGIN ["COM"]
properties('MP2/aug-cc-pvtz', properties = ['dipole'])
--------------------------------------------------------------------------

    Molecular point group: c1
  Charge       = -1
  Multiplicity = 1
  Basis Set: AUG-CC-PVTZ
    Blend: AUG-CC-PVTZ
  Basis Set: (AUG-CC-PVTZ AUX)
    Blend: AUG-CC-PVTZ-JKFIT

    Orbital Energies [Eh]
    ---------------------

    Doubly Occupied:

       1A    -20.302459     2A    -20.298305     3A    -15.385869
       4A    -11.141146     5A    -11.094876     6A    -11.071924
       7A     -1.171286     8A     -1.069759     9A     -1.018473
      10A     -0.842787    11A     -0.698246    12A     -0.539653
      13A     -0.499910    14A     -0.461603    15A     -0.440170
      16A     -0.401158    17A     -0.389348    18A     -0.371099
      19A     -0.344902    20A     -0.316451    21A     -0.278445
      22A     -0.216636    23A     -0.201186    24A     -0.197215

  @DF-RHF Final Energy:  -321.42732696156401

   => Energetics <=

    Nuclear Repulsion Energy =            238.1180048227206214
    One-Electron Energy =                -921.5848576978009987
    Two-Electron Energy =                 362.0395259135163428
    Total Energy =                       -321.4273269615640061
  Basis Set: (AUG-CC-PVTZ AUX)
    Blend: AUG-CC-PVTZ-RI
    Molecular point group: c1

    Geometry (in Angstrom), charge = -1, multiplicity = 1:

       Center              X                  Y                   Z               Mass
    ------------   -----------------  -----------------  -----------------  -----------------
         O           -1.350442262109    -1.198007673036     0.053863445765    15.994914619570
         O           -1.361422262109     1.058152326964    -0.213993554235    15.994914619570
         N            1.349800737891     1.282981326964     0.067412445765    14.003074004430
         C            0.682355837891    -0.010397273036     0.377595845765    12.000000000000
         C            1.493060737891    -1.145984673036    -0.228150554235    12.000000000000
         C           -0.801631262109    -0.056092673036     0.025543445765    12.000000000000
         H            0.744774737891    -0.111732673036     1.486225445765     1.007825032230
         H            2.544094637891    -1.129296173036     0.076249745765     1.007825032230
         H            1.056207737891    -2.102940673036     0.055118445765     1.007825032230
         H            1.462634737891    -1.073741673036    -1.322083554235     1.007825032230
         H            0.599504737891     1.970080326964     0.168012445765     1.007825032230
         H            1.520010737891     1.277772326964    -0.942354554235     1.007825032230

  Basis Set: AUG-CC-PVTZ
    Blend: AUG-CC-PVTZ
  Basis Set: (AUG-CC-PVTZ AUX)
    Blend: AUG-CC-PVTZ-JKFIT
	 Reference Energy          =    -321.4273269615640061 [Eh]
	 Singles Energy            =      -0.0000000000000000 [Eh]
	 Same-Spin Energy          =      -0.3256358520041068 [Eh]
	 Opposite-Spin Energy      =      -1.0068709725320109 [Eh]
	 Correlation Energy        =      -1.3325068245361176 [Eh]
	 Total Energy              =    -322.7598337861001028 [Eh]

	 ================> DF-SCS-MP2 Energies <==================
	-----------------------------------------------------------
	 SCS Same-Spin Scale       =       0.3333333333333333 [-]
	 SCS Opposite-Spin Scale   =       1.2000000000000000 [-]
	 SCS Same-Spin Energy      =      -0.1085452840013689 [Eh]
	 SCS Opposite-Spin Energy  =      -1.2082451670384129 [Eh]
	 SCS Correlation Energy    =      -1.3167904510397819 [Eh]
	 SCS Total Energy          =    -322.7441174126037708 [Eh]
	-----------------------------------------------------------

  Dipole Moment: [D]
     X:     4.4474      Y:    -0.1601      Z:    -0.2241     Total:     4.4559

*** Psi4 exiting successfully. Buy a developer a beer!
