                               Psi4 1.4a3.dev225

  ==> Input File <==

--------------------------------------------------------------------------
#psi4
#
memory 32 gb

molecule  {
-1 1
  O       -1.6933650     0.8030190    -0.4602720
  O       -1.1174780    -1.0749000     0.6904900
  N        1.4364130    -1.0622120    -0.3332000
  C        0.6126710     0.1580520    -0.4178300
  C        1.1905680     1.2200680     0.5150430
  C       -0.8414588    -0.1033246    -0.0288102
  H        0.6528320     0.5329630    -1.4473970
  H        2.2305690     1.4435080     0.2589170
  H        0.6009540     2.1390560     0.4596660
  H        1.1629700     0.8554330     1.5482090
  H        1.1631630    -1.6605680    -1.1160450
  H        1.0447980    -1.5551690     0.4751990
units angstrom
no_reorient  #important for SAPT in psi4, default
symmetry c1  #important for SAPT in psi4, default
}

set PROPERTIES_ORIGIN ["COM"]
properties('MP2/aug-cc-pvtz', properties = ['dipole'])
--------------------------------------------------------------------------

    Molecular point group: c1
  Charge       = -1
  Multiplicity = 1
  Basis Set: AUG-CC-PVTZ
    Blend: AUG-CC-PVTZ
  Basis Set: (AUG-CC-PVTZ AUX)
    Blend: AUG-CC-PVTZ-JKFIT

    Orbital Energies [Eh]
    ---------------------

    Doubly Occupied:

       1A    -20.312366     2A    -20.287725     3A    -15.389538
       4A    -11.140791     5A    -11.094440     6A    -11.071797
       7A     -1.174766     8A     -1.053053     9A     -1.026054
      10A     -0.845343    11A     -0.692975    12A     -0.549158
      13A     -0.506400    14A     -0.463909    15A     -0.423817
      16A     -0.409657    17A     -0.392216    18A     -0.366944
      19A     -0.347198    20A     -0.318643    21A     -0.280207
      22A     -0.216916    23A     -0.195593    24A     -0.191440

  @DF-RHF Final Energy:  -321.42368276887385

   => Energetics <=

    Nuclear Repulsion Energy =            238.2781233874638929
    One-Electron Energy =                -921.9017210761400065
    Two-Electron Energy =                 362.1999149198022678
    Total Energy =                       -321.4236827688738458
  Basis Set: (AUG-CC-PVTZ AUX)
    Blend: AUG-CC-PVTZ-RI
    Molecular point group: c1

    Geometry (in Angstrom), charge = -1, multiplicity = 1:

       Center              X                  Y                   Z               Mass
    ------------   -----------------  -----------------  -----------------  -----------------
         O           -1.620730792075     0.827512954333    -0.460468192368    15.994914619570
         O           -1.044843792075    -1.050406045667     0.690293807632    15.994914619570
         N            1.509047207925    -1.037718045667    -0.333396192368    14.003074004430
         C            0.685305207925     0.182545954333    -0.418026192368    12.000000000000
         C            1.263202207925     1.244561954333     0.514846807632    12.000000000000
         C           -0.768824592075    -0.078830645667    -0.029006392368    12.000000000000
         H            0.725466207925     0.557456954333    -1.447593192368     1.007825032230
         H            2.303203207925     1.468001954333     0.258720807632     1.007825032230
         H            0.673588207925     2.163549954333     0.459469807632     1.007825032230
         H            1.235604207925     0.879926954333     1.548012807632     1.007825032230
         H            1.235797207925    -1.636074045667    -1.116241192368     1.007825032230
         H            1.117432207925    -1.530675045667     0.475002807632     1.007825032230

  Basis Set: AUG-CC-PVTZ
    Blend: AUG-CC-PVTZ
  Basis Set: (AUG-CC-PVTZ AUX)
    Blend: AUG-CC-PVTZ-JKFIT
	 Reference Energy          =    -321.4236827688738458 [Eh]
	 Singles Energy            =      -0.0000000000000000 [Eh]
	 Same-Spin Energy          =      -0.3259269595435631 [Eh]
	 Opposite-Spin Energy      =      -1.0076200623970211 [Eh]
	 Correlation Energy        =      -1.3335470219405843 [Eh]
	 Total Energy              =    -322.7572297908144492 [Eh]

	 ================> DF-SCS-MP2 Energies <==================
	-----------------------------------------------------------
	 SCS Same-Spin Scale       =       0.3333333333333333 [-]
	 SCS Opposite-Spin Scale   =       1.2000000000000000 [-]
	 SCS Same-Spin Energy      =      -0.1086423198478544 [Eh]
	 SCS Opposite-Spin Energy  =      -1.2091440748764253 [Eh]
	 SCS Correlation Energy    =      -1.3177863947242796 [Eh]
	 SCS Total Energy          =    -322.7414691635981399 [Eh]
	-----------------------------------------------------------

  Dipole Moment: [D]
     X:     4.3824      Y:    -0.0407      Z:    -0.5472     Total:     4.4166

*** Psi4 exiting successfully. Buy a developer a beer!
