                               Psi4 1.4a3.dev225

  ==> Input File <==

--------------------------------------------------------------------------
#psi4
#
memory 32 gb

molecule  {
-1 1
  O       -1.6933650     0.8030190    -0.4602720
  O       -1.1174780    -1.0749000     0.6904900
  N        1.4364130    -1.0622120    -0.3332000
  C        0.6126710     0.1580520    -0.4178300
  C        1.1981365     1.2339767     0.5272604
  C       -0.8738120    -0.0689040    -0.0451960
  H        0.6528320     0.5329630    -1.4473970
  H        2.2305690     1.4435080     0.2589170
  H        0.6009540     2.1390560     0.4596660
  H        1.1629700     0.8554330     1.5482090
  H        1.1631630    -1.6605680    -1.1160450
  H        1.0447980    -1.5551690     0.4751990
units angstrom
no_reorient  #important for SAPT in psi4, default
symmetry c1  #important for SAPT in psi4, default
}

set PROPERTIES_ORIGIN ["COM"]
properties('MP2/aug-cc-pvtz', properties = ['dipole'])
--------------------------------------------------------------------------

    Molecular point group: c1
  Charge       = -1
  Multiplicity = 1
  Basis Set: AUG-CC-PVTZ
    Blend: AUG-CC-PVTZ
  Basis Set: (AUG-CC-PVTZ AUX)
    Blend: AUG-CC-PVTZ-JKFIT

    Orbital Energies [Eh]
    ---------------------

    Doubly Occupied:

       1A    -20.302551     2A    -20.298687     3A    -15.387508
       4A    -11.140328     5A    -11.093365     6A    -11.069484
       7A     -1.169818     8A     -1.069520     9A     -1.020653
      10A     -0.841152    11A     -0.689160    12A     -0.542774
      13A     -0.503900    14A     -0.461430    15A     -0.424425
      16A     -0.407444    17A     -0.396248    18A     -0.366951
      19A     -0.347764    20A     -0.315525    21A     -0.281663
      22A     -0.216480    23A     -0.200593    24A     -0.192394

  @DF-RHF Final Energy:  -321.42885145968569

   => Energetics <=

    Nuclear Repulsion Energy =            237.8417710737198263
    One-Electron Energy =                -921.0616068900071696
    Two-Electron Energy =                 361.7909843566015979
    Total Energy =                       -321.4288514596856885
  Basis Set: (AUG-CC-PVTZ AUX)
    Blend: AUG-CC-PVTZ-RI
    Molecular point group: c1

    Geometry (in Angstrom), charge = -1, multiplicity = 1:

       Center              X                  Y                   Z               Mass
    ------------   -----------------  -----------------  -----------------  -----------------
         O           -1.617352590177     0.820925578532    -0.459900031494    15.994914619570
         O           -1.041465590177    -1.056993421468     0.690861968506    15.994914619570
         N            1.512425409823    -1.044305421468    -0.332828031494    14.003074004430
         C            0.688683409823     0.175958578532    -0.417458031494    12.000000000000
         C            1.274148909823     1.251883278532     0.527632368506    12.000000000000
         C           -0.797799590177    -0.050997421468    -0.044824031494    12.000000000000
         H            0.728844409823     0.550869578532    -1.447025031494     1.007825032230
         H            2.306581409823     1.461414578532     0.259288968506     1.007825032230
         H            0.676966409823     2.156962578532     0.460037968506     1.007825032230
         H            1.238982409823     0.873339578532     1.548580968506     1.007825032230
         H            1.239175409823    -1.642661421468    -1.115673031494     1.007825032230
         H            1.120810409823    -1.537262421468     0.475570968506     1.007825032230

  Basis Set: AUG-CC-PVTZ
    Blend: AUG-CC-PVTZ
  Basis Set: (AUG-CC-PVTZ AUX)
    Blend: AUG-CC-PVTZ-JKFIT
	 Reference Energy          =    -321.4288514596856885 [Eh]
	 Singles Energy            =      -0.0000000000000000 [Eh]
	 Same-Spin Energy          =      -0.3254574187801187 [Eh]
	 Opposite-Spin Energy      =      -1.0066567081497610 [Eh]
	 Correlation Energy        =      -1.3321141269298797 [Eh]
	 Total Energy              =    -322.7609655866155549 [Eh]

	 ================> DF-SCS-MP2 Energies <==================
	-----------------------------------------------------------
	 SCS Same-Spin Scale       =       0.3333333333333333 [-]
	 SCS Opposite-Spin Scale   =       1.2000000000000000 [-]
	 SCS Same-Spin Energy      =      -0.1084858062600396 [Eh]
	 SCS Opposite-Spin Energy  =      -1.2079880497797133 [Eh]
	 SCS Correlation Energy    =      -1.3164738560397529 [Eh]
	 SCS Total Energy          =    -322.7453253157254380 [Eh]
	-----------------------------------------------------------

  Dipole Moment: [D]
     X:     4.1266      Y:     0.3101      Z:    -0.7545     Total:     4.2064

*** Psi4 exiting successfully. Buy a developer a beer!
