                               Psi4 1.3.2 release

  ==> Input File <==

--------------------------------------------------------------------------
#psi4
#
memory 32 gb

molecule  {
-1 1
  O       -1.3774268    -1.2132154     0.0716601
  O       -1.3885343     1.0985248    -0.2027679
  N        1.2636070     1.2939420     0.0706720
  C        0.6179830     0.0092170     0.3932550
  C        1.4068670    -1.1350240    -0.2248910
  C       -0.8878250    -0.0451320     0.0288030
  H        0.6585810    -0.1007720     1.4894850
  H        2.4544500    -1.1027320     0.0899700
  H        0.9700140    -2.0919800     0.0583780
  H        1.3764410    -1.0627810    -1.3188240
  H        0.5133110     1.9810410     0.1712720
  H        1.4338170     1.2887330    -0.9390950
units angstrom
no_reorient  #important for SAPT in psi4, default
symmetry c1  #important for SAPT in psi4, default
}

set PROPERTIES_ORIGIN ["COM"]
properties('MP2/aug-cc-pvtz', properties = ['dipole'])
--------------------------------------------------------------------------

    Molecular point group: c1
  Charge       = -1
  Multiplicity = 1
  Basis Set: AUG-CC-PVTZ
    Blend: AUG-CC-PVTZ
  Basis Set: (AUG-CC-PVTZ AUX)
    Blend: AUG-CC-PVTZ-JKFIT

    Orbital Energies [Eh]
    ---------------------

    Doubly Occupied:

       1A    -20.307959     2A    -20.304150     3A    -15.380227
       4A    -11.144567     5A    -11.085924     6A    -11.067105
       7A     -1.171857     8A     -1.080292     9A     -1.016115
      10A     -0.837153    11A     -0.689766    12A     -0.536740
      13A     -0.497881    14A     -0.462351    15A     -0.438605
      16A     -0.403873    17A     -0.386384    18A     -0.371001
      19A     -0.344260    20A     -0.317261    21A     -0.277048
      22A     -0.222832    23A     -0.207363    24A     -0.189151

  @DF-RHF Final Energy:  -321.42637685284592

   => Energetics <=

    Nuclear Repulsion Energy =            238.7130538650501705
    One-Electron Energy =                -922.7991331355198099
    Two-Electron Energy =                 362.6597024176237483
    Total Energy =                       -321.4263768528459195
  Basis Set: (AUG-CC-PVTZ AUX)
    Blend: AUG-CC-PVTZ-RI
    Molecular point group: c1

    Geometry (in Angstrom), charge = -1, multiplicity = 1:

       Center              X                  Y                   Z               Mass
    ------------   -----------------  -----------------  -----------------  -----------------
         O           -1.315658656410    -1.226123449108     0.062502370136    15.994914619570
         O           -1.326766156410     1.085616750892    -0.211925629864    15.994914619570
         N            1.325375143590     1.281033950892     0.061514270136    14.003074004430
         C            0.679751143590    -0.003691049108     0.384097270136    12.000000000000
         C            1.468635143590    -1.147932049108    -0.234048729864    12.000000000000
         C           -0.826056856410    -0.058040049108     0.019645270136    12.000000000000
         H            0.720349143590    -0.113680049108     1.480327270136     1.007825032230
         H            2.516218143590    -1.115640049108     0.080812270136     1.007825032230
         H            1.031782143590    -2.104888049108     0.049220270136     1.007825032230
         H            1.438209143590    -1.075689049108    -1.327981729864     1.007825032230
         H            0.575079143590     1.968132950892     0.162114270136     1.007825032230
         H            1.495585143590     1.275824950892    -0.948252729864     1.007825032230

  Basis Set: AUG-CC-PVTZ
    Blend: AUG-CC-PVTZ
  Basis Set: (AUG-CC-PVTZ AUX)
    Blend: AUG-CC-PVTZ-JKFIT
	 Reference Energy          =    -321.4263768528459195 [Eh]
	 Singles Energy            =      -0.0000000000000000 [Eh]
	 Same-Spin Energy          =      -0.3260124670797690 [Eh]
	 Opposite-Spin Energy      =      -1.0071393650620104 [Eh]
	 Correlation Energy        =      -1.3331518321417795 [Eh]
	 Total Energy              =    -322.7595286849876857 [Eh]

	 ================> DF-SCS-MP2 Energies <==================
	-----------------------------------------------------------
	 SCS Same-Spin Scale       =       0.3333333333333333 [-]
	 SCS Opposite-Spin Scale   =       1.2000000000000000 [-]
	 SCS Same-Spin Energy      =      -0.1086708223599230 [Eh]
	 SCS Opposite-Spin Energy  =      -1.2085672380744124 [Eh]
	 SCS Correlation Energy    =      -1.3172380604343354 [Eh]
	 SCS Total Energy          =    -322.7436149132802825 [Eh]
	-----------------------------------------------------------

  Dipole Moment: [D]
     X:     4.0787      Y:    -0.1479      Z:    -0.2597     Total:     4.0896

*** Psi4 exiting successfully. Buy a developer a beer!
