                               Psi4 1.4a3.dev225

  ==> Input File <==

--------------------------------------------------------------------------
#psi4
#
memory 32 gb

molecule  {
-1 1
  O       -1.6933650     0.8030190    -0.4602720
  O       -1.1174780    -1.0749000     0.6904900
  N        1.4364130    -1.0622120    -0.3332000
  C        0.6126710     0.1580520    -0.4178300
  C        1.1905680     1.2200680     0.5150430
  C       -0.8258359    -0.0615790    -0.0572227
  H        0.6528320     0.5329630    -1.4473970
  H        2.2305690     1.4435080     0.2589170
  H        0.6009540     2.1390560     0.4596660
  H        1.1629700     0.8554330     1.5482090
  H        1.1631630    -1.6605680    -1.1160450
  H        1.0447980    -1.5551690     0.4751990
units angstrom
no_reorient  #important for SAPT in psi4, default
symmetry c1  #important for SAPT in psi4, default
}

set PROPERTIES_ORIGIN ["COM"]
properties('MP2/aug-cc-pvtz', properties = ['dipole'])
--------------------------------------------------------------------------

    Molecular point group: c1
  Charge       = -1
  Multiplicity = 1
  Basis Set: AUG-CC-PVTZ
    Blend: AUG-CC-PVTZ
  Basis Set: (AUG-CC-PVTZ AUX)
    Blend: AUG-CC-PVTZ-JKFIT

    Orbital Energies [Eh]
    ---------------------

    Doubly Occupied:

       1A    -20.301259     2A    -20.297250     3A    -15.390339
       4A    -11.142426     5A    -11.096432     6A    -11.073909
       7A     -1.158238     8A     -1.054480     9A     -1.024795
      10A     -0.849621    11A     -0.701472    12A     -0.550725
      13A     -0.508353    14A     -0.458548    15A     -0.425886
      16A     -0.409376    17A     -0.389558    18A     -0.367257
      19A     -0.344889    20A     -0.311550    21A     -0.280780
      22A     -0.214055    23A     -0.199966    24A     -0.192942

  @DF-RHF Final Energy:  -321.42168721830200

   => Energetics <=

    Nuclear Repulsion Energy =            238.2267667133373834
    One-Electron Energy =                -921.8086981531150741
    Two-Electron Energy =                 362.1602442214756934
    Total Energy =                       -321.4216872183019973
  Basis Set: (AUG-CC-PVTZ AUX)
    Blend: AUG-CC-PVTZ-RI
    Molecular point group: c1

    Geometry (in Angstrom), charge = -1, multiplicity = 1:

       Center              X                  Y                   Z               Mass
    ------------   -----------------  -----------------  -----------------  -----------------
         O           -1.622860223153     0.821822949404    -0.456595514408    15.994914619570
         O           -1.046973223153    -1.056096050596     0.694166485592    15.994914619570
         N            1.506917776847    -1.043408050596    -0.329523514408    14.003074004430
         C            0.683175776847     0.176855949404    -0.414153514408    12.000000000000
         C            1.261072776847     1.238871949404     0.518719485592    12.000000000000
         C           -0.755331123153    -0.042775050596    -0.053546214408    12.000000000000
         H            0.723336776847     0.551766949404    -1.443720514408     1.007825032230
         H            2.301073776847     1.462311949404     0.262593485592     1.007825032230
         H            0.671458776847     2.157859949404     0.463342485592     1.007825032230
         H            1.233474776847     0.874236949404     1.551885485592     1.007825032230
         H            1.233667776847    -1.641764050596    -1.112368514408     1.007825032230
         H            1.115302776847    -1.536365050596     0.478875485592     1.007825032230

  Basis Set: AUG-CC-PVTZ
    Blend: AUG-CC-PVTZ
  Basis Set: (AUG-CC-PVTZ AUX)
    Blend: AUG-CC-PVTZ-JKFIT
	 Reference Energy          =    -321.4216872183019973 [Eh]
	 Singles Energy            =      -0.0000000000000000 [Eh]
	 Same-Spin Energy          =      -0.3265901311479192 [Eh]
	 Opposite-Spin Energy      =      -1.0090055808133898 [Eh]
	 Correlation Energy        =      -1.3355957119613091 [Eh]
	 Total Energy              =    -322.7572829302633295 [Eh]

	 ================> DF-SCS-MP2 Energies <==================
	-----------------------------------------------------------
	 SCS Same-Spin Scale       =       0.3333333333333333 [-]
	 SCS Opposite-Spin Scale   =       1.2000000000000000 [-]
	 SCS Same-Spin Energy      =      -0.1088633770493064 [Eh]
	 SCS Opposite-Spin Energy  =      -1.2108066969760676 [Eh]
	 SCS Correlation Energy    =      -1.3196700740253740 [Eh]
	 SCS Total Energy          =    -322.7413572923273932 [Eh]
	-----------------------------------------------------------

  Dipole Moment: [D]
     X:     4.4034      Y:     0.3572      Z:    -0.7992     Total:     4.4896

*** Psi4 exiting successfully. Buy a developer a beer!
