                               Psi4 1.3.2 release

  ==> Input File <==

--------------------------------------------------------------------------
#psi4
#
memory 32 gb

molecule  {
-1 1
  O       -1.4366360    -1.1870470     0.0571230
  O       -1.4476160     1.0691130    -0.2107340
  N        1.2636070     1.2939420     0.0706720
  C        0.6179830     0.0092170     0.3932550
  C        1.4068670    -1.1350240    -0.2248910
  C       -0.8878250    -0.0451320     0.0288030
  H        0.6585810    -0.1007720     1.4894850
  H        2.4544500    -1.1027320     0.0899700
  H        0.9700140    -2.0919800     0.0583780
  H        1.3764410    -1.0627810    -1.3188240
  H        0.5867014     1.9138322     0.1614318
  H        1.4338170     1.2887330    -0.9390950
units angstrom
no_reorient  #important for SAPT in psi4, default
symmetry c1  #important for SAPT in psi4, default
}

set PROPERTIES_ORIGIN ["COM"]
properties('MP2/aug-cc-pvtz', properties = ['dipole'])
--------------------------------------------------------------------------

    Molecular point group: c1
  Charge       = -1
  Multiplicity = 1
  Basis Set: AUG-CC-PVTZ
    Blend: AUG-CC-PVTZ
  Basis Set: (AUG-CC-PVTZ AUX)
    Blend: AUG-CC-PVTZ-JKFIT

    Orbital Energies [Eh]
    ---------------------

    Doubly Occupied:

       1A    -20.301807     2A    -20.298259     3A    -15.376081
       4A    -11.141349     5A    -11.093681     6A    -11.071425
       7A     -1.170032     8A     -1.069596     9A     -1.036745
      10A     -0.848126    11A     -0.696192    12A     -0.541915
      13A     -0.518182    14A     -0.460545    15A     -0.442621
      16A     -0.401475    17A     -0.387647    18A     -0.372788
      19A     -0.353404    20A     -0.319732    21A     -0.281072
      22A     -0.215596    23A     -0.200030    24A     -0.194466

  @DF-RHF Final Energy:  -321.42212858079927

   => Energetics <=

    Nuclear Repulsion Energy =            238.4286197188800998
    One-Electron Energy =                -922.1159645655050099
    Two-Electron Energy =                 362.2652162658256429
    Total Energy =                       -321.4221285807992672
  Basis Set: (AUG-CC-PVTZ AUX)
    Blend: AUG-CC-PVTZ-RI
    Molecular point group: c1

    Geometry (in Angstrom), charge = -1, multiplicity = 1:

       Center              X                  Y                   Z               Mass
    ------------   -----------------  -----------------  -----------------  -----------------
         O           -1.354217115949    -1.198596430114     0.052166253533    15.994914619570
         O           -1.365197115949     1.057563569886    -0.215690746467    15.994914619570
         N            1.346025884051     1.282392569886     0.065715253533    14.003074004430
         C            0.700401884051    -0.002332430114     0.388298253533    12.000000000000
         C            1.489285884051    -1.146573430114    -0.229847746467    12.000000000000
         C           -0.805406115949    -0.056681430114     0.023846253533    12.000000000000
         H            0.740999884051    -0.112321430114     1.484528253533     1.007825032230
         H            2.536868884051    -1.114281430114     0.085013253533     1.007825032230
         H            1.052432884051    -2.103529430114     0.053421253533     1.007825032230
         H            1.458859884051    -1.074330430114    -1.323780746467     1.007825032230
         H            0.669120284051     1.902282769886     0.156475053533     1.007825032230
         H            1.516235884051     1.277183569886    -0.944051746467     1.007825032230

  Basis Set: AUG-CC-PVTZ
    Blend: AUG-CC-PVTZ
  Basis Set: (AUG-CC-PVTZ AUX)
    Blend: AUG-CC-PVTZ-JKFIT
	 Reference Energy          =    -321.4221285807992672 [Eh]
	 Singles Energy            =      -0.0000000000000000 [Eh]
	 Same-Spin Energy          =      -0.3248529989178486 [Eh]
	 Opposite-Spin Energy      =      -1.0048833417970597 [Eh]
	 Correlation Energy        =      -1.3297363407149083 [Eh]
	 Total Energy              =    -322.7518649215141977 [Eh]

	 ================> DF-SCS-MP2 Energies <==================
	-----------------------------------------------------------
	 SCS Same-Spin Scale       =       0.3333333333333333 [-]
	 SCS Opposite-Spin Scale   =       1.2000000000000000 [-]
	 SCS Same-Spin Energy      =      -0.1082843329726162 [Eh]
	 SCS Opposite-Spin Energy  =      -1.2058600101564716 [Eh]
	 SCS Correlation Energy    =      -1.3141443431290878 [Eh]
	 SCS Total Energy          =    -322.7362729239283681 [Eh]
	-----------------------------------------------------------

  Dipole Moment: [D]
     X:     4.5252      Y:    -0.1440      Z:    -0.2211     Total:     4.5328

*** Psi4 exiting successfully. Buy a developer a beer!
