                               Psi4 1.3.2 release

  ==> Input File <==

--------------------------------------------------------------------------
#psi4
#
memory 32 gb

molecule  {
-1 1
  O       -1.4366360    -1.1870470     0.0571230
  O       -1.3893244     1.0989024    -0.1991649
  N        1.2636070     1.2939420     0.0706720
  C        0.6148601     0.0899056     0.3850882
  C        1.4068670    -1.1350240    -0.2248910
  C       -0.8878250    -0.0451320     0.0288030
  H        0.6585810    -0.1007720     1.4894850
  H        2.4544500    -1.1027320     0.0899700
  H        0.9700140    -2.0919800     0.0583780
  H        1.3764410    -1.0627810    -1.3188240
  H        0.5133110     1.9810410     0.1712720
  H        1.4338170     1.2887330    -0.9390950
units angstrom
no_reorient  #important for SAPT in psi4, default
symmetry c1  #important for SAPT in psi4, default
}

set PROPERTIES_ORIGIN ["COM"]
properties('MP2/aug-cc-pvtz', properties = ['dipole'])
--------------------------------------------------------------------------

    Molecular point group: c1
  Charge       = -1
  Multiplicity = 1
  Basis Set: AUG-CC-PVTZ
    Blend: AUG-CC-PVTZ
  Basis Set: (AUG-CC-PVTZ AUX)
    Blend: AUG-CC-PVTZ-JKFIT

    Orbital Energies [Eh]
    ---------------------

    Doubly Occupied:

       1A    -20.303268     2A    -20.302517     3A    -15.385268
       4A    -11.142051     5A    -11.091000     6A    -11.069223
       7A     -1.171310     8A     -1.076396     9A     -1.038928
      10A     -0.827413    11A     -0.691063    12A     -0.541482
      13A     -0.506926    14A     -0.460340    15A     -0.445423
      16A     -0.402957    17A     -0.386448    18A     -0.369797
      19A     -0.349171    20A     -0.306355    21A     -0.279494
      22A     -0.218416    23A     -0.204001    24A     -0.190029

  @DF-RHF Final Energy:  -321.42054505008281

   => Energetics <=

    Nuclear Repulsion Energy =            238.6231660436305333
    One-Electron Energy =                -922.5688718496174943
    Two-Electron Energy =                 362.5251607559042100
    Total Energy =                       -321.4205450500828078
  Basis Set: (AUG-CC-PVTZ AUX)
    Blend: AUG-CC-PVTZ-RI
    Molecular point group: c1

    Geometry (in Angstrom), charge = -1, multiplicity = 1:

       Center              X                  Y                   Z               Mass
    ------------   -----------------  -----------------  -----------------  -----------------
         O           -1.363541639454    -1.215775886480     0.051064907235    15.994914619570
         O           -1.316230039454     1.070173513520    -0.205222992765    15.994914619570
         N            1.336701360546     1.265213113520     0.064613907235    14.003074004430
         C            0.687954460546     0.061176713520     0.379030107235    12.000000000000
         C            1.479961360546    -1.163752886480    -0.230949092765    12.000000000000
         C           -0.814730639454    -0.073860886480     0.022744907235    12.000000000000
         H            0.731675360546    -0.129500886480     1.483426907235     1.007825032230
         H            2.527544360546    -1.131460886480     0.083911907235     1.007825032230
         H            1.043108360546    -2.120708886480     0.052319907235     1.007825032230
         H            1.449535360546    -1.091509886480    -1.324882092765     1.007825032230
         H            0.586405360546     1.952312113520     0.165213907235     1.007825032230
         H            1.506911360546     1.260004113520    -0.945153092765     1.007825032230

  Basis Set: AUG-CC-PVTZ
    Blend: AUG-CC-PVTZ
  Basis Set: (AUG-CC-PVTZ AUX)
    Blend: AUG-CC-PVTZ-JKFIT
	 Reference Energy          =    -321.4205450500828078 [Eh]
	 Singles Energy            =      -0.0000000000000000 [Eh]
	 Same-Spin Energy          =      -0.3261656220348459 [Eh]
	 Opposite-Spin Energy      =      -1.0069353049845109 [Eh]
	 Correlation Energy        =      -1.3331009270193568 [Eh]
	 Total Energy              =    -322.7536459771021669 [Eh]

	 ================> DF-SCS-MP2 Energies <==================
	-----------------------------------------------------------
	 SCS Same-Spin Scale       =       0.3333333333333333 [-]
	 SCS Opposite-Spin Scale   =       1.2000000000000000 [-]
	 SCS Same-Spin Energy      =      -0.1087218740116153 [Eh]
	 SCS Opposite-Spin Energy  =      -1.2083223659814131 [Eh]
	 SCS Correlation Energy    =      -1.3170442399930284 [Eh]
	 SCS Total Energy          =    -322.7375892900758458 [Eh]
	-----------------------------------------------------------

  Dipole Moment: [D]
     X:     4.3138      Y:     0.0727      Z:    -0.2694     Total:     4.3228

*** Psi4 exiting successfully. Buy a developer a beer!
