                               Psi4 1.4a3.dev225

  ==> Input File <==

--------------------------------------------------------------------------
#psi4
#
memory 32 gb

molecule  {
-1 1
  O       -1.6933650     0.8030190    -0.4602720
  O       -1.1174780    -1.0749000     0.6904900
  N        1.4364130    -1.0622120    -0.3332000
  C        0.6126710     0.1580520    -0.4178300
  C        1.1905680     1.2200680     0.5150430
  C       -0.8699744    -0.0530602    -0.0567826
  H        0.6528320     0.5329630    -1.4473970
  H        2.2305690     1.4435080     0.2589170
  H        0.6009540     2.1390560     0.4596660
  H        1.1629700     0.8554330     1.5482090
  H        1.1631630    -1.6605680    -1.1160450
  H        1.0447980    -1.5551690     0.4751990
units angstrom
no_reorient  #important for SAPT in psi4, default
symmetry c1  #important for SAPT in psi4, default
}

set PROPERTIES_ORIGIN ["COM"]
properties('MP2/aug-cc-pvtz', properties = ['dipole'])
--------------------------------------------------------------------------

    Molecular point group: c1
  Charge       = -1
  Multiplicity = 1
  Basis Set: AUG-CC-PVTZ
    Blend: AUG-CC-PVTZ
  Basis Set: (AUG-CC-PVTZ AUX)
    Blend: AUG-CC-PVTZ-JKFIT

    Orbital Energies [Eh]
    ---------------------

    Doubly Occupied:

       1A    -20.302594     2A    -20.298167     3A    -15.387645
       4A    -11.140676     5A    -11.093155     6A    -11.071032
       7A     -1.168943     8A     -1.066887     9A     -1.020671
      10A     -0.844557    11A     -0.690654    12A     -0.543913
      13A     -0.505444    14A     -0.460564    15A     -0.424946
      16A     -0.407523    17A     -0.393900    18A     -0.366337
      19A     -0.345998    20A     -0.316571    21A     -0.282705
      22A     -0.213757    23A     -0.199889    24A     -0.194607

  @DF-RHF Final Energy:  -321.42770086334826

   => Energetics <=

    Nuclear Repulsion Energy =            238.1386243308505470
    One-Electron Energy =                -921.6503847155751146
    Two-Electron Energy =                 362.0840595213762754
    Total Energy =                       -321.4277008633482637
  Basis Set: (AUG-CC-PVTZ AUX)
    Blend: AUG-CC-PVTZ-RI
    Molecular point group: c1

    Geometry (in Angstrom), charge = -1, multiplicity = 1:

       Center              X                  Y                   Z               Mass
    ------------   -----------------  -----------------  -----------------  -----------------
         O           -1.616844061389     0.820661820710    -0.456655500877    15.994914619570
         O           -1.040957061389    -1.057257179290     0.694106499123    15.994914619570
         N            1.512933938611    -1.044569179290    -0.329583500877    14.003074004430
         C            0.689191938611     0.175694820710    -0.414213500877    12.000000000000
         C            1.267088938611     1.237710820710     0.518659499123    12.000000000000
         C           -0.793453461389    -0.035417379290    -0.053166100877    12.000000000000
         H            0.729352938611     0.550605820710    -1.443780500877     1.007825032230
         H            2.307089938611     1.461150820710     0.262533499123     1.007825032230
         H            0.677474938611     2.156698820710     0.463282499123     1.007825032230
         H            1.239490938611     0.873075820710     1.551825499123     1.007825032230
         H            1.239683938611    -1.642925179290    -1.112428500877     1.007825032230
         H            1.121318938611    -1.537526179290     0.478815499123     1.007825032230

  Basis Set: AUG-CC-PVTZ
    Blend: AUG-CC-PVTZ
  Basis Set: (AUG-CC-PVTZ AUX)
    Blend: AUG-CC-PVTZ-JKFIT
	 Reference Energy          =    -321.4277008633482637 [Eh]
	 Singles Energy            =      -0.0000000000000000 [Eh]
	 Same-Spin Energy          =      -0.3257325646984385 [Eh]
	 Opposite-Spin Energy      =      -1.0071246381529726 [Eh]
	 Correlation Energy        =      -1.3328572028514110 [Eh]
	 Total Energy              =    -322.7605580661996783 [Eh]

	 ================> DF-SCS-MP2 Energies <==================
	-----------------------------------------------------------
	 SCS Same-Spin Scale       =       0.3333333333333333 [-]
	 SCS Opposite-Spin Scale   =       1.2000000000000000 [-]
	 SCS Same-Spin Energy      =      -0.1085775215661462 [Eh]
	 SCS Opposite-Spin Energy  =      -1.2085495657835670 [Eh]
	 SCS Correlation Energy    =      -1.3171270873497132 [Eh]
	 SCS Total Energy          =    -322.7448279506979816 [Eh]
	-----------------------------------------------------------

  Dipole Moment: [D]
     X:     4.1173      Y:     0.4681      Z:    -0.8577     Total:     4.2317

*** Psi4 exiting successfully. Buy a developer a beer!
