                               Psi4 1.4a3.dev225

  ==> Input File <==

--------------------------------------------------------------------------
#psi4
#
memory 32 gb

molecule  {
-1 1
  O       -1.6933650     0.8030190    -0.4602720
  O       -1.1174780    -1.0749000     0.6904900
  N        1.4364130    -1.0622120    -0.3332000
  C        0.6406000     0.1166789    -0.4149606
  C        1.1905680     1.2200680     0.5150430
  C       -0.8738120    -0.0689040    -0.0451960
  H        0.6528320     0.5329630    -1.4473970
  H        2.2305690     1.4435080     0.2589170
  H        0.6009540     2.1390560     0.4596660
  H        1.1629700     0.8554330     1.5482090
  H        1.1631630    -1.6605680    -1.1160450
  H        1.0447980    -1.5551690     0.4751990
units angstrom
no_reorient  #important for SAPT in psi4, default
symmetry c1  #important for SAPT in psi4, default
}

set PROPERTIES_ORIGIN ["COM"]
properties('MP2/aug-cc-pvtz', properties = ['dipole'])
--------------------------------------------------------------------------

    Molecular point group: c1
  Charge       = -1
  Multiplicity = 1
  Basis Set: AUG-CC-PVTZ
    Blend: AUG-CC-PVTZ
  Basis Set: (AUG-CC-PVTZ AUX)
    Blend: AUG-CC-PVTZ-JKFIT

    Orbital Energies [Eh]
    ---------------------

    Doubly Occupied:

       1A    -20.301860     2A    -20.299027     3A    -15.389229
       4A    -11.140160     5A    -11.092546     6A    -11.069546
       7A     -1.169059     8A     -1.069692     9A     -1.036033
      10A     -0.838356    11A     -0.683071    12A     -0.543428
      13A     -0.512638    14A     -0.462911    15A     -0.424291
      16A     -0.405051    17A     -0.392436    18A     -0.372029
      19A     -0.347836    20A     -0.311551    21A     -0.285304
      22A     -0.215651    23A     -0.200226    24A     -0.188297

  @DF-RHF Final Energy:  -321.42658431745537

   => Energetics <=

    Nuclear Repulsion Energy =            238.2170093267028221
    One-Electron Energy =                -921.7867316875566530
    Two-Electron Energy =                 362.1431380433984373
    Total Energy =                       -321.4265843174553652
  Basis Set: (AUG-CC-PVTZ AUX)
    Blend: AUG-CC-PVTZ-RI
    Molecular point group: c1

    Geometry (in Angstrom), charge = -1, multiplicity = 1:

       Center              X                  Y                   Z               Mass
    ------------   -----------------  -----------------  -----------------  -----------------
         O           -1.620127765174     0.828460593348    -0.458625881259    15.994914619570
         O           -1.044240765174    -1.049458406652     0.692136118741    15.994914619570
         N            1.509650234826    -1.036770406652    -0.331553881259    14.003074004430
         C            0.713837234826     0.142120493348    -0.413314481259    12.000000000000
         C            1.263805234826     1.245509593348     0.516689118741    12.000000000000
         C           -0.800574765174    -0.043462406652    -0.043549881259    12.000000000000
         H            0.726069234826     0.558404593348    -1.445750881259     1.007825032230
         H            2.303806234826     1.468949593348     0.260563118741     1.007825032230
         H            0.674191234826     2.164497593348     0.461312118741     1.007825032230
         H            1.236207234826     0.880874593348     1.549855118741     1.007825032230
         H            1.236400234826    -1.635126406652    -1.114398881259     1.007825032230
         H            1.118035234826    -1.529727406652     0.476845118741     1.007825032230

  Basis Set: AUG-CC-PVTZ
    Blend: AUG-CC-PVTZ
  Basis Set: (AUG-CC-PVTZ AUX)
    Blend: AUG-CC-PVTZ-JKFIT
	 Reference Energy          =    -321.4265843174553652 [Eh]
	 Singles Energy            =      -0.0000000000000000 [Eh]
	 Same-Spin Energy          =      -0.3257854278210360 [Eh]
	 Opposite-Spin Energy      =      -1.0066556803102464 [Eh]
	 Correlation Energy        =      -1.3324411081312824 [Eh]
	 Total Energy              =    -322.7590254255866284 [Eh]

	 ================> DF-SCS-MP2 Energies <==================
	-----------------------------------------------------------
	 SCS Same-Spin Scale       =       0.3333333333333333 [-]
	 SCS Opposite-Spin Scale   =       1.2000000000000000 [-]
	 SCS Same-Spin Energy      =      -0.1085951426070120 [Eh]
	 SCS Opposite-Spin Energy  =      -1.2079868163722958 [Eh]
	 SCS Correlation Energy    =      -1.3165819589793077 [Eh]
	 SCS Total Energy          =    -322.7431662764346925 [Eh]
	-----------------------------------------------------------

  Dipole Moment: [D]
     X:     4.1740      Y:     0.1602      Z:    -0.7738     Total:     4.2481

*** Psi4 exiting successfully. Buy a developer a beer!
