                               Psi4 1.3.2 release

  ==> Input File <==

--------------------------------------------------------------------------
#psi4
#
memory 32 gb

molecule  {
-1 1
  O       -1.4366360    -1.1870470     0.0571230
  O       -1.4476160     1.0691130    -0.2107340
  N        1.2636070     1.2939420     0.0706720
  C        0.6070421     0.0049336     0.3870785
  C        1.4068670    -1.1350240    -0.2248910
  C       -0.8878250    -0.0451320     0.0288030
  H        0.6585810    -0.1007720     1.4894850
  H        2.4562154    -1.1105328     0.0847515
  H        0.9700140    -2.0919800     0.0583780
  H        1.3764410    -1.0627810    -1.3188240
  H        0.5133110     1.9810410     0.1712720
  H        1.4338170     1.2887330    -0.9390950
units angstrom
no_reorient  #important for SAPT in psi4, default
symmetry c1  #important for SAPT in psi4, default
}

set PROPERTIES_ORIGIN ["COM"]
properties('MP2/aug-cc-pvtz', properties = ['dipole'])
--------------------------------------------------------------------------

    Molecular point group: c1
  Charge       = -1
  Multiplicity = 1
  Basis Set: AUG-CC-PVTZ
    Blend: AUG-CC-PVTZ
  Basis Set: (AUG-CC-PVTZ AUX)
    Blend: AUG-CC-PVTZ-JKFIT

    Orbital Energies [Eh]
    ---------------------

    Doubly Occupied:

       1A    -20.302348     2A    -20.298327     3A    -15.385807
       4A    -11.141257     5A    -11.094134     6A    -11.071654
       7A     -1.170686     8A     -1.069496     9A     -1.020091
      10A     -0.842395    11A     -0.696265    12A     -0.539345
      13A     -0.500588    14A     -0.461239    15A     -0.440857
      16A     -0.400514    17A     -0.388569    18A     -0.371384
      19A     -0.346608    20A     -0.317741    21A     -0.278773
      22A     -0.216111    23A     -0.200702    24A     -0.195770

  @DF-RHF Final Energy:  -321.42811516550046

   => Energetics <=

    Nuclear Repulsion Energy =            238.0299114080209222
    One-Electron Energy =                -921.4147328648679149
    Two-Electron Energy =                 361.9567062913465634
    Total Energy =                       -321.4281151655004578
  Basis Set: (AUG-CC-PVTZ AUX)
    Blend: AUG-CC-PVTZ-RI
    Molecular point group: c1

    Geometry (in Angstrom), charge = -1, multiplicity = 1:

       Center              X                  Y                   Z               Mass
    ------------   -----------------  -----------------  -----------------  -----------------
         O           -1.351905932320    -1.198692660051     0.052955215944    15.994914619570
         O           -1.362885932320     1.057467339949    -0.214901784056    15.994914619570
         N            1.348337067680     1.282296339949     0.066504215944    14.003074004430
         C            0.691772167680    -0.006712060051     0.382910715944    12.000000000000
         C            1.491597067680    -1.146669660051    -0.229058784056    12.000000000000
         C           -0.803094932320    -0.056777660051     0.024635215944    12.000000000000
         H            0.743311067680    -0.112417660051     1.485317215944     1.007825032230
         H            2.540945467680    -1.122178460051     0.080583715944     1.007825032230
         H            1.054744067680    -2.103625660051     0.054210215944     1.007825032230
         H            1.461171067680    -1.074426660051    -1.322991784056     1.007825032230
         H            0.598041067680     1.969395339949     0.167104215944     1.007825032230
         H            1.518547067680     1.277087339949    -0.943262784056     1.007825032230

  Basis Set: AUG-CC-PVTZ
    Blend: AUG-CC-PVTZ
  Basis Set: (AUG-CC-PVTZ AUX)
    Blend: AUG-CC-PVTZ-JKFIT
	 Reference Energy          =    -321.4281151655004578 [Eh]
	 Singles Energy            =      -0.0000000000000000 [Eh]
	 Same-Spin Energy          =      -0.3255972487310235 [Eh]
	 Opposite-Spin Energy      =      -1.0067027879360222 [Eh]
	 Correlation Energy        =      -1.3323000366670457 [Eh]
	 Total Energy              =    -322.7604152021675077 [Eh]

	 ================> DF-SCS-MP2 Energies <==================
	-----------------------------------------------------------
	 SCS Same-Spin Scale       =       0.3333333333333333 [-]
	 SCS Opposite-Spin Scale   =       1.2000000000000000 [-]
	 SCS Same-Spin Energy      =      -0.1085324162436745 [Eh]
	 SCS Opposite-Spin Energy  =      -1.2080433455232267 [Eh]
	 SCS Correlation Energy    =      -1.3165757617669012 [Eh]
	 SCS Total Energy          =    -322.7446909272673565 [Eh]
	-----------------------------------------------------------

  Dipole Moment: [D]
     X:     4.4490      Y:    -0.1469      Z:    -0.2179     Total:     4.4568

*** Psi4 exiting successfully. Buy a developer a beer!
