                               Psi4 1.3.2 release

  ==> Input File <==

--------------------------------------------------------------------------
#psi4
#
memory 32 gb

molecule  {
-1 1
  O       -1.3978482    -1.2045318     0.0692229
  O       -1.4476160     1.0691130    -0.2107340
  N        1.2636070     1.2939420     0.0706720
  C        0.6171331    -0.0443668     0.4007402
  C        1.4068670    -1.1350240    -0.2248910
  C       -0.8878250    -0.0451320     0.0288030
  H        0.6585810    -0.1007720     1.4894850
  H        2.4544500    -1.1027320     0.0899700
  H        0.9700140    -2.0919800     0.0583780
  H        1.3764410    -1.0627810    -1.3188240
  H        0.5133110     1.9810410     0.1712720
  H        1.4338170     1.2887330    -0.9390950
units angstrom
no_reorient  #important for SAPT in psi4, default
symmetry c1  #important for SAPT in psi4, default
}

set PROPERTIES_ORIGIN ["COM"]
properties('MP2/aug-cc-pvtz', properties = ['dipole'])
--------------------------------------------------------------------------

    Molecular point group: c1
  Charge       = -1
  Multiplicity = 1
  Basis Set: AUG-CC-PVTZ
    Blend: AUG-CC-PVTZ
  Basis Set: (AUG-CC-PVTZ AUX)
    Blend: AUG-CC-PVTZ-JKFIT

    Orbital Energies [Eh]
    ---------------------

    Doubly Occupied:

       1A    -20.306220     2A    -20.299400     3A    -15.381872
       4A    -11.143497     5A    -11.091422     6A    -11.069824
       7A     -1.171002     8A     -1.073229     9A     -1.007819
      10A     -0.848328    11A     -0.693633    12A     -0.537656
      13A     -0.495706    14A     -0.463361    15A     -0.437905
      16A     -0.400697    17A     -0.390050    18A     -0.374755
      19A     -0.343428    20A     -0.322288    21A     -0.274865
      22A     -0.219392    23A     -0.202922    24A     -0.192517

  @DF-RHF Final Energy:  -321.42506082707450

   => Energetics <=

    Nuclear Repulsion Energy =            238.0144681664019117
    One-Electron Energy =                -921.3954812077035967
    Two-Electron Energy =                 361.9559522142271817
    Total Energy =                       -321.4250608270745033
  Basis Set: (AUG-CC-PVTZ AUX)
    Blend: AUG-CC-PVTZ-RI
    Molecular point group: c1

    Geometry (in Angstrom), charge = -1, multiplicity = 1:

       Center              X                  Y                   Z               Mass
    ------------   -----------------  -----------------  -----------------  -----------------
         O           -1.321520240071    -1.206370414628     0.060934975028    15.994914619570
         O           -1.371288040071     1.067274385372    -0.219021924972    15.994914619570
         N            1.339934959929     1.292103385372     0.062384075028    14.003074004430
         C            0.693461059929    -0.046205414628     0.392452275028    12.000000000000
         C            1.483194959929    -1.136862614628    -0.233178924972    12.000000000000
         C           -0.811497040071    -0.046970614628     0.020515075028    12.000000000000
         H            0.734908959929    -0.102610614628     1.481197075028     1.007825032230
         H            2.530777959929    -1.104570614628     0.081682075028     1.007825032230
         H            1.046341959929    -2.093818614628     0.050090075028     1.007825032230
         H            1.452768959929    -1.064619614628    -1.327111924972     1.007825032230
         H            0.589638959929     1.979202385372     0.162984075028     1.007825032230
         H            1.510144959929     1.286894385372    -0.947382924972     1.007825032230

  Basis Set: AUG-CC-PVTZ
    Blend: AUG-CC-PVTZ
  Basis Set: (AUG-CC-PVTZ AUX)
    Blend: AUG-CC-PVTZ-JKFIT
	 Reference Energy          =    -321.4250608270745033 [Eh]
	 Singles Energy            =      -0.0000000000000000 [Eh]
	 Same-Spin Energy          =      -0.3258095683320412 [Eh]
	 Opposite-Spin Energy      =      -1.0072788453022081 [Eh]
	 Correlation Energy        =      -1.3330884136342493 [Eh]
	 Total Energy              =    -322.7581492407087467 [Eh]

	 ================> DF-SCS-MP2 Energies <==================
	-----------------------------------------------------------
	 SCS Same-Spin Scale       =       0.3333333333333333 [-]
	 SCS Opposite-Spin Scale   =       1.2000000000000000 [-]
	 SCS Same-Spin Energy      =      -0.1086031894440137 [Eh]
	 SCS Opposite-Spin Energy  =      -1.2087346143626496 [Eh]
	 SCS Correlation Energy    =      -1.3173378038066634 [Eh]
	 SCS Total Energy          =    -322.7423986308811550 [Eh]
	-----------------------------------------------------------

  Dipole Moment: [D]
     X:     4.2775      Y:    -0.2799      Z:    -0.2118     Total:     4.2919

*** Psi4 exiting successfully. Buy a developer a beer!
