                               Psi4 1.3.2 release

  ==> Input File <==

--------------------------------------------------------------------------
#psi4
#
memory 32 gb

molecule  {
-1 1
  O       -1.4752830    -1.1678578     0.0473860
  O       -1.4861612     1.0478031    -0.2156813
  N        1.2636070     1.2939420     0.0706720
  C        0.6179830     0.0092170     0.3932550
  C        1.4068670    -1.1350240    -0.2248910
  C       -0.8878250    -0.0451320     0.0288030
  H        0.6585810    -0.1007720     1.4894850
  H        2.4544500    -1.1027320     0.0899700
  H        0.9700140    -2.0919800     0.0583780
  H        1.3764410    -1.0627810    -1.3188240
  H        0.5133110     1.9810410     0.1712720
  H        1.4338170     1.2887330    -0.9390950
units angstrom
no_reorient  #important for SAPT in psi4, default
symmetry c1  #important for SAPT in psi4, default
}

set PROPERTIES_ORIGIN ["COM"]
properties('MP2/aug-cc-pvtz', properties = ['dipole'])
--------------------------------------------------------------------------

    Molecular point group: c1
  Charge       = -1
  Multiplicity = 1
  Basis Set: AUG-CC-PVTZ
    Blend: AUG-CC-PVTZ
  Basis Set: (AUG-CC-PVTZ AUX)
    Blend: AUG-CC-PVTZ-JKFIT

    Orbital Energies [Eh]
    ---------------------

    Doubly Occupied:

       1A    -20.298152     2A    -20.294215     3A    -15.389274
       4A    -11.139247     5A    -11.098276     6A    -11.074186
       7A     -1.169353     8A     -1.061382     9A     -1.025207
      10A     -0.845205    11A     -0.697478    12A     -0.540612
      13A     -0.503730    14A     -0.459627    15A     -0.443800
      16A     -0.398115    17A     -0.387858    18A     -0.372311
      19A     -0.350416    20A     -0.319625    21A     -0.280780
      22A     -0.210695    23A     -0.197288    24A     -0.193544

  @DF-RHF Final Energy:  -321.42678411732737

   => Energetics <=

    Nuclear Repulsion Energy =            237.5047683725122170
    One-Electron Energy =                -920.3623536040169029
    Two-Electron Energy =                 361.4308011141773136
    Total Energy =                       -321.4267841173273723
  Basis Set: (AUG-CC-PVTZ AUX)
    Blend: AUG-CC-PVTZ-RI
    Molecular point group: c1

    Geometry (in Angstrom), charge = -1, multiplicity = 1:

       Center              X                  Y                   Z               Mass
    ------------   -----------------  -----------------  -----------------  -----------------
         O           -1.377999855282    -1.179791309531     0.044984425038    15.994914619570
         O           -1.388878055282     1.035869590469    -0.218082874962    15.994914619570
         N            1.360890144718     1.282008490469     0.068270425038    14.003074004430
         C            0.715266144718    -0.002716509531     0.390853425038    12.000000000000
         C            1.504150144718    -1.146957509531    -0.227292574962    12.000000000000
         C           -0.790541855282    -0.057065509531     0.026401425038    12.000000000000
         H            0.755864144718    -0.112705509531     1.487083425038     1.007825032230
         H            2.551733144718    -1.114665509531     0.087568425038     1.007825032230
         H            1.067297144718    -2.103913509531     0.055976425038     1.007825032230
         H            1.473724144718    -1.074714509531    -1.321225574962     1.007825032230
         H            0.610594144718     1.969107490469     0.168870425038     1.007825032230
         H            1.531100144718     1.276799490469    -0.941496574962     1.007825032230

  Basis Set: AUG-CC-PVTZ
    Blend: AUG-CC-PVTZ
  Basis Set: (AUG-CC-PVTZ AUX)
    Blend: AUG-CC-PVTZ-JKFIT
	 Reference Energy          =    -321.4267841173273723 [Eh]
	 Singles Energy            =      -0.0000000000000000 [Eh]
	 Same-Spin Energy          =      -0.3254282804666091 [Eh]
	 Opposite-Spin Energy      =      -1.0064399599069211 [Eh]
	 Correlation Energy        =      -1.3318682403735302 [Eh]
	 Total Energy              =    -322.7586523577008961 [Eh]

	 ================> DF-SCS-MP2 Energies <==================
	-----------------------------------------------------------
	 SCS Same-Spin Scale       =       0.3333333333333333 [-]
	 SCS Opposite-Spin Scale   =       1.2000000000000000 [-]
	 SCS Same-Spin Energy      =      -0.1084760934888697 [Eh]
	 SCS Opposite-Spin Energy  =      -1.2077279518883053 [Eh]
	 SCS Correlation Energy    =      -1.3162040453771751 [Eh]
	 SCS Total Energy          =    -322.7429881627045347 [Eh]
	-----------------------------------------------------------

  Dipole Moment: [D]
     X:     4.6908      Y:    -0.1255      Z:    -0.1808     Total:     4.6960

*** Psi4 exiting successfully. Buy a developer a beer!
