                               Psi4 1.3.2 release

  ==> Input File <==

--------------------------------------------------------------------------
#psi4
#
memory 32 gb

molecule  {
-1 1
  O       -1.4366360    -1.1870470     0.0571230
  O       -1.4476160     1.0691130    -0.2107340
  N        1.2636070     1.2939420     0.0706720
  C        0.6179830     0.0092170     0.3932550
  C        1.4068670    -1.1350240    -0.2248910
  C       -0.6935570    -0.0381203     0.0758219
  H        0.6585810    -0.1007720     1.4894850
  H        2.4544500    -1.1027320     0.0899700
  H        0.9700140    -2.0919800     0.0583780
  H        1.3764410    -1.0627810    -1.3188240
  H        0.5133110     1.9810410     0.1712720
  H        1.4338170     1.2887330    -0.9390950
units angstrom
no_reorient  #important for SAPT in psi4, default
symmetry c1  #important for SAPT in psi4, default
}

set PROPERTIES_ORIGIN ["COM"]
properties('MP2/aug-cc-pvtz', properties = ['dipole'])
--------------------------------------------------------------------------

    Molecular point group: c1
  Charge       = -1
  Multiplicity = 1
  Basis Set: AUG-CC-PVTZ
    Blend: AUG-CC-PVTZ
  Basis Set: (AUG-CC-PVTZ AUX)
    Blend: AUG-CC-PVTZ-JKFIT

    Orbital Energies [Eh]
    ---------------------

    Doubly Occupied:

       1A    -20.299639     2A    -20.294288     3A    -15.396484
       4A    -11.151902     5A    -11.103613     6A    -11.084710
       7A     -1.127303     8A     -1.038684     9A     -1.006217
      10A     -0.869180    11A     -0.753252    12A     -0.567442
      13A     -0.515596    14A     -0.460906    15A     -0.446632
      16A     -0.398898    17A     -0.384257    18A     -0.380230
      19A     -0.330684    20A     -0.284904    21A     -0.273259
      22A     -0.229607    23A     -0.184454    24A     -0.176240

  @DF-RHF Final Energy:  -321.35767670942681

   => Energetics <=

    Nuclear Repulsion Energy =            238.3568481384841675
    One-Electron Energy =                -921.9122832902348819
    Two-Electron Energy =                 362.1977584423239591
    Total Energy =                       -321.3576767094268121
  Basis Set: (AUG-CC-PVTZ AUX)
    Blend: AUG-CC-PVTZ-RI
    Molecular point group: c1

    Geometry (in Angstrom), charge = -1, multiplicity = 1:

       Center              X                  Y                   Z               Mass
    ------------   -----------------  -----------------  -----------------  -----------------
         O           -1.379856087729    -1.200321502398     0.045644843314    15.994914619570
         O           -1.390836087729     1.055838497602    -0.222212156686    15.994914619570
         N            1.320386912271     1.280667497602     0.059193843314    14.003074004430
         C            0.674762912271    -0.004057502398     0.381776843314    12.000000000000
         C            1.463646912271    -1.148298502398    -0.236369156686    12.000000000000
         C           -0.636777087729    -0.051394802398     0.064343743314    12.000000000000
         H            0.715360912271    -0.114046502398     1.478006843314     1.007825032230
         H            2.511229912271    -1.116006502398     0.078491843314     1.007825032230
         H            1.026793912271    -2.105254502398     0.046899843314     1.007825032230
         H            1.433220912271    -1.076055502398    -1.330302156686     1.007825032230
         H            0.570090912271     1.967766497602     0.159793843314     1.007825032230
         H            1.490596912271     1.275458497602    -0.950573156686     1.007825032230

  Basis Set: AUG-CC-PVTZ
    Blend: AUG-CC-PVTZ
  Basis Set: (AUG-CC-PVTZ AUX)
    Blend: AUG-CC-PVTZ-JKFIT
	 Reference Energy          =    -321.3576767094268121 [Eh]
	 Singles Energy            =      -0.0000000000000000 [Eh]
	 Same-Spin Energy          =      -0.3314534864146372 [Eh]
	 Opposite-Spin Energy      =      -1.0188188113107817 [Eh]
	 Correlation Energy        =      -1.3502722977254189 [Eh]
	 Total Energy              =    -322.7079490071522514 [Eh]

	 ================> DF-SCS-MP2 Energies <==================
	-----------------------------------------------------------
	 SCS Same-Spin Scale       =       0.3333333333333333 [-]
	 SCS Opposite-Spin Scale   =       1.2000000000000000 [-]
	 SCS Same-Spin Energy      =      -0.1104844954715457 [Eh]
	 SCS Opposite-Spin Energy  =      -1.2225825735729379 [Eh]
	 SCS Correlation Energy    =      -1.3330670690444837 [Eh]
	 SCS Total Energy          =    -322.6907437784713011 [Eh]
	-----------------------------------------------------------

  Dipole Moment: [D]
     X:     5.4572      Y:    -0.1295      Z:    -0.0294     Total:     5.4588

*** Psi4 exiting successfully. Buy a developer a beer!
