                               Psi4 1.3.2 release

  ==> Input File <==

--------------------------------------------------------------------------
#psi4
#
memory 32 gb

molecule  {
-1 1
  O       -1.4366360    -1.1870470     0.0571230
  O       -1.4476160     1.0691130    -0.2107340
  N        1.2411780     1.3026827     0.0616182
  C        0.6179830     0.0092170     0.3932550
  C        1.4068670    -1.1350240    -0.2248910
  C       -0.8862627    -0.0197489     0.0195669
  H        0.6585810    -0.1007720     1.4894850
  H        2.4544500    -1.1027320     0.0899700
  H        0.9700140    -2.0919800     0.0583780
  H        1.3764410    -1.0627810    -1.3188240
  H        0.5133110     1.9810410     0.1712720
  H        1.4338170     1.2887330    -0.9390950
units angstrom
no_reorient  #important for SAPT in psi4, default
symmetry c1  #important for SAPT in psi4, default
}

set PROPERTIES_ORIGIN ["COM"]
properties('MP2/aug-cc-pvtz', properties = ['dipole'])
--------------------------------------------------------------------------

    Molecular point group: c1
  Charge       = -1
  Multiplicity = 1
  Basis Set: AUG-CC-PVTZ
    Blend: AUG-CC-PVTZ
  Basis Set: (AUG-CC-PVTZ AUX)
    Blend: AUG-CC-PVTZ-JKFIT

    Orbital Energies [Eh]
    ---------------------

    Doubly Occupied:

       1A    -20.307463     2A    -20.291546     3A    -15.382383
       4A    -11.140201     5A    -11.093512     6A    -11.071590
       7A     -1.173371     8A     -1.064296     9A     -1.024538
      10A     -0.842653    11A     -0.694658    12A     -0.538556
      13A     -0.508002    14A     -0.461545    15A     -0.442616
      16A     -0.398850    17A     -0.388785    18A     -0.372419
      19A     -0.351214    20A     -0.319684    21A     -0.275348
      22A     -0.216645    23A     -0.198442    24A     -0.190870

  @DF-RHF Final Energy:  -321.42788378330869

   => Energetics <=

    Nuclear Repulsion Energy =            238.1815779408443632
    One-Electron Energy =                -921.7205488186436924
    Two-Electron Energy =                 362.1110870944906424
    Total Energy =                       -321.4278837833086868
  Basis Set: (AUG-CC-PVTZ AUX)
    Blend: AUG-CC-PVTZ-RI
    Molecular point group: c1

    Geometry (in Angstrom), charge = -1, multiplicity = 1:

       Center              X                  Y                   Z               Mass
    ------------   -----------------  -----------------  -----------------  -----------------
         O           -1.350022515269    -1.204215800895     0.054752548519    15.994914619570
         O           -1.361002515269     1.051944199105    -0.213104451481    15.994914619570
         N            1.327791484731     1.285513899105     0.059247748519    14.003074004430
         C            0.704596484731    -0.007951800895     0.390884548519    12.000000000000
         C            1.493480484731    -1.152192800895    -0.227261451481    12.000000000000
         C           -0.799649215269    -0.036917700895     0.017196448519    12.000000000000
         H            0.745194484731    -0.117940800895     1.487114548519     1.007825032230
         H            2.541063484731    -1.119900800895     0.087599548519     1.007825032230
         H            1.056627484731    -2.109148800895     0.056007548519     1.007825032230
         H            1.463054484731    -1.079949800895    -1.321194451481     1.007825032230
         H            0.599924484731     1.963872199105     0.168901548519     1.007825032230
         H            1.520430484731     1.271564199105    -0.941465451481     1.007825032230

  Basis Set: AUG-CC-PVTZ
    Blend: AUG-CC-PVTZ
  Basis Set: (AUG-CC-PVTZ AUX)
    Blend: AUG-CC-PVTZ-JKFIT
	 Reference Energy          =    -321.4278837833086868 [Eh]
	 Singles Energy            =      -0.0000000000000000 [Eh]
	 Same-Spin Energy          =      -0.3253214369869619 [Eh]
	 Opposite-Spin Energy      =      -1.0059471316420132 [Eh]
	 Correlation Energy        =      -1.3312685686289751 [Eh]
	 Total Energy              =    -322.7591523519376437 [Eh]

	 ================> DF-SCS-MP2 Energies <==================
	-----------------------------------------------------------
	 SCS Same-Spin Scale       =       0.3333333333333333 [-]
	 SCS Opposite-Spin Scale   =       1.2000000000000000 [-]
	 SCS Same-Spin Energy      =      -0.1084404789956540 [Eh]
	 SCS Opposite-Spin Energy  =      -1.2071365579704159 [Eh]
	 SCS Correlation Energy    =      -1.3155770369660698 [Eh]
	 SCS Total Energy          =    -322.7434608202747768 [Eh]
	-----------------------------------------------------------

  Dipole Moment: [D]
     X:     4.5007      Y:     0.1379      Z:    -0.2434     Total:     4.5094

*** Psi4 exiting successfully. Buy a developer a beer!
