                               Psi4 1.4a3.dev225

  ==> Input File <==

--------------------------------------------------------------------------
#psi4
#
memory 32 gb

molecule  {
-1 1
  O       -1.6933650     0.8030190    -0.4602720
  O       -1.1174780    -1.0749000     0.6904900
  N        1.4364130    -1.0622120    -0.3332000
  C        0.6126710     0.1580520    -0.4178300
  C        1.1905680     1.2200680     0.5150430
  C       -0.8642181    -0.0292946    -0.0741624
  H        0.6528320     0.5329630    -1.4473970
  H        2.2305690     1.4435080     0.2589170
  H        0.6009540     2.1390560     0.4596660
  H        1.1629700     0.8554330     1.5482090
  H        1.1631630    -1.6605680    -1.1160450
  H        1.0447980    -1.5551690     0.4751990
units angstrom
no_reorient  #important for SAPT in psi4, default
symmetry c1  #important for SAPT in psi4, default
}

set PROPERTIES_ORIGIN ["COM"]
properties('MP2/aug-cc-pvtz', properties = ['dipole'])
--------------------------------------------------------------------------

    Molecular point group: c1
  Charge       = -1
  Multiplicity = 1
  Basis Set: AUG-CC-PVTZ
    Blend: AUG-CC-PVTZ
  Basis Set: (AUG-CC-PVTZ AUX)
    Blend: AUG-CC-PVTZ-JKFIT

    Orbital Energies [Eh]
    ---------------------

    Doubly Occupied:

       1A    -20.308348     2A    -20.291549     3A    -15.387939
       4A    -11.140892     5A    -11.094309     6A    -11.072046
       7A     -1.172554     8A     -1.059663     9A     -1.018490
      10A     -0.846537    11A     -0.694607    12A     -0.544621
      13A     -0.506501    14A     -0.460559    15A     -0.426796
      16A     -0.408061    17A     -0.392104    18A     -0.367274
      19A     -0.345719    20A     -0.315901    21A     -0.283436
      22A     -0.208773    23A     -0.199553    24A     -0.194800

  @DF-RHF Final Energy:  -321.42385179703859

   => Energetics <=

    Nuclear Repulsion Energy =            238.1353345762550759
    One-Electron Energy =                -921.6363150310271521
    Two-Electron Energy =                 362.0771286577334536
    Total Energy =                       -321.4238517970385942
  Basis Set: (AUG-CC-PVTZ AUX)
    Blend: AUG-CC-PVTZ-RI
    Molecular point group: c1

    Geometry (in Angstrom), charge = -1, multiplicity = 1:

       Center              X                  Y                   Z               Mass
    ------------   -----------------  -----------------  -----------------  -----------------
         O           -1.617628656062     0.817422524086    -0.454286600977    15.994914619570
         O           -1.041741656062    -1.060496475914     0.696475399023    15.994914619570
         N            1.512149343938    -1.047808475914    -0.327214600977    14.003074004430
         C            0.688407343938     0.172455524086    -0.411844600977    12.000000000000
         C            1.266304343938     1.234471524086     0.521028399023    12.000000000000
         C           -0.788481756062    -0.014891075914    -0.068177000977    12.000000000000
         H            0.728568343938     0.547366524086    -1.441411600977     1.007825032230
         H            2.306305343938     1.457911524086     0.264902399023     1.007825032230
         H            0.676690343938     2.153459524086     0.465651399023     1.007825032230
         H            1.238706343938     0.869836524086     1.554194399023     1.007825032230
         H            1.238899343938    -1.646164475914    -1.110059600977     1.007825032230
         H            1.120534343938    -1.540765475914     0.481184399023     1.007825032230

  Basis Set: AUG-CC-PVTZ
    Blend: AUG-CC-PVTZ
  Basis Set: (AUG-CC-PVTZ AUX)
    Blend: AUG-CC-PVTZ-JKFIT
	 Reference Energy          =    -321.4238517970385942 [Eh]
	 Singles Energy            =      -0.0000000000000000 [Eh]
	 Same-Spin Energy          =      -0.3259921635862377 [Eh]
	 Opposite-Spin Energy      =      -1.0077168072983018 [Eh]
	 Correlation Energy        =      -1.3337089708845395 [Eh]
	 Total Energy              =    -322.7575607679231098 [Eh]

	 ================> DF-SCS-MP2 Energies <==================
	-----------------------------------------------------------
	 SCS Same-Spin Scale       =       0.3333333333333333 [-]
	 SCS Opposite-Spin Scale   =       1.2000000000000000 [-]
	 SCS Same-Spin Energy      =      -0.1086640545287459 [Eh]
	 SCS Opposite-Spin Energy  =      -1.2092601687579621 [Eh]
	 SCS Correlation Energy    =      -1.3179242232867079 [Eh]
	 SCS Total Energy          =    -322.7417760203252897 [Eh]
	-----------------------------------------------------------

  Dipole Moment: [D]
     X:     4.1198      Y:     0.7048      Z:    -1.0077     Total:     4.2994

*** Psi4 exiting successfully. Buy a developer a beer!
