                               Psi4 1.3.2 release

  ==> Input File <==

--------------------------------------------------------------------------
#psi4
#
memory 32 gb

molecule  {
-1 1
  O       -1.4366360    -1.1870470     0.0571230
  O       -1.4476160     1.0691130    -0.2107340
  N        1.2636070     1.2939420     0.0706720
  C        0.6179830     0.0092170     0.3932550
  C        1.4068670    -1.1350240    -0.2248910
  C       -0.8437386    -0.1328845     0.0476678
  H        0.6585810    -0.1007720     1.4894850
  H        2.4544500    -1.1027320     0.0899700
  H        0.9700140    -2.0919800     0.0583780
  H        1.3764410    -1.0627810    -1.3188240
  H        0.5133110     1.9810410     0.1712720
  H        1.4338170     1.2887330    -0.9390950
units angstrom
no_reorient  #important for SAPT in psi4, default
symmetry c1  #important for SAPT in psi4, default
}

set PROPERTIES_ORIGIN ["COM"]
properties('MP2/aug-cc-pvtz', properties = ['dipole'])
--------------------------------------------------------------------------

    Molecular point group: c1
  Charge       = -1
  Multiplicity = 1
  Basis Set: AUG-CC-PVTZ
    Blend: AUG-CC-PVTZ
  Basis Set: (AUG-CC-PVTZ AUX)
    Blend: AUG-CC-PVTZ-JKFIT

    Orbital Energies [Eh]
    ---------------------

    Doubly Occupied:

       1A    -20.317398     2A    -20.280439     3A    -15.386886
       4A    -11.141923     5A    -11.097363     6A    -11.075355
       7A     -1.186849     8A     -1.046067     9A     -1.010367
      10A     -0.850333    11A     -0.705792    12A     -0.546048
      13A     -0.502500    14A     -0.465370    15A     -0.445787
      16A     -0.402399    17A     -0.383811    18A     -0.374964
      19A     -0.349619    20A     -0.320318    21A     -0.280178
      22A     -0.201755    23A     -0.197509    24A     -0.188202

  @DF-RHF Final Energy:  -321.41197676847537

   => Energetics <=

    Nuclear Repulsion Energy =            238.0497501193711400
    One-Electron Energy =                -921.4089908529319928
    Two-Electron Energy =                 361.9472639650855399
    Total Energy =                       -321.4119767684753697
  Basis Set: (AUG-CC-PVTZ AUX)
    Blend: AUG-CC-PVTZ-RI
    Molecular point group: c1

    Geometry (in Angstrom), charge = -1, multiplicity = 1:

       Center              X                  Y                   Z               Mass
    ------------   -----------------  -----------------  -----------------  -----------------
         O           -1.359386049108    -1.187404961131     0.049482300860    15.994914619570
         O           -1.370366049108     1.068755038869    -0.218374699140    15.994914619570
         N            1.340856950892     1.293584038869     0.063031300860    14.003074004430
         C            0.695232950892     0.008859038869     0.385614300860    12.000000000000
         C            1.484116950892    -1.135381961131    -0.232531699140    12.000000000000
         C           -0.766488649108    -0.133242461131     0.040027100860    12.000000000000
         H            0.735830950892    -0.101129961131     1.481844300860     1.007825032230
         H            2.531699950892    -1.103089961131     0.082329300860     1.007825032230
         H            1.047263950892    -2.092337961131     0.050737300860     1.007825032230
         H            1.453690950892    -1.063138961131    -1.326464699140     1.007825032230
         H            0.590560950892     1.980683038869     0.163631300860     1.007825032230
         H            1.511066950892     1.288375038869    -0.946735699140     1.007825032230

  Basis Set: AUG-CC-PVTZ
    Blend: AUG-CC-PVTZ
  Basis Set: (AUG-CC-PVTZ AUX)
    Blend: AUG-CC-PVTZ-JKFIT
	 Reference Energy          =    -321.4119767684753697 [Eh]
	 Singles Energy            =      -0.0000000000000000 [Eh]
	 Same-Spin Energy          =      -0.3265284156378342 [Eh]
	 Opposite-Spin Energy      =      -1.0086723240061066 [Eh]
	 Correlation Energy        =      -1.3352007396439407 [Eh]
	 Total Energy              =    -322.7471775081193073 [Eh]

	 ================> DF-SCS-MP2 Energies <==================
	-----------------------------------------------------------
	 SCS Same-Spin Scale       =       0.3333333333333333 [-]
	 SCS Opposite-Spin Scale   =       1.2000000000000000 [-]
	 SCS Same-Spin Energy      =      -0.1088428052126114 [Eh]
	 SCS Opposite-Spin Energy  =      -1.2104067888073280 [Eh]
	 SCS Correlation Energy    =      -1.3192495940199394 [Eh]
	 SCS Total Energy          =    -322.7312263624953061 [Eh]
	-----------------------------------------------------------

  Dipole Moment: [D]
     X:     4.7186      Y:    -1.0403      Z:    -0.0600     Total:     4.8323

*** Psi4 exiting successfully. Buy a developer a beer!
