                               Psi4 1.3.2 release

  ==> Input File <==

--------------------------------------------------------------------------
#psi4
#
memory 32 gb

molecule  {
-1 1
  O       -1.4366360    -1.1870470     0.0571230
  O       -1.4476160     1.0691130    -0.2107340
  N        1.2636070     1.2939420     0.0706720
  C        0.5958037     0.0216170     0.3972241
  C        1.4068670    -1.1350240    -0.2248910
  C       -0.8878250    -0.0451320     0.0288030
  H        0.6585810    -0.1007720     1.4894850
  H        2.4544500    -1.1027320     0.0899700
  H        0.9700140    -2.0919800     0.0583780
  H        1.3764410    -1.0627810    -1.3188240
  H        0.5020883     1.9679028     0.1757227
  H        1.4338170     1.2887330    -0.9390950
units angstrom
no_reorient  #important for SAPT in psi4, default
symmetry c1  #important for SAPT in psi4, default
}

set PROPERTIES_ORIGIN ["COM"]
properties('MP2/aug-cc-pvtz', properties = ['dipole'])
--------------------------------------------------------------------------

    Molecular point group: c1
  Charge       = -1
  Multiplicity = 1
  Basis Set: AUG-CC-PVTZ
    Blend: AUG-CC-PVTZ
  Basis Set: (AUG-CC-PVTZ AUX)
    Blend: AUG-CC-PVTZ-JKFIT

    Orbital Energies [Eh]
    ---------------------

    Doubly Occupied:

       1A    -20.302322     2A    -20.298697     3A    -15.386049
       4A    -11.140941     5A    -11.093818     6A    -11.071820
       7A     -1.171268     8A     -1.069969     9A     -1.022052
      10A     -0.838074    11A     -0.698294    12A     -0.540984
      13A     -0.500165    14A     -0.460697    15A     -0.441948
      16A     -0.400885    17A     -0.388562    18A     -0.372277
      19A     -0.343302    20A     -0.316257    21A     -0.279559
      22A     -0.216379    23A     -0.201226    24A     -0.196986

  @DF-RHF Final Energy:  -321.42761010167163

   => Energetics <=

    Nuclear Repulsion Energy =            238.0934117914874264
    One-Electron Energy =                -921.5369797541179651
    Two-Electron Energy =                 362.0159578609589630
    Total Energy =                       -321.4276101016716325
  Basis Set: (AUG-CC-PVTZ AUX)
    Blend: AUG-CC-PVTZ-RI
    Molecular point group: c1

    Geometry (in Angstrom), charge = -1, multiplicity = 1:

       Center              X                  Y                   Z               Mass
    ------------   -----------------  -----------------  -----------------  -----------------
         O           -1.350225437334    -1.200905540094     0.051461664368    15.994914619570
         O           -1.361205437334     1.055254459906    -0.216395335632    15.994914619570
         N            1.350017562666     1.280083459906     0.065010664368    14.003074004430
         C            0.682214262666     0.007758459906     0.391562764368    12.000000000000
         C            1.493277562666    -1.148882540094    -0.230552335632    12.000000000000
         C           -0.801414437334    -0.058990540094     0.023141664368    12.000000000000
         H            0.744991562666    -0.114630540094     1.483823664368     1.007825032230
         H            2.540860562666    -1.116590540094     0.084308664368     1.007825032230
         H            1.056424562666    -2.105838540094     0.052716664368     1.007825032230
         H            1.462851562666    -1.076639540094    -1.324485335632     1.007825032230
         H            0.588498862666     1.954044259906     0.170061364368     1.007825032230
         H            1.520227562666     1.274874459906    -0.944756335632     1.007825032230

  Basis Set: AUG-CC-PVTZ
    Blend: AUG-CC-PVTZ
  Basis Set: (AUG-CC-PVTZ AUX)
    Blend: AUG-CC-PVTZ-JKFIT
	 Reference Energy          =    -321.4276101016716325 [Eh]
	 Singles Energy            =      -0.0000000000000000 [Eh]
	 Same-Spin Energy          =      -0.3255995013407674 [Eh]
	 Opposite-Spin Energy      =      -1.0067344614946392 [Eh]
	 Correlation Energy        =      -1.3323339628354067 [Eh]
	 Total Energy              =    -322.7599440645070672 [Eh]

	 ================> DF-SCS-MP2 Energies <==================
	-----------------------------------------------------------
	 SCS Same-Spin Scale       =       0.3333333333333333 [-]
	 SCS Opposite-Spin Scale   =       1.2000000000000000 [-]
	 SCS Same-Spin Energy      =      -0.1085331671135891 [Eh]
	 SCS Opposite-Spin Energy  =      -1.2080813537935671 [Eh]
	 SCS Correlation Energy    =      -1.3166145209071562 [Eh]
	 SCS Total Energy          =    -322.7442246225787699 [Eh]
	-----------------------------------------------------------

  Dipole Moment: [D]
     X:     4.4318      Y:    -0.1194      Z:    -0.1949     Total:     4.4377

*** Psi4 exiting successfully. Buy a developer a beer!
