                               Psi4 1.4a3.dev225

  ==> Input File <==

--------------------------------------------------------------------------
#psi4
#
memory 32 gb

molecule  {
-1 1
  O       -1.6933650     0.8030190    -0.4602720
  O       -1.1174780    -1.0749000     0.6904900
  N        1.4364130    -1.0622120    -0.3332000
  C        0.6126710     0.1580520    -0.4178300
  C        1.1905680     1.2200680     0.5150430
  C       -0.8930024    -0.0718340    -0.0403853
  H        0.6528320     0.5329630    -1.4473970
  H        2.2305690     1.4435080     0.2589170
  H        0.6009540     2.1390560     0.4596660
  H        1.1629700     0.8554330     1.5482090
  H        1.1631630    -1.6605680    -1.1160450
  H        1.0447980    -1.5551690     0.4751990
units angstrom
no_reorient  #important for SAPT in psi4, default
symmetry c1  #important for SAPT in psi4, default
}

set PROPERTIES_ORIGIN ["COM"]
properties('MP2/aug-cc-pvtz', properties = ['dipole'])
--------------------------------------------------------------------------

    Molecular point group: c1
  Charge       = -1
  Multiplicity = 1
  Basis Set: AUG-CC-PVTZ
    Blend: AUG-CC-PVTZ
  Basis Set: (AUG-CC-PVTZ AUX)
    Blend: AUG-CC-PVTZ-JKFIT

    Orbital Energies [Eh]
    ---------------------

    Doubly Occupied:

       1A    -20.303404     2A    -20.299563     3A    -15.386256
       4A    -11.139914     5A    -11.090364     6A    -11.068916
       7A     -1.174772     8A     -1.076032     9A     -1.019877
      10A     -0.840816    11A     -0.682950    12A     -0.540732
      13A     -0.503430    14A     -0.462661    15A     -0.423071
      16A     -0.407218    17A     -0.397405    18A     -0.365719
      19A     -0.346923    20A     -0.319430    21A     -0.282585
      22A     -0.218771    23A     -0.203126    24A     -0.188656

  @DF-RHF Final Energy:  -321.43024529370211

   => Energetics <=

    Nuclear Repulsion Energy =            238.1232806085655511
    One-Electron Energy =                -921.6218674240963082
    Two-Electron Energy =                 362.0683415218286427
    Total Energy =                       -321.4302452937021144
  Basis Set: (AUG-CC-PVTZ AUX)
    Blend: AUG-CC-PVTZ-RI
    Molecular point group: c1

    Geometry (in Angstrom), charge = -1, multiplicity = 1:

       Center              X                  Y                   Z               Mass
    ------------   -----------------  -----------------  -----------------  -----------------
         O           -1.613705301052     0.823220725470    -0.458890484153    15.994914619570
         O           -1.037818301052    -1.054698274530     0.691871515847    15.994914619570
         N            1.516072698948    -1.042010274530    -0.331818484153    14.003074004430
         C            0.692330698948     0.178253725470    -0.416448484153    12.000000000000
         C            1.270227698948     1.240269725470     0.516424515847    12.000000000000
         C           -0.813342701052    -0.051632274530    -0.039003784153    12.000000000000
         H            0.732491698948     0.553164725470    -1.446015484153     1.007825032230
         H            2.310228698948     1.463709725470     0.260298515847     1.007825032230
         H            0.680613698948     2.159257725470     0.461047515847     1.007825032230
         H            1.242629698948     0.875634725470     1.549590515847     1.007825032230
         H            1.242822698948    -1.640366274530    -1.114663484153     1.007825032230
         H            1.124457698948    -1.534967274530     0.476580515847     1.007825032230

  Basis Set: AUG-CC-PVTZ
    Blend: AUG-CC-PVTZ
  Basis Set: (AUG-CC-PVTZ AUX)
    Blend: AUG-CC-PVTZ-JKFIT
	 Reference Energy          =    -321.4302452937021144 [Eh]
	 Singles Energy            =      -0.0000000000000000 [Eh]
	 Same-Spin Energy          =      -0.3252481592268364 [Eh]
	 Opposite-Spin Energy      =      -1.0060192188402848 [Eh]
	 Correlation Energy        =      -1.3312673780671211 [Eh]
	 Total Energy              =    -322.7615126717692533 [Eh]

	 ================> DF-SCS-MP2 Energies <==================
	-----------------------------------------------------------
	 SCS Same-Spin Scale       =       0.3333333333333333 [-]
	 SCS Opposite-Spin Scale   =       1.2000000000000000 [-]
	 SCS Same-Spin Energy      =      -0.1084160530756121 [Eh]
	 SCS Opposite-Spin Energy  =      -1.2072230626083418 [Eh]
	 SCS Correlation Energy    =      -1.3156391156839540 [Eh]
	 SCS Total Energy          =    -322.7458844093860648 [Eh]
	-----------------------------------------------------------

  Dipole Moment: [D]
     X:     3.9926      Y:     0.2887      Z:    -0.7381     Total:     4.0705

*** Psi4 exiting successfully. Buy a developer a beer!
