                               Psi4 1.3.2 release

  ==> Input File <==

--------------------------------------------------------------------------
#psi4
#
memory 32 gb

molecule  {
-1 1
  O       -1.4366360    -1.1870470     0.0571230
  O       -1.4476160     1.0691130    -0.2107340
  N        1.2636070     1.2939420     0.0706720
  C        0.6179830     0.0092170     0.3932550
  C        1.4068670    -1.1350240    -0.2248910
  C       -0.8878250    -0.0451320     0.0288030
  H        0.6548986    -0.0907955     1.3900521
  H        2.4544500    -1.1027320     0.0899700
  H        0.9700140    -2.0919800     0.0583780
  H        1.3764410    -1.0627810    -1.3188240
  H        0.5133110     1.9810410     0.1712720
  H        1.4338170     1.2887330    -0.9390950
units angstrom
no_reorient  #important for SAPT in psi4, default
symmetry c1  #important for SAPT in psi4, default
}

set PROPERTIES_ORIGIN ["COM"]
properties('MP2/aug-cc-pvtz', properties = ['dipole'])
--------------------------------------------------------------------------

    Molecular point group: c1
  Charge       = -1
  Multiplicity = 1
  Basis Set: AUG-CC-PVTZ
    Blend: AUG-CC-PVTZ
  Basis Set: (AUG-CC-PVTZ AUX)
    Blend: AUG-CC-PVTZ-JKFIT

    Orbital Energies [Eh]
    ---------------------

    Doubly Occupied:

       1A    -20.301716     2A    -20.298162     3A    -15.384390
       4A    -11.140287     5A    -11.079973     6A    -11.070387
       7A     -1.169801     8A     -1.068856     9A     -1.022169
      10A     -0.843952    11A     -0.703301    12A     -0.545565
      13A     -0.501543    14A     -0.460720    15A     -0.443455
      16A     -0.399405    17A     -0.387331    18A     -0.374743
      19A     -0.348317    20A     -0.323372    21A     -0.279666
      22A     -0.215201    23A     -0.200014    24A     -0.193666

  @DF-RHF Final Energy:  -321.42333695877102

   => Energetics <=

    Nuclear Repulsion Energy =            238.4804163987405730
    One-Electron Energy =                -922.2955222733236269
    Two-Electron Energy =                 362.3917689158120652
    Total Energy =                       -321.4233369587710172
  Basis Set: (AUG-CC-PVTZ AUX)
    Blend: AUG-CC-PVTZ-RI
    Molecular point group: c1

    Geometry (in Angstrom), charge = -1, multiplicity = 1:

       Center              X                  Y                   Z               Mass
    ------------   -----------------  -----------------  -----------------  -----------------
         O           -1.353334834867    -1.199479999025     0.053191854578    15.994914619570
         O           -1.364314834867     1.056680000975    -0.214665145422    15.994914619570
         N            1.346908165133     1.281509000975     0.066740854578    14.003074004430
         C            0.701284165133    -0.003215999025     0.389323854578    12.000000000000
         C            1.490168165133    -1.147456999025    -0.228822145422    12.000000000000
         C           -0.804523834867    -0.057564999025     0.024871854578    12.000000000000
         H            0.738199765133    -0.103228499025     1.386120954578     1.007825032230
         H            2.537751165133    -1.115164999025     0.086038854578     1.007825032230
         H            1.053315165133    -2.104412999025     0.054446854578     1.007825032230
         H            1.459742165133    -1.075213999025    -1.322755145422     1.007825032230
         H            0.596612165133     1.968608000975     0.167340854578     1.007825032230
         H            1.517118165133     1.276300000975    -0.943026145422     1.007825032230

  Basis Set: AUG-CC-PVTZ
    Blend: AUG-CC-PVTZ
  Basis Set: (AUG-CC-PVTZ AUX)
    Blend: AUG-CC-PVTZ-JKFIT
	 Reference Energy          =    -321.4233369587710172 [Eh]
	 Singles Energy            =      -0.0000000000000000 [Eh]
	 Same-Spin Energy          =      -0.3255497982292040 [Eh]
	 Opposite-Spin Energy      =      -1.0061215276784115 [Eh]
	 Correlation Energy        =      -1.3316713259076156 [Eh]
	 Total Energy              =    -322.7550082846786381 [Eh]

	 ================> DF-SCS-MP2 Energies <==================
	-----------------------------------------------------------
	 SCS Same-Spin Scale       =       0.3333333333333333 [-]
	 SCS Opposite-Spin Scale   =       1.2000000000000000 [-]
	 SCS Same-Spin Energy      =      -0.1085165994097347 [Eh]
	 SCS Opposite-Spin Energy  =      -1.2073458332140936 [Eh]
	 SCS Correlation Energy    =      -1.3158624326238284 [Eh]
	 SCS Total Energy          =    -322.7391993913948340 [Eh]
	-----------------------------------------------------------

  Dipole Moment: [D]
     X:     4.4470      Y:    -0.1514      Z:    -0.1425     Total:     4.4519

*** Psi4 exiting successfully. Buy a developer a beer!
