                               Psi4 1.4a3.dev225

  ==> Input File <==

--------------------------------------------------------------------------
#psi4
#
memory 32 gb

molecule  {
-1 1
  O       -1.6933650     0.8030190    -0.4602720
  O       -1.1174780    -1.0749000     0.6904900
  N        1.4364130    -1.0622120    -0.3332000
  C        0.6126710     0.1580520    -0.4178300
  C        1.1905680     1.2200680     0.5150430
  C       -0.8834059    -0.1085134    -0.0162296
  H        0.6528320     0.5329630    -1.4473970
  H        2.2305690     1.4435080     0.2589170
  H        0.6009540     2.1390560     0.4596660
  H        1.1629700     0.8554330     1.5482090
  H        1.1631630    -1.6605680    -1.1160450
  H        1.0447980    -1.5551690     0.4751990
units angstrom
no_reorient  #important for SAPT in psi4, default
symmetry c1  #important for SAPT in psi4, default
}

set PROPERTIES_ORIGIN ["COM"]
properties('MP2/aug-cc-pvtz', properties = ['dipole'])
--------------------------------------------------------------------------

    Molecular point group: c1
  Charge       = -1
  Multiplicity = 1
  Basis Set: AUG-CC-PVTZ
    Blend: AUG-CC-PVTZ
  Basis Set: (AUG-CC-PVTZ AUX)
    Blend: AUG-CC-PVTZ-JKFIT

    Orbital Energies [Eh]
    ---------------------

    Doubly Occupied:

       1A    -20.314009     2A    -20.289252     3A    -15.387023
       4A    -11.139421     5A    -11.090226     6A    -11.068605
       7A     -1.186387     8A     -1.066443     9A     -1.022151
      10A     -0.840066    11A     -0.681600    12A     -0.543036
      13A     -0.503614    14A     -0.466584    15A     -0.421634
      16A     -0.409050    17A     -0.397392    18A     -0.366839
      19A     -0.348054    20A     -0.322523    21A     -0.280829
      22A     -0.220635    23A     -0.200599    24A     -0.185061

  @DF-RHF Final Energy:  -321.42712208655115

   => Energetics <=

    Nuclear Repulsion Energy =            238.2217012545798980
    One-Electron Energy =                -921.7955817889870787
    Two-Electron Energy =                 362.1467584478560298
    Total Energy =                       -321.4271220865511509
  Basis Set: (AUG-CC-PVTZ AUX)
    Blend: AUG-CC-PVTZ-RI
    Molecular point group: c1

    Geometry (in Angstrom), charge = -1, multiplicity = 1:

       Center              X                  Y                   Z               Mass
    ------------   -----------------  -----------------  -----------------  -----------------
         O           -1.615013322312     0.828220197673    -0.462182952151    15.994914619570
         O           -1.039126322312    -1.049698802327     0.688579047849    15.994914619570
         N            1.514764677688    -1.037010802327    -0.335110952151    14.003074004430
         C            0.691022677688     0.183253197673    -0.419740952151    12.000000000000
         C            1.268919677688     1.245269197673     0.513132047849    12.000000000000
         C           -0.805054222312    -0.083312202327    -0.018140552151    12.000000000000
         H            0.731183677688     0.558164197673    -1.449307952151     1.007825032230
         H            2.308920677688     1.468709197673     0.257006047849     1.007825032230
         H            0.679305677688     2.164257197673     0.457755047849     1.007825032230
         H            1.241321677688     0.880634197673     1.546298047849     1.007825032230
         H            1.241514677688    -1.635366802327    -1.117955952151     1.007825032230
         H            1.123149677688    -1.529967802327     0.473288047849     1.007825032230

  Basis Set: AUG-CC-PVTZ
    Blend: AUG-CC-PVTZ
  Basis Set: (AUG-CC-PVTZ AUX)
    Blend: AUG-CC-PVTZ-JKFIT
	 Reference Energy          =    -321.4271220865511509 [Eh]
	 Singles Energy            =      -0.0000000000000000 [Eh]
	 Same-Spin Energy          =      -0.3251698549855802 [Eh]
	 Opposite-Spin Energy      =      -1.0058936010880559 [Eh]
	 Correlation Energy        =      -1.3310634560736361 [Eh]
	 Total Energy              =    -322.7581855426248012 [Eh]

	 ================> DF-SCS-MP2 Energies <==================
	-----------------------------------------------------------
	 SCS Same-Spin Scale       =       0.3333333333333333 [-]
	 SCS Opposite-Spin Scale   =       1.2000000000000000 [-]
	 SCS Same-Spin Energy      =      -0.1083899516618601 [Eh]
	 SCS Opposite-Spin Energy  =      -1.2070723213056671 [Eh]
	 SCS Correlation Energy    =      -1.3154622729675272 [Eh]
	 SCS Total Energy          =    -322.7425843595186734 [Eh]
	-----------------------------------------------------------

  Dipole Moment: [D]
     X:     4.1183      Y:    -0.0945      Z:    -0.5006     Total:     4.1497

*** Psi4 exiting successfully. Buy a developer a beer!
