                               Psi4 1.3.2 release

  ==> Input File <==

--------------------------------------------------------------------------
#psi4
#
memory 32 gb

molecule  {
-1 1
  O       -1.4366360    -1.1870470     0.0571230
  O       -1.4476160     1.0691130    -0.2107340
  N        1.2636070     1.2939420     0.0706720
  C        0.6179830     0.0092170     0.3932550
  C        1.5105928    -1.2854736    -0.3061675
  C       -0.8878250    -0.0451320     0.0288030
  H        0.6585810    -0.1007720     1.4894850
  H        2.4544500    -1.1027320     0.0899700
  H        0.9700140    -2.0919800     0.0583780
  H        1.3764410    -1.0627810    -1.3188240
  H        0.5133110     1.9810410     0.1712720
  H        1.4338170     1.2887330    -0.9390950
units angstrom
no_reorient  #important for SAPT in psi4, default
symmetry c1  #important for SAPT in psi4, default
}

set PROPERTIES_ORIGIN ["COM"]
properties('MP2/aug-cc-pvtz', properties = ['dipole'])
--------------------------------------------------------------------------

    Molecular point group: c1
  Charge       = -1
  Multiplicity = 1
  Basis Set: AUG-CC-PVTZ
    Blend: AUG-CC-PVTZ
  Basis Set: (AUG-CC-PVTZ AUX)
    Blend: AUG-CC-PVTZ-JKFIT

    Orbital Energies [Eh]
    ---------------------

    Doubly Occupied:

       1A    -20.302686     2A    -20.298291     3A    -15.387160
       4A    -11.141738     5A    -11.103157     6A    -11.068183
       7A     -1.169714     8A     -1.069205     9A     -1.016233
      10A     -0.828143    11A     -0.702739    12A     -0.533656
      13A     -0.495552    14A     -0.463093    15A     -0.446843
      16A     -0.418051    17A     -0.405897    18A     -0.381904
      19A     -0.339608    20A     -0.288442    21A     -0.271334
      22A     -0.215260    23A     -0.200703    24A     -0.193750

  @DF-RHF Final Energy:  -321.40192650797098

   => Energetics <=

    Nuclear Repulsion Energy =            234.9985182169433244
    One-Electron Energy =                -915.3182007633267858
    Two-Electron Energy =                 358.9177560384124490
    Total Energy =                       -321.4019265079709839
  Basis Set: (AUG-CC-PVTZ AUX)
    Blend: AUG-CC-PVTZ-RI
    Molecular point group: c1

    Geometry (in Angstrom), charge = -1, multiplicity = 1:

       Center              X                  Y                   Z               Mass
    ------------   -----------------  -----------------  -----------------  -----------------
         O           -1.367515013118    -1.178859226778     0.063131751116    15.994914619570
         O           -1.378495013118     1.077300773222    -0.204725248884    15.994914619570
         N            1.332727986882     1.302129773222     0.076680751116    14.003074004430
         C            0.687103986882     0.017404773222     0.399263751116    12.000000000000
         C            1.579713786882    -1.277285826778    -0.300158748884    12.000000000000
         C           -0.818704013118    -0.036944226778     0.034811751116    12.000000000000
         H            0.727701986882    -0.092584226778     1.495493751116     1.007825032230
         H            2.523570986882    -1.094544226778     0.095978751116     1.007825032230
         H            1.039134986882    -2.083792226778     0.064386751116     1.007825032230
         H            1.445561986882    -1.054593226778    -1.312815248884     1.007825032230
         H            0.582431986882     1.989228773222     0.177280751116     1.007825032230
         H            1.502937986882     1.296920773222    -0.933086248884     1.007825032230

  Basis Set: AUG-CC-PVTZ
    Blend: AUG-CC-PVTZ
  Basis Set: (AUG-CC-PVTZ AUX)
    Blend: AUG-CC-PVTZ-JKFIT
	 Reference Energy          =    -321.4019265079709839 [Eh]
	 Singles Energy            =      -0.0000000000000000 [Eh]
	 Same-Spin Energy          =      -0.3257091038806559 [Eh]
	 Opposite-Spin Energy      =      -1.0078211991145856 [Eh]
	 Correlation Energy        =      -1.3335303029952414 [Eh]
	 Total Energy              =    -322.7354568109662409 [Eh]

	 ================> DF-SCS-MP2 Energies <==================
	-----------------------------------------------------------
	 SCS Same-Spin Scale       =       0.3333333333333333 [-]
	 SCS Opposite-Spin Scale   =       1.2000000000000000 [-]
	 SCS Same-Spin Energy      =      -0.1085697012935520 [Eh]
	 SCS Opposite-Spin Energy  =      -1.2093854389375027 [Eh]
	 SCS Correlation Energy    =      -1.3179551402310548 [Eh]
	 SCS Total Energy          =    -322.7198816482020334 [Eh]
	-----------------------------------------------------------

  Dipole Moment: [D]
     X:     4.4533      Y:    -0.0342      Z:    -0.2199     Total:     4.4589

*** Psi4 exiting successfully. Buy a developer a beer!
