                               Psi4 1.3.2 release

  ==> Input File <==

--------------------------------------------------------------------------
#psi4
#
memory 32 gb

molecule  {
-1 1
  O       -1.4366360    -1.1870470     0.0571230
  O       -1.4476160     1.0691130    -0.2107340
  N        1.2657747     1.2959315     0.0831902
  C        0.6179830     0.0092170     0.3932550
  C        1.4068670    -1.1350240    -0.2248910
  C       -0.8878250    -0.0451320     0.0288030
  H        0.6630887    -0.0922966     1.4901262
  H        2.4544500    -1.1027320     0.0899700
  H        0.9700140    -2.0919800     0.0583780
  H        1.3764410    -1.0627810    -1.3188240
  H        0.5133110     1.9810410     0.1712720
  H        1.4338170     1.2887330    -0.9390950
units angstrom
no_reorient  #important for SAPT in psi4, default
symmetry c1  #important for SAPT in psi4, default
}

set PROPERTIES_ORIGIN ["COM"]
properties('MP2/aug-cc-pvtz', properties = ['dipole'])
--------------------------------------------------------------------------

    Molecular point group: c1
  Charge       = -1
  Multiplicity = 1
  Basis Set: AUG-CC-PVTZ
    Blend: AUG-CC-PVTZ
  Basis Set: (AUG-CC-PVTZ AUX)
    Blend: AUG-CC-PVTZ-JKFIT

    Orbital Energies [Eh]
    ---------------------

    Doubly Occupied:

       1A    -20.302490     2A    -20.298574     3A    -15.387343
       4A    -11.141677     5A    -11.093425     6A    -11.071646
       7A     -1.170297     8A     -1.069432     9A     -1.021146
      10A     -0.841777    11A     -0.693918    12A     -0.539593
      13A     -0.500092    14A     -0.461180    15A     -0.439308
      16A     -0.399583    17A     -0.388060    18A     -0.371453
      19A     -0.348446    20A     -0.318855    21A     -0.279930
      22A     -0.215877    23A     -0.200538    24A     -0.194649

  @DF-RHF Final Energy:  -321.42786984948731

   => Energetics <=

    Nuclear Repulsion Energy =            237.8573075680478439
    One-Electron Energy =                -921.0717781460144806
    Two-Electron Energy =                 361.7866007284793000
    Total Energy =                       -321.4278698494873083
  Basis Set: (AUG-CC-PVTZ AUX)
    Blend: AUG-CC-PVTZ-RI
    Molecular point group: c1

    Geometry (in Angstrom), charge = -1, multiplicity = 1:

       Center              X                  Y                   Z               Mass
    ------------   -----------------  -----------------  -----------------  -----------------
         O           -1.353773370937    -1.199779252926     0.050055201650    15.994914619570
         O           -1.364753370937     1.056380747074    -0.217801798350    15.994914619570
         N            1.348637329063     1.283199247074     0.076122401650    14.003074004430
         C            0.700845629063    -0.003515252926     0.386187201650    12.000000000000
         C            1.489729629063    -1.147756252926    -0.231958798350    12.000000000000
         C           -0.804962370937    -0.057864252926     0.021735201650    12.000000000000
         H            0.745951329063    -0.105028852926     1.483058401650     1.007825032230
         H            2.537312629063    -1.115464252926     0.082902201650     1.007825032230
         H            1.052876629063    -2.104712252926     0.051310201650     1.007825032230
         H            1.459303629063    -1.075513252926    -1.325891798350     1.007825032230
         H            0.596173629063     1.968308747074     0.164204201650     1.007825032230
         H            1.516679629063     1.276000747074    -0.946162798350     1.007825032230

  Basis Set: AUG-CC-PVTZ
    Blend: AUG-CC-PVTZ
  Basis Set: (AUG-CC-PVTZ AUX)
    Blend: AUG-CC-PVTZ-JKFIT
	 Reference Energy          =    -321.4278698494873083 [Eh]
	 Singles Energy            =      -0.0000000000000000 [Eh]
	 Same-Spin Energy          =      -0.3256582177182381 [Eh]
	 Opposite-Spin Energy      =      -1.0068515038008343 [Eh]
	 Correlation Energy        =      -1.3325097215190724 [Eh]
	 Total Energy              =    -322.7603795710063537 [Eh]

	 ================> DF-SCS-MP2 Energies <==================
	-----------------------------------------------------------
	 SCS Same-Spin Scale       =       0.3333333333333333 [-]
	 SCS Opposite-Spin Scale   =       1.2000000000000000 [-]
	 SCS Same-Spin Energy      =      -0.1085527392394127 [Eh]
	 SCS Opposite-Spin Energy  =      -1.2082218045610011 [Eh]
	 SCS Correlation Energy    =      -1.3167745438004139 [Eh]
	 SCS Total Energy          =    -322.7446443932877287 [Eh]
	-----------------------------------------------------------

  Dipole Moment: [D]
     X:     4.4426      Y:    -0.1429      Z:    -0.2151     Total:     4.4501

*** Psi4 exiting successfully. Buy a developer a beer!
