                               Psi4 1.3.2 release

  ==> Input File <==

--------------------------------------------------------------------------
#psi4
#
memory 32 gb

molecule  {
-1 1
  O       -1.4366360    -1.1870470     0.0571230
  O       -1.4476160     1.0691130    -0.2107340
  N        1.2636070     1.2939420     0.0706720
  C        0.6179830     0.0092170     0.3932550
  C        1.3550041    -1.0597992    -0.1842528
  C       -0.8878250    -0.0451320     0.0288030
  H        0.6585810    -0.1007720     1.4894850
  H        2.4544500    -1.1027320     0.0899700
  H        0.9700140    -2.0919800     0.0583780
  H        1.3764410    -1.0627810    -1.3188240
  H        0.5133110     1.9810410     0.1712720
  H        1.4338170     1.2887330    -0.9390950
units angstrom
no_reorient  #important for SAPT in psi4, default
symmetry c1  #important for SAPT in psi4, default
}

set PROPERTIES_ORIGIN ["COM"]
properties('MP2/aug-cc-pvtz', properties = ['dipole'])
--------------------------------------------------------------------------

    Molecular point group: c1
  Charge       = -1
  Multiplicity = 1
  Basis Set: AUG-CC-PVTZ
    Blend: AUG-CC-PVTZ
  Basis Set: (AUG-CC-PVTZ AUX)
    Blend: AUG-CC-PVTZ-JKFIT

    Orbital Energies [Eh]
    ---------------------

    Doubly Occupied:

       1A    -20.302907     2A    -20.299051     3A    -15.385967
       4A    -11.142351     5A    -11.088148     6A    -11.077240
       7A     -1.171270     8A     -1.070041     9A     -1.027846
      10A     -0.854762    11A     -0.688197    12A     -0.544537
      13A     -0.507348    14A     -0.463015    15A     -0.443433
      16A     -0.400958    17A     -0.383123    18A     -0.360689
      19A     -0.349130    20A     -0.319393    21A     -0.280105
      22A     -0.215601    23A     -0.200707    24A     -0.194754

  @DF-RHF Final Energy:  -321.41672192026726

   => Energetics <=

    Nuclear Repulsion Energy =            239.5489248754880975
    One-Electron Energy =                -924.3901480460413040
    Two-Electron Energy =                 363.4245012502859709
    Total Energy =                       -321.4167219202672641
  Basis Set: (AUG-CC-PVTZ AUX)
    Blend: AUG-CC-PVTZ-RI
    Molecular point group: c1

    Geometry (in Angstrom), charge = -1, multiplicity = 1:

       Center              X                  Y                   Z               Mass
    ------------   -----------------  -----------------  -----------------  -----------------
         O           -1.346307976451    -1.209619078076     0.046514544898    15.994914619570
         O           -1.357287976451     1.046540921924    -0.221342455102    15.994914619570
         N            1.353935023549     1.271369921924     0.060063544898    14.003074004430
         C            0.708311023549    -0.013355078076     0.382646544898    12.000000000000
         C            1.445332123549    -1.082371278076    -0.194861255102    12.000000000000
         C           -0.797496976451    -0.067704078076     0.018194544898    12.000000000000
         H            0.748909023549    -0.123344078076     1.478876544898     1.007825032230
         H            2.544778023549    -1.125304078076     0.079361544898     1.007825032230
         H            1.060342023549    -2.114552078076     0.047769544898     1.007825032230
         H            1.466769023549    -1.085353078076    -1.329432455102     1.007825032230
         H            0.603639023549     1.958468921924     0.160663544898     1.007825032230
         H            1.524145023549     1.266160921924    -0.949703455102     1.007825032230

  Basis Set: AUG-CC-PVTZ
    Blend: AUG-CC-PVTZ
  Basis Set: (AUG-CC-PVTZ AUX)
    Blend: AUG-CC-PVTZ-JKFIT
	 Reference Energy          =    -321.4167219202672641 [Eh]
	 Singles Energy            =      -0.0000000000000000 [Eh]
	 Same-Spin Energy          =      -0.3266715415103973 [Eh]
	 Opposite-Spin Energy      =      -1.0079482239963646 [Eh]
	 Correlation Energy        =      -1.3346197655067620 [Eh]
	 Total Energy              =    -322.7513416857740367 [Eh]

	 ================> DF-SCS-MP2 Energies <==================
	-----------------------------------------------------------
	 SCS Same-Spin Scale       =       0.3333333333333333 [-]
	 SCS Opposite-Spin Scale   =       1.2000000000000000 [-]
	 SCS Same-Spin Energy      =      -0.1088905138367991 [Eh]
	 SCS Opposite-Spin Energy  =      -1.2095378687956375 [Eh]
	 SCS Correlation Energy    =      -1.3184283826324366 [Eh]
	 SCS Total Energy          =    -322.7351503028996831 [Eh]
	-----------------------------------------------------------

  Dipole Moment: [D]
     X:     4.3651      Y:    -0.1113      Z:    -0.1692     Total:     4.3698

*** Psi4 exiting successfully. Buy a developer a beer!
