                               Psi4 1.3.2 release

  ==> Input File <==

--------------------------------------------------------------------------
#psi4
#
memory 32 gb

molecule  {
-1 1
  O       -1.4170588    -1.1961213     0.0619793
  O       -1.4280847     1.0792604    -0.2081505
  N        1.2636070     1.2939420     0.0706720
  C        0.6179830     0.0092170     0.3932550
  C        1.4068670    -1.1350240    -0.2248910
  C       -0.8878250    -0.0451320     0.0288030
  H        0.6585810    -0.1007720     1.4894850
  H        2.4544500    -1.1027320     0.0899700
  H        0.9700140    -2.0919800     0.0583780
  H        1.3764410    -1.0627810    -1.3188240
  H        0.5133110     1.9810410     0.1712720
  H        1.4338170     1.2887330    -0.9390950
units angstrom
no_reorient  #important for SAPT in psi4, default
symmetry c1  #important for SAPT in psi4, default
}

set PROPERTIES_ORIGIN ["COM"]
properties('MP2/aug-cc-pvtz', properties = ['dipole'])
--------------------------------------------------------------------------

    Molecular point group: c1
  Charge       = -1
  Multiplicity = 1
  Basis Set: AUG-CC-PVTZ
    Blend: AUG-CC-PVTZ
  Basis Set: (AUG-CC-PVTZ AUX)
    Blend: AUG-CC-PVTZ-JKFIT

    Orbital Energies [Eh]
    ---------------------

    Doubly Occupied:

       1A    -20.304202     2A    -20.300334     3A    -15.383940
       4A    -11.142401     5A    -11.090960     6A    -11.069994
       7A     -1.170607     8A     -1.073024     9A     -1.019886
      10A     -0.840426    11A     -0.692861    12A     -0.538208
      13A     -0.500121    14A     -0.461417    15A     -0.440576
      16A     -0.401157    17A     -0.387501    18A     -0.371431
      19A     -0.346947    20A     -0.318440    21A     -0.278338
      22A     -0.218220    23A     -0.202694    24A     -0.192693

  @DF-RHF Final Energy:  -321.42842308759134

   => Energetics <=

    Nuclear Repulsion Energy =            238.1843319506276657
    One-Electron Energy =                -921.7327560962223743
    Two-Electron Energy =                 362.1200010580033677
    Total Energy =                       -321.4284230875913408
  Basis Set: (AUG-CC-PVTZ AUX)
    Blend: AUG-CC-PVTZ-RI
    Molecular point group: c1

    Geometry (in Angstrom), charge = -1, multiplicity = 1:

       Center              X                  Y                   Z               Mass
    ------------   -----------------  -----------------  -----------------  -----------------
         O           -1.340904947234    -1.208635053095     0.055558260254    15.994914619570
         O           -1.351930847234     1.066746646905    -0.214571539746    15.994914619570
         N            1.339760852766     1.281428246905     0.064250960254    14.003074004430
         C            0.694136852766    -0.003296753095     0.386833960254    12.000000000000
         C            1.483020852766    -1.147537753095    -0.231312039746    12.000000000000
         C           -0.811671147234    -0.057645753095     0.022381960254    12.000000000000
         H            0.734734852766    -0.113285753095     1.483063960254     1.007825032230
         H            2.530603852766    -1.115245753095     0.083548960254     1.007825032230
         H            1.046167852766    -2.104493753095     0.051956960254     1.007825032230
         H            1.452594852766    -1.075294753095    -1.325245039746     1.007825032230
         H            0.589464852766     1.968527246905     0.164850960254     1.007825032230
         H            1.509970852766     1.276219246905    -0.945516039746     1.007825032230

  Basis Set: AUG-CC-PVTZ
    Blend: AUG-CC-PVTZ
  Basis Set: (AUG-CC-PVTZ AUX)
    Blend: AUG-CC-PVTZ-JKFIT
	 Reference Energy          =    -321.4284230875913408 [Eh]
	 Singles Energy            =      -0.0000000000000000 [Eh]
	 Same-Spin Energy          =      -0.3256960946282716 [Eh]
	 Opposite-Spin Energy      =      -1.0067116754708469 [Eh]
	 Correlation Energy        =      -1.3324077700991186 [Eh]
	 Total Energy              =    -322.7608308576904506 [Eh]

	 ================> DF-SCS-MP2 Energies <==================
	-----------------------------------------------------------
	 SCS Same-Spin Scale       =       0.3333333333333333 [-]
	 SCS Opposite-Spin Scale   =       1.2000000000000000 [-]
	 SCS Same-Spin Energy      =      -0.1085653648760905 [Eh]
	 SCS Opposite-Spin Energy  =      -1.2080540105650164 [Eh]
	 SCS Correlation Energy    =      -1.3166193754411069 [Eh]
	 SCS Total Energy          =    -322.7450424630324619 [Eh]
	-----------------------------------------------------------

  Dipole Moment: [D]
     X:     4.3277      Y:    -0.1384      Z:    -0.2277     Total:     4.3359

*** Psi4 exiting successfully. Buy a developer a beer!
