                               Psi4 1.3.2 release

  ==> Input File <==

--------------------------------------------------------------------------
#psi4
#
memory 32 gb

molecule  {
-1 1
  O       -1.4366360    -1.1870470     0.0571230
  O       -1.4283481     1.0793864    -0.2069491
  N        1.2636070     1.2939420     0.0706720
  C        0.6174004     0.0361407     0.3906427
  C        1.4068670    -1.1350240    -0.2248910
  C       -0.8878250    -0.0451320     0.0288030
  H        0.6585810    -0.1007720     1.4894850
  H        2.4544500    -1.1027320     0.0899700
  H        0.9700140    -2.0919800     0.0583780
  H        1.3764410    -1.0627810    -1.3188240
  H        0.5133110     1.9810410     0.1712720
  H        1.4338170     1.2887330    -0.9390950
units angstrom
no_reorient  #important for SAPT in psi4, default
symmetry c1  #important for SAPT in psi4, default
}

set PROPERTIES_ORIGIN ["COM"]
properties('MP2/aug-cc-pvtz', properties = ['dipole'])
--------------------------------------------------------------------------

    Molecular point group: c1
  Charge       = -1
  Multiplicity = 1
  Basis Set: AUG-CC-PVTZ
    Blend: AUG-CC-PVTZ
  Basis Set: (AUG-CC-PVTZ AUX)
    Blend: AUG-CC-PVTZ-JKFIT

    Orbital Energies [Eh]
    ---------------------

    Doubly Occupied:

       1A    -20.302292     2A    -20.299932     3A    -15.385667
       4A    -11.141464     5A    -11.092348     6A    -11.070769
       7A     -1.170335     8A     -1.071392     9A     -1.027175
      10A     -0.837136    11A     -0.693325    12A     -0.539461
      13A     -0.502983    14A     -0.460461    15A     -0.442776
      16A     -0.400847    17A     -0.387247    18A     -0.370483
      19A     -0.348744    20A     -0.315351    21A     -0.279892
      22A     -0.216423    23A     -0.201483    24A     -0.193156

  @DF-RHF Final Energy:  -321.42778102143313

   => Energetics <=

    Nuclear Repulsion Energy =            238.1528599926364222
    One-Electron Energy =                -921.6589977108917537
    Two-Electron Energy =                 362.0783566968221976
    Total Energy =                       -321.4277810214331339
  Basis Set: (AUG-CC-PVTZ AUX)
    Blend: AUG-CC-PVTZ-RI
    Molecular point group: c1

    Geometry (in Angstrom), charge = -1, multiplicity = 1:

       Center              X                  Y                   Z               Mass
    ------------   -----------------  -----------------  -----------------  -----------------
         O           -1.356798134934    -1.204901997936     0.051722037070    15.994914619570
         O           -1.348510234934     1.061531402064    -0.212350062930    15.994914619570
         N            1.343444865066     1.276087002064     0.065271037070    14.003074004430
         C            0.697238265066     0.018285702064     0.385241737070    12.000000000000
         C            1.486704865066    -1.152878997936    -0.230291962930    12.000000000000
         C           -0.807987134934    -0.062986997936     0.023402037070    12.000000000000
         H            0.738418865066    -0.118626997936     1.484084037070     1.007825032230
         H            2.534287865066    -1.120586997936     0.084569037070     1.007825032230
         H            1.049851865066    -2.109834997936     0.052977037070     1.007825032230
         H            1.456278865066    -1.080635997936    -1.324224962930     1.007825032230
         H            0.593148865066     1.963186002064     0.165871037070     1.007825032230
         H            1.513654865066     1.270878002064    -0.944495962930     1.007825032230

  Basis Set: AUG-CC-PVTZ
    Blend: AUG-CC-PVTZ
  Basis Set: (AUG-CC-PVTZ AUX)
    Blend: AUG-CC-PVTZ-JKFIT
	 Reference Energy          =    -321.4277810214331339 [Eh]
	 Singles Energy            =      -0.0000000000000000 [Eh]
	 Same-Spin Energy          =      -0.3256868752332314 [Eh]
	 Opposite-Spin Energy      =      -1.0065450251056145 [Eh]
	 Correlation Energy        =      -1.3322319003388459 [Eh]
	 Total Energy              =    -322.7600129217719882 [Eh]

	 ================> DF-SCS-MP2 Energies <==================
	-----------------------------------------------------------
	 SCS Same-Spin Scale       =       0.3333333333333333 [-]
	 SCS Opposite-Spin Scale   =       1.2000000000000000 [-]
	 SCS Same-Spin Energy      =      -0.1085622917444105 [Eh]
	 SCS Opposite-Spin Energy  =      -1.2078540301267373 [Eh]
	 SCS Correlation Energy    =      -1.3164163218711478 [Eh]
	 SCS Total Energy          =    -322.7441973433042790 [Eh]
	-----------------------------------------------------------

  Dipole Moment: [D]
     X:     4.4086      Y:    -0.0670      Z:    -0.2298     Total:     4.4151

*** Psi4 exiting successfully. Buy a developer a beer!
