                               Psi4 1.3.2 release

  ==> Input File <==

--------------------------------------------------------------------------
#psi4
#
memory 32 gb

molecule  {
-1 1
  O       -1.4366360    -1.1870470     0.0571230
  O       -1.4476160     1.0691130    -0.2107340
  N        1.2727077     1.2876570     0.0641117
  C        0.6179830     0.0092170     0.3932550
  C        1.4155064    -1.1262821    -0.2299049
  C       -0.8878250    -0.0451320     0.0288030
  H        0.6585810    -0.1007720     1.4894850
  H        2.4544500    -1.1027320     0.0899700
  H        0.9700140    -2.0919800     0.0583780
  H        1.3764410    -1.0627810    -1.3188240
  H        0.5133110     1.9810410     0.1712720
  H        1.4338170     1.2887330    -0.9390950
units angstrom
no_reorient  #important for SAPT in psi4, default
symmetry c1  #important for SAPT in psi4, default
}

set PROPERTIES_ORIGIN ["COM"]
properties('MP2/aug-cc-pvtz', properties = ['dipole'])
--------------------------------------------------------------------------

    Molecular point group: c1
  Charge       = -1
  Multiplicity = 1
  Basis Set: AUG-CC-PVTZ
    Blend: AUG-CC-PVTZ
  Basis Set: (AUG-CC-PVTZ AUX)
    Blend: AUG-CC-PVTZ-JKFIT

    Orbital Energies [Eh]
    ---------------------

    Doubly Occupied:

       1A    -20.302595     2A    -20.298589     3A    -15.385792
       4A    -11.141715     5A    -11.093484     6A    -11.070836
       7A     -1.170311     8A     -1.069425     9A     -1.021772
      10A     -0.841154    11A     -0.694947    12A     -0.539431
      13A     -0.498744    14A     -0.461598    15A     -0.442404
      16A     -0.400735    17A     -0.387296    18A     -0.373294
      19A     -0.343743    20A     -0.319576    21A     -0.279538
      22A     -0.215936    23A     -0.200623    24A     -0.194301

  @DF-RHF Final Energy:  -321.42790370245757

   => Energetics <=

    Nuclear Repulsion Energy =            237.9033265356935658
    One-Electron Energy =                -921.1667827002288504
    Two-Electron Energy =                 361.8355524620776578
    Total Energy =                       -321.4279037024575700
  Basis Set: (AUG-CC-PVTZ AUX)
    Blend: AUG-CC-PVTZ-RI
    Molecular point group: c1

    Geometry (in Angstrom), charge = -1, multiplicity = 1:

       Center              X                  Y                   Z               Mass
    ------------   -----------------  -----------------  -----------------  -----------------
         O           -1.356002056373    -1.199557678771     0.053780453931    15.994914619570
         O           -1.366982056373     1.056602321229    -0.214076546069    15.994914619570
         N            1.353341643627     1.275146321229     0.060769153931    14.003074004430
         C            0.698616943627    -0.003293678771     0.389912453931    12.000000000000
         C            1.496140343627    -1.138792778771    -0.233247446069    12.000000000000
         C           -0.807191056373    -0.057642678771     0.025460453931    12.000000000000
         H            0.739214943627    -0.113282678771     1.486142453931     1.007825032230
         H            2.535083943627    -1.115242678771     0.086627453931     1.007825032230
         H            1.050647943627    -2.104490678771     0.055035453931     1.007825032230
         H            1.457074943627    -1.075291678771    -1.322166546069     1.007825032230
         H            0.593944943627     1.968530321229     0.167929453931     1.007825032230
         H            1.514450943627     1.276222321229    -0.942437546069     1.007825032230

  Basis Set: AUG-CC-PVTZ
    Blend: AUG-CC-PVTZ
  Basis Set: (AUG-CC-PVTZ AUX)
    Blend: AUG-CC-PVTZ-JKFIT
	 Reference Energy          =    -321.4279037024575700 [Eh]
	 Singles Energy            =      -0.0000000000000000 [Eh]
	 Same-Spin Energy          =      -0.3256713172288101 [Eh]
	 Opposite-Spin Energy      =      -1.0067457633814370 [Eh]
	 Correlation Energy        =      -1.3324170806102471 [Eh]
	 Total Energy              =    -322.7603207830678116 [Eh]

	 ================> DF-SCS-MP2 Energies <==================
	-----------------------------------------------------------
	 SCS Same-Spin Scale       =       0.3333333333333333 [-]
	 SCS Opposite-Spin Scale   =       1.2000000000000000 [-]
	 SCS Same-Spin Energy      =      -0.1085571057429367 [Eh]
	 SCS Opposite-Spin Energy  =      -1.2080949160577243 [Eh]
	 SCS Correlation Energy    =      -1.3166520218006610 [Eh]
	 SCS Total Energy          =    -322.7445557242582481 [Eh]
	-----------------------------------------------------------

  Dipole Moment: [D]
     X:     4.4429      Y:    -0.1220      Z:    -0.2144     Total:     4.4497

*** Psi4 exiting successfully. Buy a developer a beer!
