                               Psi4 1.3.2 release

  ==> Input File <==

--------------------------------------------------------------------------
#psi4
#
memory 32 gb

molecule  {
-1 1
  O       -1.4560460    -1.1776249     0.0522581
  O       -1.4669768     1.0586261    -0.2132445
  N        1.2636070     1.2939420     0.0706720
  C        0.6179830     0.0092170     0.3932550
  C        1.4068670    -1.1350240    -0.2248910
  C       -0.8878250    -0.0451320     0.0288030
  H        0.6585810    -0.1007720     1.4894850
  H        2.4544500    -1.1027320     0.0899700
  H        0.9700140    -2.0919800     0.0583780
  H        1.3764410    -1.0627810    -1.3188240
  H        0.5133110     1.9810410     0.1712720
  H        1.4338170     1.2887330    -0.9390950
units angstrom
no_reorient  #important for SAPT in psi4, default
symmetry c1  #important for SAPT in psi4, default
}

set PROPERTIES_ORIGIN ["COM"]
properties('MP2/aug-cc-pvtz', properties = ['dipole'])
--------------------------------------------------------------------------

    Molecular point group: c1
  Charge       = -1
  Multiplicity = 1
  Basis Set: AUG-CC-PVTZ
    Blend: AUG-CC-PVTZ
  Basis Set: (AUG-CC-PVTZ AUX)
    Blend: AUG-CC-PVTZ-JKFIT

    Orbital Energies [Eh]
    ---------------------

    Doubly Occupied:

       1A    -20.300224     2A    -20.296308     3A    -15.387528
       4A    -11.140284     5A    -11.095870     6A    -11.072808
       7A     -1.169680     8A     -1.065356     9A     -1.023490
      10A     -0.843631    11A     -0.695944    12A     -0.539785
      13A     -0.502504    14A     -0.460267    15A     -0.442701
      16A     -0.398871    17A     -0.388018    18A     -0.371982
      19A     -0.349352    20A     -0.319304    21A     -0.279914
      22A     -0.213035    23A     -0.198352    24A     -0.194612

  @DF-RHF Final Energy:  -321.42797343803244

   => Energetics <=

    Nuclear Repulsion Energy =            237.7160169247310080
    One-Electron Energy =                -920.7883388297281044
    Two-Electron Energy =                 361.6443484669646864
    Total Energy =                       -321.4279734380324385
  Basis Set: (AUG-CC-PVTZ AUX)
    Blend: AUG-CC-PVTZ-RI
    Molecular point group: c1

    Geometry (in Angstrom), charge = -1, multiplicity = 1:

       Center              X                  Y                   Z               Mass
    ------------   -----------------  -----------------  -----------------  -----------------
         O           -1.365743182811    -1.189750243453     0.048528657863    15.994914619570
         O           -1.376673982811     1.046500756547    -0.216973942137    15.994914619570
         N            1.353909817189     1.281816656547     0.066942557863    14.003074004430
         C            0.708285817189    -0.002908343453     0.389525557863    12.000000000000
         C            1.497169817189    -1.147149343453    -0.228620442137    12.000000000000
         C           -0.797522182811    -0.057257343453     0.025073557863    12.000000000000
         H            0.748883817189    -0.112897343453     1.485755557863     1.007825032230
         H            2.544752817189    -1.114857343453     0.086240557863     1.007825032230
         H            1.060316817189    -2.104105343453     0.054648557863     1.007825032230
         H            1.466743817189    -1.074906343453    -1.322553442137     1.007825032230
         H            0.603613817189     1.968915656547     0.167542557863     1.007825032230
         H            1.524119817189     1.276607656547    -0.942824442137     1.007825032230

  Basis Set: AUG-CC-PVTZ
    Blend: AUG-CC-PVTZ
  Basis Set: (AUG-CC-PVTZ AUX)
    Blend: AUG-CC-PVTZ-JKFIT
	 Reference Energy          =    -321.4279734380324385 [Eh]
	 Singles Energy            =      -0.0000000000000000 [Eh]
	 Same-Spin Energy          =      -0.3254896003894467 [Eh]
	 Opposite-Spin Energy      =      -1.0064798432961388 [Eh]
	 Correlation Energy        =      -1.3319694436855856 [Eh]
	 Total Energy              =    -322.7599428817180183 [Eh]

	 ================> DF-SCS-MP2 Energies <==================
	-----------------------------------------------------------
	 SCS Same-Spin Scale       =       0.3333333333333333 [-]
	 SCS Opposite-Spin Scale   =       1.2000000000000000 [-]
	 SCS Same-Spin Energy      =      -0.1084965334631489 [Eh]
	 SCS Opposite-Spin Energy  =      -1.2077758119553665 [Eh]
	 SCS Correlation Energy    =      -1.3162723454185155 [Eh]
	 SCS Total Energy          =    -322.7442457834509355 [Eh]
	-----------------------------------------------------------

  Dipole Moment: [D]
     X:     4.5713      Y:    -0.1296      Z:    -0.1962     Total:     4.5774

*** Psi4 exiting successfully. Buy a developer a beer!
