                               Psi4 1.3.2 release

  ==> Input File <==

--------------------------------------------------------------------------
#psi4
#
memory 32 gb

molecule  {
-1 1
  O       -1.4747552    -1.1681709     0.0449885
  O       -1.4476160     1.0691130    -0.2107340
  N        1.2636070     1.2939420     0.0706720
  C        0.6169983     0.0627346     0.3853257
  C        1.4068670    -1.1350240    -0.2248910
  C       -0.8878250    -0.0451320     0.0288030
  H        0.6585810    -0.1007720     1.4894850
  H        2.4544500    -1.1027320     0.0899700
  H        0.9700140    -2.0919800     0.0583780
  H        1.3764410    -1.0627810    -1.3188240
  H        0.5133110     1.9810410     0.1712720
  H        1.4338170     1.2887330    -0.9390950
units angstrom
no_reorient  #important for SAPT in psi4, default
symmetry c1  #important for SAPT in psi4, default
}

set PROPERTIES_ORIGIN ["COM"]
properties('MP2/aug-cc-pvtz', properties = ['dipole'])
--------------------------------------------------------------------------

    Molecular point group: c1
  Charge       = -1
  Multiplicity = 1
  Basis Set: AUG-CC-PVTZ
    Blend: AUG-CC-PVTZ
  Basis Set: (AUG-CC-PVTZ AUX)
    Blend: AUG-CC-PVTZ-JKFIT

    Orbital Energies [Eh]
    ---------------------

    Doubly Occupied:

       1A    -20.298413     2A    -20.297527     3A    -15.389098
       4A    -11.139591     5A    -11.096521     6A    -11.072886
       7A     -1.169771     8A     -1.066501     9A     -1.036404
      10A     -0.835709    11A     -0.695067    12A     -0.541936
      13A     -0.507368    14A     -0.459177    15A     -0.446097
      16A     -0.399631    17A     -0.387614    18A     -0.370056
      19A     -0.350769    20A     -0.312601    21A     -0.281677
      22A     -0.211735    23A     -0.198215    24A     -0.194235

  @DF-RHF Final Energy:  -321.42472601890233

   => Energetics <=

    Nuclear Repulsion Energy =            237.9313670030575736
    One-Electron Energy =                -921.1949880095933167
    Two-Electron Energy =                 361.8388949876333527
    Total Energy =                       -321.4247260189023336
  Basis Set: (AUG-CC-PVTZ AUX)
    Blend: AUG-CC-PVTZ-RI
    Molecular point group: c1

    Geometry (in Angstrom), charge = -1, multiplicity = 1:

       Center              X                  Y                   Z               Mass
    ------------   -----------------  -----------------  -----------------  -----------------
         O           -1.384436547782    -1.191213619566     0.043204460899    15.994914619570
         O           -1.357297347782     1.046070280434    -0.212518039101    15.994914619570
         N            1.353925652218     1.270899280434     0.068887960899    14.003074004430
         C            0.707316952218     0.039691880434     0.383541660899    12.000000000000
         C            1.497185652218    -1.158066719566    -0.226675039101    12.000000000000
         C           -0.797506347782    -0.068174719566     0.027018960899    12.000000000000
         H            0.748899652218    -0.123814719566     1.487700960899     1.007825032230
         H            2.544768652218    -1.125774719566     0.088185960899     1.007825032230
         H            1.060332652218    -2.115022719566     0.056593960899     1.007825032230
         H            1.466759652218    -1.085823719566    -1.320608039101     1.007825032230
         H            0.603629652218     1.957998280434     0.169487960899     1.007825032230
         H            1.524135652218     1.265690280434    -0.940879039101     1.007825032230

  Basis Set: AUG-CC-PVTZ
    Blend: AUG-CC-PVTZ
  Basis Set: (AUG-CC-PVTZ AUX)
    Blend: AUG-CC-PVTZ-JKFIT
	 Reference Energy          =    -321.4247260189023336 [Eh]
	 Singles Energy            =      -0.0000000000000000 [Eh]
	 Same-Spin Energy          =      -0.3256848335496089 [Eh]
	 Opposite-Spin Energy      =      -1.0064409279424256 [Eh]
	 Correlation Energy        =      -1.3321257614920343 [Eh]
	 Total Energy              =    -322.7568517803943564 [Eh]

	 ================> DF-SCS-MP2 Energies <==================
	-----------------------------------------------------------
	 SCS Same-Spin Scale       =       0.3333333333333333 [-]
	 SCS Opposite-Spin Scale   =       1.2000000000000000 [-]
	 SCS Same-Spin Energy      =      -0.1085616111832030 [Eh]
	 SCS Opposite-Spin Energy  =      -1.2077291135309107 [Eh]
	 SCS Correlation Energy    =      -1.3162907247141136 [Eh]
	 SCS Total Energy          =    -322.7410167436164556 [Eh]
	-----------------------------------------------------------

  Dipole Moment: [D]
     X:     4.6079      Y:     0.0074      Z:    -0.2160     Total:     4.6129

*** Psi4 exiting successfully. Buy a developer a beer!
