                               Psi4 1.3.2 release

  ==> Input File <==

--------------------------------------------------------------------------
#psi4
#
memory 32 gb

molecule  {
-1 1
  O       -1.4366360    -1.1870470     0.0571230
  O       -1.4476160     1.0691130    -0.2107340
  N        1.2636070     1.2939420     0.0706720
  C        0.6629247    -0.0144052     0.3850232
  C        1.4068670    -1.1350240    -0.2248910
  C       -0.8878250    -0.0451320     0.0288030
  H        0.6585810    -0.1007720     1.4894850
  H        2.4544500    -1.1027320     0.0899700
  H        0.9700140    -2.0919800     0.0583780
  H        1.3764410    -1.0627810    -1.3188240
  H        0.5364385     2.0066856     0.1622801
  H        1.4338170     1.2887330    -0.9390950
units angstrom
no_reorient  #important for SAPT in psi4, default
symmetry c1  #important for SAPT in psi4, default
}

set PROPERTIES_ORIGIN ["COM"]
properties('MP2/aug-cc-pvtz', properties = ['dipole'])
--------------------------------------------------------------------------

    Molecular point group: c1
  Charge       = -1
  Multiplicity = 1
  Basis Set: AUG-CC-PVTZ
    Blend: AUG-CC-PVTZ
  Basis Set: (AUG-CC-PVTZ AUX)
    Blend: AUG-CC-PVTZ-JKFIT

    Orbital Energies [Eh]
    ---------------------

    Doubly Occupied:

       1A    -20.302226     2A    -20.297759     3A    -15.385304
       4A    -11.142079     5A    -11.093160     6A    -11.070470
       7A     -1.168001     8A     -1.067941     9A     -1.021393
      10A     -0.850670    11A     -0.686851    12A     -0.535402
      13A     -0.503780    14A     -0.461520    15A     -0.441330
      16A     -0.398387    17A     -0.385987    18A     -0.372781
      19A     -0.357347    20A     -0.321428    21A     -0.277993
      22A     -0.214308    23A     -0.199467    24A     -0.186572

  @DF-RHF Final Energy:  -321.42569064165957

   => Energetics <=

    Nuclear Repulsion Energy =            237.6549040626200338
    One-Electron Energy =                -920.6768768606710864
    Two-Electron Energy =                 361.5962821563914531
    Total Energy =                       -321.4256906416595712
  Basis Set: (AUG-CC-PVTZ AUX)
    Blend: AUG-CC-PVTZ-RI
    Molecular point group: c1

    Geometry (in Angstrom), charge = -1, multiplicity = 1:

       Center              X                  Y                   Z               Mass
    ------------   -----------------  -----------------  -----------------  -----------------
         O           -1.359767377247    -1.196439606678     0.053278552772    15.994914619570
         O           -1.370747377247     1.059720393322    -0.214578447228    15.994914619570
         N            1.340475622753     1.284549393322     0.066827552772    14.003074004430
         C            0.739793322753    -0.023797806678     0.381178752772    12.000000000000
         C            1.483735622753    -1.144416606678    -0.228735447228    12.000000000000
         C           -0.810956377247    -0.054524606678     0.024958552772    12.000000000000
         H            0.735449622753    -0.110164606678     1.485640552772     1.007825032230
         H            2.531318622753    -1.112124606678     0.086125552772     1.007825032230
         H            1.046882622753    -2.101372606678     0.054533552772     1.007825032230
         H            1.453309622753    -1.072173606678    -1.322668447228     1.007825032230
         H            0.613307122753     1.997292993322     0.158435652772     1.007825032230
         H            1.510685622753     1.279340393322    -0.942939447228     1.007825032230

  Basis Set: AUG-CC-PVTZ
    Blend: AUG-CC-PVTZ
  Basis Set: (AUG-CC-PVTZ AUX)
    Blend: AUG-CC-PVTZ-JKFIT
	 Reference Energy          =    -321.4256906416595712 [Eh]
	 Singles Energy            =      -0.0000000000000000 [Eh]
	 Same-Spin Energy          =      -0.3257917517211852 [Eh]
	 Opposite-Spin Energy      =      -1.0066667901577286 [Eh]
	 Correlation Energy        =      -1.3324585418789139 [Eh]
	 Total Energy              =    -322.7581491835384782 [Eh]

	 ================> DF-SCS-MP2 Energies <==================
	-----------------------------------------------------------
	 SCS Same-Spin Scale       =       0.3333333333333333 [-]
	 SCS Opposite-Spin Scale   =       1.2000000000000000 [-]
	 SCS Same-Spin Energy      =      -0.1085972505737284 [Eh]
	 SCS Opposite-Spin Energy  =      -1.2080001481892744 [Eh]
	 SCS Correlation Energy    =      -1.3165973987630029 [Eh]
	 SCS Total Energy          =    -322.7422880404225793 [Eh]
	-----------------------------------------------------------

  Dipole Moment: [D]
     X:     4.4766      Y:    -0.1577      Z:    -0.2468     Total:     4.4861

*** Psi4 exiting successfully. Buy a developer a beer!
