                               Psi4 1.3.2 release

  ==> Input File <==

--------------------------------------------------------------------------
#psi4
#
memory 32 gb

molecule  {
-1 1
  O       -1.4366360    -1.1870470     0.0571230
  O       -1.4476160     1.0691130    -0.2107340
  N        1.2758700     1.3044064     0.1461160
  C        0.6179830     0.0092170     0.3932550
  C        1.4068670    -1.1350240    -0.2248910
  C       -0.8878250    -0.0451320     0.0288030
  H        0.6855686    -0.0498166     1.4920786
  H        2.4544500    -1.1027320     0.0899700
  H        0.9700140    -2.0919800     0.0583780
  H        1.3764410    -1.0627810    -1.3188240
  H        0.5133110     1.9810410     0.1712720
  H        1.4338170     1.2887330    -0.9390950
units angstrom
no_reorient  #important for SAPT in psi4, default
symmetry c1  #important for SAPT in psi4, default
}

set PROPERTIES_ORIGIN ["COM"]
properties('MP2/aug-cc-pvtz', properties = ['dipole'])
--------------------------------------------------------------------------

    Molecular point group: c1
  Charge       = -1
  Multiplicity = 1
  Basis Set: AUG-CC-PVTZ
    Blend: AUG-CC-PVTZ
  Basis Set: (AUG-CC-PVTZ AUX)
    Blend: AUG-CC-PVTZ-JKFIT

    Orbital Energies [Eh]
    ---------------------

    Doubly Occupied:

       1A    -20.303785     2A    -20.299750     3A    -15.395757
       4A    -11.143442     5A    -11.093647     6A    -11.072828
       7A     -1.171343     8A     -1.070463     9A     -1.018969
      10A     -0.840690    11A     -0.691809    12A     -0.543182
      13A     -0.494010    14A     -0.462901    15A     -0.429920
      16A     -0.397403    17A     -0.389175    18A     -0.369169
      19A     -0.349416    20A     -0.317574    21A     -0.283679
      22A     -0.217097    23A     -0.201466    24A     -0.197697

  @DF-RHF Final Energy:  -321.41994085766737

   => Energetics <=

    Nuclear Repulsion Energy =            237.4460819457547700
    One-Electron Energy =                -920.2217046123718092
    Two-Electron Energy =                 361.3556818089496119
    Total Energy =                       -321.4199408576673704
  Basis Set: (AUG-CC-PVTZ AUX)
    Blend: AUG-CC-PVTZ-RI
    Molecular point group: c1

    Geometry (in Angstrom), charge = -1, multiplicity = 1:

       Center              X                  Y                   Z               Mass
    ------------   -----------------  -----------------  -----------------  -----------------
         O           -1.355636402650    -1.201613502450     0.040024263646    15.994914619570
         O           -1.366616402650     1.054546497550    -0.227832736354    15.994914619570
         N            1.356869597350     1.289839897550     0.129017263646    14.003074004430
         C            0.698982597350    -0.005349502450     0.376156263646    12.000000000000
         C            1.487866597350    -1.149590502450    -0.241989736354    12.000000000000
         C           -0.806825402650    -0.059698502450     0.011704263646    12.000000000000
         H            0.766568197350    -0.064383102450     1.474979863646     1.007825032230
         H            2.535449597350    -1.117298502450     0.072871263646     1.007825032230
         H            1.051013597350    -2.106546502450     0.041279263646     1.007825032230
         H            1.457440597350    -1.077347502450    -1.335922736354     1.007825032230
         H            0.594310597350     1.966474497550     0.154173263646     1.007825032230
         H            1.514816597350     1.274166497550    -0.956193736354     1.007825032230

  Basis Set: AUG-CC-PVTZ
    Blend: AUG-CC-PVTZ
  Basis Set: (AUG-CC-PVTZ AUX)
    Blend: AUG-CC-PVTZ-JKFIT
	 Reference Energy          =    -321.4199408576673704 [Eh]
	 Singles Energy            =      -0.0000000000000000 [Eh]
	 Same-Spin Energy          =      -0.3261893228454191 [Eh]
	 Opposite-Spin Energy      =      -1.0085728150877058 [Eh]
	 Correlation Energy        =      -1.3347621379331249 [Eh]
	 Total Energy              =    -322.7547029956004963 [Eh]

	 ================> DF-SCS-MP2 Energies <==================
	-----------------------------------------------------------
	 SCS Same-Spin Scale       =       0.3333333333333333 [-]
	 SCS Opposite-Spin Scale   =       1.2000000000000000 [-]
	 SCS Same-Spin Energy      =      -0.1087297742818064 [Eh]
	 SCS Opposite-Spin Energy  =      -1.2102873781052470 [Eh]
	 SCS Correlation Energy    =      -1.3190171523870533 [Eh]
	 SCS Total Energy          =    -322.7389580100544322 [Eh]
	-----------------------------------------------------------

  Dipole Moment: [D]
     X:     4.4027      Y:    -0.1876      Z:    -0.2196     Total:     4.4121

*** Psi4 exiting successfully. Buy a developer a beer!
