                               Psi4 1.3.2 release

  ==> Input File <==

--------------------------------------------------------------------------
#psi4
#
memory 32 gb

molecule  {
-1 1
  O       -1.4366360    -1.1870470     0.0571230
  O       -1.4476160     1.0691130    -0.2107340
  N        1.2817584     1.2812746     0.0575764
  C        0.6179830     0.0092170     0.3932550
  C        1.4240850    -1.1174536    -0.2348714
  C       -0.8878250    -0.0451320     0.0288030
  H        0.6585810    -0.1007720     1.4894850
  H        2.4544500    -1.1027320     0.0899700
  H        0.9700140    -2.0919800     0.0583780
  H        1.3764410    -1.0627810    -1.3188240
  H        0.5133110     1.9810410     0.1712720
  H        1.4338170     1.2887330    -0.9390950
units angstrom
no_reorient  #important for SAPT in psi4, default
symmetry c1  #important for SAPT in psi4, default
}

set PROPERTIES_ORIGIN ["COM"]
properties('MP2/aug-cc-pvtz', properties = ['dipole'])
--------------------------------------------------------------------------

    Molecular point group: c1
  Charge       = -1
  Multiplicity = 1
  Basis Set: AUG-CC-PVTZ
    Blend: AUG-CC-PVTZ
  Basis Set: (AUG-CC-PVTZ AUX)
    Blend: AUG-CC-PVTZ-JKFIT

    Orbital Energies [Eh]
    ---------------------

    Doubly Occupied:

       1A    -20.302962     2A    -20.298843     3A    -15.385865
       4A    -11.142112     5A    -11.093590     6A    -11.070345
       7A     -1.170540     8A     -1.069629     9A     -1.021934
      10A     -0.840340    11A     -0.695582    12A     -0.540031
      13A     -0.496177    14A     -0.462358    15A     -0.443247
      16A     -0.401730    17A     -0.386701    18A     -0.374861
      19A     -0.339066    20A     -0.320129    21A     -0.280003
      22A     -0.216239    23A     -0.200891    24A     -0.194594

  @DF-RHF Final Energy:  -321.42649502915197

   => Energetics <=

    Nuclear Repulsion Energy =            237.8675593735217717
    One-Electron Energy =                -921.0925723939826639
    Two-Electron Energy =                 361.7985179913089269
    Total Energy =                       -321.4264950291519654
  Basis Set: (AUG-CC-PVTZ AUX)
    Blend: AUG-CC-PVTZ-RI
    Molecular point group: c1

    Geometry (in Angstrom), charge = -1, multiplicity = 1:

       Center              X                  Y                   Z               Mass
    ------------   -----------------  -----------------  -----------------  -----------------
         O           -1.358610884227    -1.199745875137     0.055496861713    15.994914619570
         O           -1.369590884227     1.056414124863    -0.212360138287    15.994914619570
         N            1.359783515773     1.268575724863     0.055950261713    14.003074004430
         C            0.696008115773    -0.003481875137     0.391628861713    12.000000000000
         C            1.502110115773    -1.130152475137    -0.236497538287    12.000000000000
         C           -0.809799884227    -0.057830875137     0.027176861713    12.000000000000
         H            0.736606115773    -0.113470875137     1.487858861713     1.007825032230
         H            2.532475115773    -1.115430875137     0.088343861713     1.007825032230
         H            1.048039115773    -2.104678875137     0.056751861713     1.007825032230
         H            1.454466115773    -1.075479875137    -1.320450138287     1.007825032230
         H            0.591336115773     1.968342124863     0.169645861713     1.007825032230
         H            1.511842115773     1.276034124863    -0.940721138287     1.007825032230

  Basis Set: AUG-CC-PVTZ
    Blend: AUG-CC-PVTZ
  Basis Set: (AUG-CC-PVTZ AUX)
    Blend: AUG-CC-PVTZ-JKFIT
	 Reference Energy          =    -321.4264950291519654 [Eh]
	 Singles Energy            =      -0.0000000000000000 [Eh]
	 Same-Spin Energy          =      -0.3257772302415762 [Eh]
	 Opposite-Spin Energy      =      -1.0069587374835371 [Eh]
	 Correlation Energy        =      -1.3327359677251134 [Eh]
	 Total Energy              =    -322.7592309968770792 [Eh]

	 ================> DF-SCS-MP2 Energies <==================
	-----------------------------------------------------------
	 SCS Same-Spin Scale       =       0.3333333333333333 [-]
	 SCS Opposite-Spin Scale   =       1.2000000000000000 [-]
	 SCS Same-Spin Energy      =      -0.1085924100805254 [Eh]
	 SCS Opposite-Spin Energy  =      -1.2083504849802444 [Eh]
	 SCS Correlation Energy    =      -1.3169428950607698 [Eh]
	 SCS Total Energy          =    -322.7434379242127420 [Eh]
	-----------------------------------------------------------

  Dipole Moment: [D]
     X:     4.4348      Y:    -0.1097      Z:    -0.2168     Total:     4.4414

*** Psi4 exiting successfully. Buy a developer a beer!
