                               Psi4 1.3.2 release

  ==> Input File <==

--------------------------------------------------------------------------
#psi4
#
memory 32 gb

molecule  {
-1 1
  O       -1.4366360    -1.1870470     0.0571230
  O       -1.4476160     1.0691130    -0.2107340
  N        1.2636070     1.2939420     0.0706720
  C        0.6179830     0.0092170     0.3932550
  C        1.4068670    -1.1350240    -0.2248910
  C       -0.7906910    -0.0416262     0.0523124
  H        0.6585810    -0.1007720     1.4894850
  H        2.4544500    -1.1027320     0.0899700
  H        0.9700140    -2.0919800     0.0583780
  H        1.3764410    -1.0627810    -1.3188240
  H        0.5133110     1.9810410     0.1712720
  H        1.4338170     1.2887330    -0.9390950
units angstrom
no_reorient  #important for SAPT in psi4, default
symmetry c1  #important for SAPT in psi4, default
}

set PROPERTIES_ORIGIN ["COM"]
properties('MP2/aug-cc-pvtz', properties = ['dipole'])
--------------------------------------------------------------------------

    Molecular point group: c1
  Charge       = -1
  Multiplicity = 1
  Basis Set: AUG-CC-PVTZ
    Blend: AUG-CC-PVTZ
  Basis Set: (AUG-CC-PVTZ AUX)
    Blend: AUG-CC-PVTZ-JKFIT

    Orbital Energies [Eh]
    ---------------------

    Doubly Occupied:

       1A    -20.300239     2A    -20.295733     3A    -15.391291
       4A    -11.146147     5A    -11.100658     6A    -11.078018
       7A     -1.146871     8A     -1.041744     9A     -1.025931
      10A     -0.854233    11A     -0.722815    12A     -0.553406
      13A     -0.508156    14A     -0.454746    15A     -0.449784
      16A     -0.396605    17A     -0.383086    18A     -0.374434
      19A     -0.344757    20A     -0.303854    21A     -0.276311
      22A     -0.219580    23A     -0.196564    24A     -0.186943

  @DF-RHF Final Energy:  -321.40704449729947

   => Energetics <=

    Nuclear Repulsion Energy =            238.0955926693572735
    One-Electron Energy =                -921.5014591851640944
    Two-Electron Energy =                 361.9988220185073260
    Total Energy =                       -321.4070444972994665
  Basis Set: (AUG-CC-PVTZ AUX)
    Blend: AUG-CC-PVTZ-RI
    Molecular point group: c1

    Geometry (in Angstrom), charge = -1, multiplicity = 1:

       Center              X                  Y                   Z               Mass
    ------------   -----------------  -----------------  -----------------  -----------------
         O           -1.366616538201    -1.199843641539     0.048849233019    15.994914619570
         O           -1.377596538201     1.056316358461    -0.219007766981    15.994914619570
         N            1.333626461799     1.281145358461     0.062398233019    14.003074004430
         C            0.688002461799    -0.003579641539     0.384981233019    12.000000000000
         C            1.476886461799    -1.147820641539    -0.233164766981    12.000000000000
         C           -0.720671538201    -0.054422841539     0.044038633019    12.000000000000
         H            0.728600461799    -0.113568641539     1.481211233019     1.007825032230
         H            2.524469461799    -1.115528641539     0.081696233019     1.007825032230
         H            1.040033461799    -2.104776641539     0.050104233019     1.007825032230
         H            1.446460461799    -1.075577641539    -1.327097766981     1.007825032230
         H            0.583330461799     1.968244358461     0.162998233019     1.007825032230
         H            1.503836461799     1.275936358461    -0.947368766981     1.007825032230

  Basis Set: AUG-CC-PVTZ
    Blend: AUG-CC-PVTZ
  Basis Set: (AUG-CC-PVTZ AUX)
    Blend: AUG-CC-PVTZ-JKFIT
	 Reference Energy          =    -321.4070444972994665 [Eh]
	 Singles Energy            =      -0.0000000000000000 [Eh]
	 Same-Spin Energy          =      -0.3279133800798065 [Eh]
	 Opposite-Spin Energy      =      -1.0116184327926034 [Eh]
	 Correlation Energy        =      -1.3395318128724099 [Eh]
	 Total Energy              =    -322.7465763101718608 [Eh]

	 ================> DF-SCS-MP2 Energies <==================
	-----------------------------------------------------------
	 SCS Same-Spin Scale       =       0.3333333333333333 [-]
	 SCS Opposite-Spin Scale   =       1.2000000000000000 [-]
	 SCS Same-Spin Energy      =      -0.1093044600266022 [Eh]
	 SCS Opposite-Spin Energy  =      -1.2139421193511242 [Eh]
	 SCS Correlation Energy    =      -1.3232465793777264 [Eh]
	 SCS Total Energy          =    -322.7302910766771902 [Eh]
	-----------------------------------------------------------

  Dipole Moment: [D]
     X:     4.9970      Y:    -0.1327      Z:    -0.1152     Total:     5.0000

*** Psi4 exiting successfully. Buy a developer a beer!
