                               Psi4 1.4a3.dev225

  ==> Input File <==

--------------------------------------------------------------------------
#psi4
#
memory 32 gb

molecule  {
-1 1
  O       -1.6933650     0.8030190    -0.4602720
  O       -1.1174780    -1.0749000     0.6904900
  N        1.4364130    -1.0622120    -0.3332000
  C        0.6126710     0.1580520    -0.4178300
  C        1.1716469     1.1852961     0.4844995
  C       -0.8738120    -0.0689040    -0.0451960
  H        0.6528320     0.5329630    -1.4473970
  H        2.2305690     1.4435080     0.2589170
  H        0.6009540     2.1390560     0.4596660
  H        1.1629700     0.8554330     1.5482090
  H        1.1631630    -1.6605680    -1.1160450
  H        1.0447980    -1.5551690     0.4751990
units angstrom
no_reorient  #important for SAPT in psi4, default
symmetry c1  #important for SAPT in psi4, default
}

set PROPERTIES_ORIGIN ["COM"]
properties('MP2/aug-cc-pvtz', properties = ['dipole'])
--------------------------------------------------------------------------

    Molecular point group: c1
  Charge       = -1
  Multiplicity = 1
  Basis Set: AUG-CC-PVTZ
    Blend: AUG-CC-PVTZ
  Basis Set: (AUG-CC-PVTZ AUX)
    Blend: AUG-CC-PVTZ-JKFIT

    Orbital Energies [Eh]
    ---------------------

    Doubly Occupied:

       1A    -20.302951     2A    -20.299023     3A    -15.387456
       4A    -11.140842     5A    -11.089777     6A    -11.072989
       7A     -1.170497     8A     -1.069953     9A     -1.023895
      10A     -0.849321    11A     -0.684923    12A     -0.545776
      13A     -0.507423    14A     -0.461819    15A     -0.423684
      16A     -0.408874    17A     -0.393269    18A     -0.361393
      19A     -0.342822    20A     -0.321459    21A     -0.282938
      22A     -0.216600    23A     -0.200768    24A     -0.193148

  @DF-RHF Final Energy:  -321.42594064258424

   => Energetics <=

    Nuclear Repulsion Energy =            238.9418566129252781
    One-Electron Energy =                -923.2323923313605292
    Two-Electron Energy =                 362.8645950758509571
    Total Energy =                       -321.4259406425842371
  Basis Set: (AUG-CC-PVTZ AUX)
    Blend: AUG-CC-PVTZ-RI
    Molecular point group: c1

    Geometry (in Angstrom), charge = -1, multiplicity = 1:

       Center              X                  Y                   Z               Mass
    ------------   -----------------  -----------------  -----------------  -----------------
         O           -1.613742007156     0.827560837193    -0.454071639238    15.994914619570
         O           -1.037855007156    -1.050358162807     0.696690360762    15.994914619570
         N            1.516035992844    -1.037670162807    -0.326999639238    14.003074004430
         C            0.692293992844     0.182593837193    -0.411629639238    12.000000000000
         C            1.251269892844     1.209837937193     0.490699860762    12.000000000000
         C           -0.794189007156    -0.044362162807    -0.038995639238    12.000000000000
         H            0.732454992844     0.557504837193    -1.441196639238     1.007825032230
         H            2.310191992844     1.468049837193     0.265117360762     1.007825032230
         H            0.680576992844     2.163597837193     0.465866360762     1.007825032230
         H            1.242592992844     0.879974837193     1.554409360762     1.007825032230
         H            1.242785992844    -1.636026162807    -1.109844639238     1.007825032230
         H            1.124420992844    -1.530627162807     0.481399360762     1.007825032230

  Basis Set: AUG-CC-PVTZ
    Blend: AUG-CC-PVTZ
  Basis Set: (AUG-CC-PVTZ AUX)
    Blend: AUG-CC-PVTZ-JKFIT
	 Reference Energy          =    -321.4259406425842371 [Eh]
	 Singles Energy            =      -0.0000000000000000 [Eh]
	 Same-Spin Energy          =      -0.3259813969087983 [Eh]
	 Opposite-Spin Energy      =      -1.0072301925639429 [Eh]
	 Correlation Energy        =      -1.3332115894727412 [Eh]
	 Total Energy              =    -322.7591522320569766 [Eh]

	 ================> DF-SCS-MP2 Energies <==================
	-----------------------------------------------------------
	 SCS Same-Spin Scale       =       0.3333333333333333 [-]
	 SCS Opposite-Spin Scale   =       1.2000000000000000 [-]
	 SCS Same-Spin Energy      =      -0.1086604656362661 [Eh]
	 SCS Opposite-Spin Energy  =      -1.2086762310767314 [Eh]
	 SCS Correlation Energy    =      -1.3173366967129976 [Eh]
	 SCS Total Energy          =    -322.7432773392972081 [Eh]
	-----------------------------------------------------------

  Dipole Moment: [D]
     X:     4.0846      Y:     0.2985      Z:    -0.7690     Total:     4.1671

*** Psi4 exiting successfully. Buy a developer a beer!
