                               Psi4 1.3.2 release

  ==> Input File <==

--------------------------------------------------------------------------
#psi4
#
memory 32 gb

molecule  {
-1 1
  O       -1.4366360    -1.1870470     0.0571230
  O       -1.4476160     1.0691130    -0.2107340
  N        1.2267197     1.3180991     0.0971539
  C        0.6179830     0.0092170     0.3932550
  C        1.3717155    -1.1691138    -0.2043684
  C       -0.8878250    -0.0451320     0.0288030
  H        0.6585810    -0.1007720     1.4894850
  H        2.4544500    -1.1027320     0.0899700
  H        0.9700140    -2.0919800     0.0583780
  H        1.3764410    -1.0627810    -1.3188240
  H        0.5133110     1.9810410     0.1712720
  H        1.4338170     1.2887330    -0.9390950
units angstrom
no_reorient  #important for SAPT in psi4, default
symmetry c1  #important for SAPT in psi4, default
}

set PROPERTIES_ORIGIN ["COM"]
properties('MP2/aug-cc-pvtz', properties = ['dipole'])
--------------------------------------------------------------------------

    Molecular point group: c1
  Charge       = -1
  Multiplicity = 1
  Basis Set: AUG-CC-PVTZ
    Blend: AUG-CC-PVTZ
  Basis Set: (AUG-CC-PVTZ AUX)
    Blend: AUG-CC-PVTZ-JKFIT

    Orbital Energies [Eh]
    ---------------------

    Doubly Occupied:

       1A    -20.300972     2A    -20.297520     3A    -15.385864
       4A    -11.139989     5A    -11.093761     6A    -11.074517
       7A     -1.169429     8A     -1.068688     9A     -1.022489
      10A     -0.846272    11A     -0.693368    12A     -0.539351
      13A     -0.510358    14A     -0.458225    15A     -0.438979
      16A     -0.402584    17A     -0.387474    18A     -0.368069
      19A     -0.358575    20A     -0.315731    21A     -0.277556
      22A     -0.214511    23A     -0.199444    24A     -0.193124

  @DF-RHF Final Energy:  -321.42248030329722

   => Energetics <=

    Nuclear Repulsion Energy =            238.1352979399011360
    One-Electron Energy =                -921.6018558958832045
    Two-Electron Energy =                 362.0440776526849049
    Total Energy =                       -321.4224803032972204
  Basis Set: (AUG-CC-PVTZ AUX)
    Blend: AUG-CC-PVTZ-RI
    Molecular point group: c1

    Geometry (in Angstrom), charge = -1, multiplicity = 1:

       Center              X                  Y                   Z               Mass
    ------------   -----------------  -----------------  -----------------  -----------------
         O           -1.342718706598    -1.198561568289     0.045044292501    15.994914619570
         O           -1.353698706598     1.057598431711    -0.222812707499    15.994914619570
         N            1.320636993402     1.306584531711     0.085075192501    14.003074004430
         C            0.711900293402    -0.002297568289     0.381176292501    12.000000000000
         C            1.465632793402    -1.180628368289    -0.216447107499    12.000000000000
         C           -0.793907706598    -0.056646568289     0.016724292501    12.000000000000
         H            0.752498293402    -0.112286568289     1.477406292501     1.007825032230
         H            2.548367293402    -1.114246568289     0.077891292501     1.007825032230
         H            1.063931293402    -2.103494568289     0.046299292501     1.007825032230
         H            1.470358293402    -1.074295568289    -1.330902707499     1.007825032230
         H            0.607228293402     1.969526431711     0.159193292501     1.007825032230
         H            1.527734293402     1.277218431711    -0.951173707499     1.007825032230

  Basis Set: AUG-CC-PVTZ
    Blend: AUG-CC-PVTZ
  Basis Set: (AUG-CC-PVTZ AUX)
    Blend: AUG-CC-PVTZ-JKFIT
	 Reference Energy          =    -321.4224803032972204 [Eh]
	 Singles Energy            =      -0.0000000000000000 [Eh]
	 Same-Spin Energy          =      -0.3253453362704969 [Eh]
	 Opposite-Spin Energy      =      -1.0062555217838121 [Eh]
	 Correlation Energy        =      -1.3316008580543091 [Eh]
	 Total Energy              =    -322.7540811613515075 [Eh]

	 ================> DF-SCS-MP2 Energies <==================
	-----------------------------------------------------------
	 SCS Same-Spin Scale       =       0.3333333333333333 [-]
	 SCS Opposite-Spin Scale   =       1.2000000000000000 [-]
	 SCS Same-Spin Energy      =      -0.1084484454234990 [Eh]
	 SCS Opposite-Spin Energy  =      -1.2075066261405745 [Eh]
	 SCS Correlation Energy    =      -1.3159550715640735 [Eh]
	 SCS Total Energy          =    -322.7384353748612966 [Eh]
	-----------------------------------------------------------

  Dipole Moment: [D]
     X:     4.4712      Y:    -0.1776      Z:    -0.1990     Total:     4.4792

*** Psi4 exiting successfully. Buy a developer a beer!
