                               Psi4 1.3.2 release

  ==> Input File <==

--------------------------------------------------------------------------
#psi4
#
memory 32 gb

molecule  {
-1 1
  O       -1.4366360    -1.1870470     0.0571230
  O       -1.4476160     1.0691130    -0.2107340
  N        1.2636070     1.2939420     0.0706720
  C        0.6179830     0.0092170     0.3932550
  C        1.4068670    -1.1350240    -0.2248910
  C       -0.9849590    -0.0486378     0.0052936
  H        0.6585810    -0.1007720     1.4894850
  H        2.4544500    -1.1027320     0.0899700
  H        0.9700140    -2.0919800     0.0583780
  H        1.3764410    -1.0627810    -1.3188240
  H        0.5133110     1.9810410     0.1712720
  H        1.4338170     1.2887330    -0.9390950
units angstrom
no_reorient  #important for SAPT in psi4, default
symmetry c1  #important for SAPT in psi4, default
}

set PROPERTIES_ORIGIN ["COM"]
properties('MP2/aug-cc-pvtz', properties = ['dipole'])
--------------------------------------------------------------------------

    Molecular point group: c1
  Charge       = -1
  Multiplicity = 1
  Basis Set: AUG-CC-PVTZ
    Blend: AUG-CC-PVTZ
  Basis Set: (AUG-CC-PVTZ AUX)
    Blend: AUG-CC-PVTZ-JKFIT

    Orbital Energies [Eh]
    ---------------------

    Doubly Occupied:

       1A    -20.307446     2A    -20.304000     3A    -15.379414
       4A    -11.140658     5A    -11.080866     6A    -11.064267
       7A     -1.194730     8A     -1.102824     9A     -1.012998
      10A     -0.830910    11A     -0.669876    12A     -0.526890
      13A     -0.495152    14A     -0.466412    15A     -0.434579
      16A     -0.414254    17A     -0.389639    18A     -0.376687
      19A     -0.344642    20A     -0.324231    21A     -0.281394
      22A     -0.228587    23A     -0.214836    24A     -0.169414

  @DF-RHF Final Energy:  -321.42693885136066

   => Energetics <=

    Nuclear Repulsion Energy =            237.8253164499144816
    One-Electron Energy =                -920.9950950665953542
    Two-Electron Energy =                 361.7428397653202410
    Total Energy =                       -321.4269388513606600
  Basis Set: (AUG-CC-PVTZ AUX)
    Blend: AUG-CC-PVTZ-RI
    Molecular point group: c1

    Geometry (in Angstrom), charge = -1, multiplicity = 1:

       Center              X                  Y                   Z               Mass
    ------------   -----------------  -----------------  -----------------  -----------------
         O           -1.340137439145    -1.198887947081     0.055257985169    15.994914619570
         O           -1.351117439145     1.057272052919    -0.212599014831    15.994914619570
         N            1.360105560855     1.282101052919     0.068806985169    14.003074004430
         C            0.714481560855    -0.002623947081     0.391389985169    12.000000000000
         C            1.503365560855    -1.146864947081    -0.226756014831    12.000000000000
         C           -0.888460439145    -0.060478747081     0.003428585169    12.000000000000
         H            0.755079560855    -0.112612947081     1.487619985169     1.007825032230
         H            2.550948560855    -1.114572947081     0.088104985169     1.007825032230
         H            1.066512560855    -2.103820947081     0.056512985169     1.007825032230
         H            1.472939560855    -1.074621947081    -1.320689014831     1.007825032230
         H            0.609809560855     1.969200052919     0.169406985169     1.007825032230
         H            1.530315560855     1.276892052919    -0.940960014831     1.007825032230

  Basis Set: AUG-CC-PVTZ
    Blend: AUG-CC-PVTZ
  Basis Set: (AUG-CC-PVTZ AUX)
    Blend: AUG-CC-PVTZ-JKFIT
	 Reference Energy          =    -321.4269388513606600 [Eh]
	 Singles Energy            =      -0.0000000000000000 [Eh]
	 Same-Spin Energy          =      -0.3245128102257157 [Eh]
	 Opposite-Spin Energy      =      -1.0038439082586192 [Eh]
	 Correlation Energy        =      -1.3283567184843350 [Eh]
	 Total Energy              =    -322.7552955698449750 [Eh]

	 ================> DF-SCS-MP2 Energies <==================
	-----------------------------------------------------------
	 SCS Same-Spin Scale       =       0.3333333333333333 [-]
	 SCS Opposite-Spin Scale   =       1.2000000000000000 [-]
	 SCS Same-Spin Energy      =      -0.1081709367419052 [Eh]
	 SCS Opposite-Spin Energy  =      -1.2046126899103431 [Eh]
	 SCS Correlation Energy    =      -1.3127836266522483 [Eh]
	 SCS Total Energy          =    -322.7397224780129363 [Eh]
	-----------------------------------------------------------

  Dipole Moment: [D]
     X:     3.7602      Y:    -0.1378      Z:    -0.3280     Total:     3.7770

*** Psi4 exiting successfully. Buy a developer a beer!
