                               Psi4 1.3.2 release

  ==> Input File <==

--------------------------------------------------------------------------
#psi4
#
memory 32 gb

molecule  {
-1 1
  O       -1.4366360    -1.1870470     0.0571230
  O       -1.4476160     1.0691130    -0.2107340
  N        1.2636070     1.2939420     0.0706720
  C        0.6291468     0.0031635     0.3912335
  C        1.4068670    -1.1350240    -0.2248910
  C       -0.8878250    -0.0451320     0.0288030
  H        0.6585810    -0.1007720     1.4894850
  H        2.4544500    -1.1027320     0.0899700
  H        0.9700140    -2.0919800     0.0583780
  H        1.3764410    -1.0627810    -1.3188240
  H        0.5190083     1.9875319     0.1690351
  H        1.4338170     1.2887330    -0.9390950
units angstrom
no_reorient  #important for SAPT in psi4, default
symmetry c1  #important for SAPT in psi4, default
}

set PROPERTIES_ORIGIN ["COM"]
properties('MP2/aug-cc-pvtz', properties = ['dipole'])
--------------------------------------------------------------------------

    Molecular point group: c1
  Charge       = -1
  Multiplicity = 1
  Basis Set: AUG-CC-PVTZ
    Blend: AUG-CC-PVTZ
  Basis Set: (AUG-CC-PVTZ AUX)
    Blend: AUG-CC-PVTZ-JKFIT

    Orbital Energies [Eh]
    ---------------------

    Doubly Occupied:

       1A    -20.302219     2A    -20.298186     3A    -15.385619
       4A    -11.141528     5A    -11.093301     6A    -11.071190
       7A     -1.169546     8A     -1.068894     9A     -1.021586
      10A     -0.844110    11A     -0.692487    12A     -0.538028
      13A     -0.501900    14A     -0.460989    15A     -0.441497
      16A     -0.399480    17A     -0.387462    18A     -0.371556
      19A     -0.350750    20A     -0.319840    21A     -0.278835
      22A     -0.215287    23A     -0.200078    24A     -0.192313

  @DF-RHF Final Energy:  -321.42839149590219

   => Energetics <=

    Nuclear Repulsion Energy =            237.8688790836745852
    One-Electron Energy =                -921.1011748388214073
    Two-Electron Energy =                 361.8039042592446890
    Total Energy =                       -321.4283914959021899
  Basis Set: (AUG-CC-PVTZ AUX)
    Blend: AUG-CC-PVTZ-RI
    Molecular point group: c1

    Geometry (in Angstrom), charge = -1, multiplicity = 1:

       Center              X                  Y                   Z               Mass
    ------------   -----------------  -----------------  -----------------  -----------------
         O           -1.354963855031    -1.198614994463     0.052354750029    15.994914619570
         O           -1.365943855031     1.057545005537    -0.215502249971    15.994914619570
         N            1.345279144969     1.282374005537     0.065903750029    14.003074004430
         C            0.710818944969    -0.008404494463     0.386465250029    12.000000000000
         C            1.488539144969    -1.146591994463    -0.229659249971    12.000000000000
         C           -0.806152855031    -0.056699994463     0.024034750029    12.000000000000
         H            0.740253144969    -0.112339994463     1.484716750029     1.007825032230
         H            2.536122144969    -1.114299994463     0.085201750029     1.007825032230
         H            1.051686144969    -2.103547994463     0.053609750029     1.007825032230
         H            1.458113144969    -1.074348994463    -1.323592249971     1.007825032230
         H            0.600680444969     1.975963905537     0.164266850029     1.007825032230
         H            1.515489144969     1.277165005537    -0.943863249971     1.007825032230

  Basis Set: AUG-CC-PVTZ
    Blend: AUG-CC-PVTZ
  Basis Set: (AUG-CC-PVTZ AUX)
    Blend: AUG-CC-PVTZ-JKFIT
	 Reference Energy          =    -321.4283914959021899 [Eh]
	 Singles Energy            =      -0.0000000000000000 [Eh]
	 Same-Spin Energy          =      -0.3256004716133026 [Eh]
	 Opposite-Spin Energy      =      -1.0065418507625110 [Eh]
	 Correlation Energy        =      -1.3321423223758138 [Eh]
	 Total Energy              =    -322.7605338182780201 [Eh]

	 ================> DF-SCS-MP2 Energies <==================
	-----------------------------------------------------------
	 SCS Same-Spin Scale       =       0.3333333333333333 [-]
	 SCS Opposite-Spin Scale   =       1.2000000000000000 [-]
	 SCS Same-Spin Energy      =      -0.1085334905377675 [Eh]
	 SCS Opposite-Spin Energy  =      -1.2078502209150133 [Eh]
	 SCS Correlation Energy    =      -1.3163837114527808 [Eh]
	 SCS Total Energy          =    -322.7447752073549623 [Eh]
	-----------------------------------------------------------

  Dipole Moment: [D]
     X:     4.4581      Y:    -0.1405      Z:    -0.2205     Total:     4.4658

*** Psi4 exiting successfully. Buy a developer a beer!
