                               Psi4 1.3.2 release

  ==> Input File <==

--------------------------------------------------------------------------
#psi4
#
memory 32 gb

molecule  {
-1 1
  O       -1.4463623    -1.1823792     0.0546915
  O       -1.4573181     1.0639118    -0.2119984
  N        1.2636070     1.2939420     0.0706720
  C        0.6179830     0.0092170     0.3932550
  C        1.4068670    -1.1350240    -0.2248910
  C       -0.8878250    -0.0451320     0.0288030
  H        0.6585810    -0.1007720     1.4894850
  H        2.4544500    -1.1027320     0.0899700
  H        0.9700140    -2.0919800     0.0583780
  H        1.3764410    -1.0627810    -1.3188240
  H        0.5133110     1.9810410     0.1712720
  H        1.4338170     1.2887330    -0.9390950
units angstrom
no_reorient  #important for SAPT in psi4, default
symmetry c1  #important for SAPT in psi4, default
}

set PROPERTIES_ORIGIN ["COM"]
properties('MP2/aug-cc-pvtz', properties = ['dipole'])
--------------------------------------------------------------------------

    Molecular point group: c1
  Charge       = -1
  Multiplicity = 1
  Basis Set: AUG-CC-PVTZ
    Blend: AUG-CC-PVTZ
  Basis Set: (AUG-CC-PVTZ AUX)
    Blend: AUG-CC-PVTZ-JKFIT

    Orbital Energies [Eh]
    ---------------------

    Doubly Occupied:

       1A    -20.301240     2A    -20.297335     3A    -15.386643
       4A    -11.140808     5A    -11.094655     6A    -11.072112
       7A     -1.169879     8A     -1.067309     9A     -1.022607
      10A     -0.842836    11A     -0.695175    12A     -0.539381
      13A     -0.501898    14A     -0.460572    15A     -0.442159
      16A     -0.399365    17A     -0.387978    18A     -0.371831
      19A     -0.348782    20A     -0.319117    21A     -0.279499
      22A     -0.214326    23A     -0.199281    24A     -0.194464

  @DF-RHF Final Energy:  -321.42832438113680

   => Energetics <=

    Nuclear Repulsion Energy =            237.8273905142523290
    One-Electron Energy =                -921.0129275948287386
    Two-Electron Energy =                 361.7572126994396058
    Total Energy =                       -321.4283243811368038
  Basis Set: (AUG-CC-PVTZ AUX)
    Blend: AUG-CC-PVTZ-RI
    Molecular point group: c1

    Geometry (in Angstrom), charge = -1, multiplicity = 1:

       Center              X                  Y                   Z               Mass
    ------------   -----------------  -----------------  -----------------  -----------------
         O           -1.359573573583    -1.194601087203     0.050293573239    15.994914619570
         O           -1.370529373583     1.051689912797    -0.216396326761    15.994914619570
         N            1.350395726417     1.281720112797     0.066274073239    14.003074004430
         C            0.704771726417    -0.003004887203     0.388857073239    12.000000000000
         C            1.493655726417    -1.147245887203    -0.229288926761    12.000000000000
         C           -0.801036273583    -0.057353887203     0.024405073239    12.000000000000
         H            0.745369726417    -0.112993887203     1.485087073239     1.007825032230
         H            2.541238726417    -1.114953887203     0.085572073239     1.007825032230
         H            1.056802726417    -2.104201887203     0.053980073239     1.007825032230
         H            1.463229726417    -1.075002887203    -1.323221926761     1.007825032230
         H            0.600099726417     1.968819112797     0.166874073239     1.007825032230
         H            1.520605726417     1.276511112797    -0.943492926761     1.007825032230

  Basis Set: AUG-CC-PVTZ
    Blend: AUG-CC-PVTZ
  Basis Set: (AUG-CC-PVTZ AUX)
    Blend: AUG-CC-PVTZ-JKFIT
	 Reference Energy          =    -321.4283243811368038 [Eh]
	 Singles Energy            =      -0.0000000000000000 [Eh]
	 Same-Spin Energy          =      -0.3255308139213480 [Eh]
	 Opposite-Spin Energy      =      -1.0065190161637263 [Eh]
	 Correlation Energy        =      -1.3320498300850743 [Eh]
	 Total Energy              =    -322.7603742112218583 [Eh]

	 ================> DF-SCS-MP2 Energies <==================
	-----------------------------------------------------------
	 SCS Same-Spin Scale       =       0.3333333333333333 [-]
	 SCS Opposite-Spin Scale   =       1.2000000000000000 [-]
	 SCS Same-Spin Energy      =      -0.1085102713071160 [Eh]
	 SCS Opposite-Spin Energy  =      -1.2078228193964715 [Eh]
	 SCS Correlation Energy    =      -1.3163330907035875 [Eh]
	 SCS Total Energy          =    -322.7446574718404122 [Eh]
	-----------------------------------------------------------

  Dipole Moment: [D]
     X:     4.5110      Y:    -0.1317      Z:    -0.2040     Total:     4.5175

*** Psi4 exiting successfully. Buy a developer a beer!
