                               Psi4 1.3.2 release

  ==> Input File <==

--------------------------------------------------------------------------
#psi4
#
memory 32 gb

molecule  {
-1 1
  O       -1.4366360    -1.1870470     0.0571230
  O       -1.4476160     1.0691130    -0.2107340
  N        1.2636070     1.2939420     0.0706720
  C        0.6617966     0.0964015     0.3713637
  C        1.4068670    -1.1350240    -0.2248910
  C       -0.8878250    -0.0451320     0.0288030
  H        0.6585810    -0.1007720     1.4894850
  H        2.4544500    -1.1027320     0.0899700
  H        0.9700140    -2.0919800     0.0583780
  H        1.3764410    -1.0627810    -1.3188240
  H        0.5133110     1.9810410     0.1712720
  H        1.4338170     1.2887330    -0.9390950
units angstrom
no_reorient  #important for SAPT in psi4, default
symmetry c1  #important for SAPT in psi4, default
}

set PROPERTIES_ORIGIN ["COM"]
properties('MP2/aug-cc-pvtz', properties = ['dipole'])
--------------------------------------------------------------------------

    Molecular point group: c1
  Charge       = -1
  Multiplicity = 1
  Basis Set: AUG-CC-PVTZ
    Blend: AUG-CC-PVTZ
  Basis Set: (AUG-CC-PVTZ AUX)
    Blend: AUG-CC-PVTZ-JKFIT

    Orbital Energies [Eh]
    ---------------------

    Doubly Occupied:

       1A    -20.300547     2A    -20.299088     3A    -15.389016
       4A    -11.140718     5A    -11.094359     6A    -11.070619
       7A     -1.168430     8A     -1.071107     9A     -1.051255
      10A     -0.832315    11A     -0.685052    12A     -0.541978
      13A     -0.514413    14A     -0.460156    15A     -0.448729
      16A     -0.399277    17A     -0.387420    18A     -0.367975
      19A     -0.355758    20A     -0.311106    21A     -0.281826
      22A     -0.213936    23A     -0.199746    24A     -0.183594

  @DF-RHF Final Energy:  -321.41811481784566

   => Energetics <=

    Nuclear Repulsion Energy =            238.0919430282245060
    One-Electron Energy =                -921.4832747570779929
    Two-Electron Energy =                 361.9732169110078530
    Total Energy =                       -321.4181148178456624
  Basis Set: (AUG-CC-PVTZ AUX)
    Blend: AUG-CC-PVTZ-RI
    Molecular point group: c1

    Geometry (in Angstrom), charge = -1, multiplicity = 1:

       Center              X                  Y                   Z               Mass
    ------------   -----------------  -----------------  -----------------  -----------------
         O           -1.359348865948    -1.211249208004     0.055037435052    15.994914619570
         O           -1.370328865948     1.044910791996    -0.212819564948    15.994914619570
         N            1.340894134052     1.269739791996     0.068586435052    14.003074004430
         C            0.739083734052     0.072199291996     0.369278135052    12.000000000000
         C            1.484154134052    -1.159226208004    -0.226976564948    12.000000000000
         C           -0.810537865948    -0.069334208004     0.026717435052    12.000000000000
         H            0.735868134052    -0.124974208004     1.487399435052     1.007825032230
         H            2.531737134052    -1.126934208004     0.087884435052     1.007825032230
         H            1.047301134052    -2.116182208004     0.056292435052     1.007825032230
         H            1.453728134052    -1.086983208004    -1.320909564948     1.007825032230
         H            0.590598134052     1.956838791996     0.169186435052     1.007825032230
         H            1.511104134052     1.264530791996    -0.941180564948     1.007825032230

  Basis Set: AUG-CC-PVTZ
    Blend: AUG-CC-PVTZ
  Basis Set: (AUG-CC-PVTZ AUX)
    Blend: AUG-CC-PVTZ-JKFIT
	 Reference Energy          =    -321.4181148178456624 [Eh]
	 Singles Energy            =      -0.0000000000000000 [Eh]
	 Same-Spin Energy          =      -0.3262079663934310 [Eh]
	 Opposite-Spin Energy      =      -1.0066210665124387 [Eh]
	 Correlation Energy        =      -1.3328290329058696 [Eh]
	 Total Energy              =    -322.7509438507515256 [Eh]

	 ================> DF-SCS-MP2 Energies <==================
	-----------------------------------------------------------
	 SCS Same-Spin Scale       =       0.3333333333333333 [-]
	 SCS Opposite-Spin Scale   =       1.2000000000000000 [-]
	 SCS Same-Spin Energy      =      -0.1087359887978103 [Eh]
	 SCS Opposite-Spin Energy  =      -1.2079452798149264 [Eh]
	 SCS Correlation Energy    =      -1.3166812686127367 [Eh]
	 SCS Total Energy          =    -322.7347960864584024 [Eh]
	-----------------------------------------------------------

  Dipole Moment: [D]
     X:     4.5450      Y:     0.1487      Z:    -0.3020     Total:     4.5574

*** Psi4 exiting successfully. Buy a developer a beer!
