                               Psi4 1.3.2 release

  ==> Input File <==

--------------------------------------------------------------------------
#psi4
#
memory 32 gb

molecule  {
-1 1
  O       -1.4366360    -1.1870470     0.0571230
  O       -1.4476160     1.0691130    -0.2107340
  N        1.2636070     1.2939420     0.0706720
  C        0.6848605     0.0330764     0.4293092
  C        1.4068670    -1.1350240    -0.2248910
  C       -0.8878250    -0.0451320     0.0288030
  H        0.6585810    -0.1007720     1.4894850
  H        2.4421873    -1.0559995     0.1207639
  H        0.9700140    -2.0919800     0.0583780
  H        1.3764410    -1.0627810    -1.3188240
  H        0.5133110     1.9810410     0.1712720
  H        1.4338170     1.2887330    -0.9390950
units angstrom
no_reorient  #important for SAPT in psi4, default
symmetry c1  #important for SAPT in psi4, default
}

set PROPERTIES_ORIGIN ["COM"]
properties('MP2/aug-cc-pvtz', properties = ['dipole'])
--------------------------------------------------------------------------

    Molecular point group: c1
  Charge       = -1
  Multiplicity = 1
  Basis Set: AUG-CC-PVTZ
    Blend: AUG-CC-PVTZ
  Basis Set: (AUG-CC-PVTZ AUX)
    Blend: AUG-CC-PVTZ-JKFIT

    Orbital Energies [Eh]
    ---------------------

    Doubly Occupied:

       1A    -20.301703     2A    -20.298424     3A    -15.385617
       4A    -11.141091     5A    -11.090152     6A    -11.070508
       7A     -1.166854     8A     -1.067820     9A     -1.031418
      10A     -0.840628    11A     -0.685708    12A     -0.535828
      13A     -0.506216    14A     -0.458501    15A     -0.447895
      16A     -0.397093    17A     -0.386963    18A     -0.373645
      19A     -0.354045    20A     -0.323328    21A     -0.281013
      22A     -0.213516    23A     -0.199317    24A     -0.179842

  @DF-RHF Final Energy:  -321.42318969175051

   => Energetics <=

    Nuclear Repulsion Energy =            237.4316912123872498
    One-Electron Energy =                -920.2355125147176977
    Two-Electron Energy =                 361.3806316105799397
    Total Energy =                       -321.4231896917505082
  Basis Set: (AUG-CC-PVTZ AUX)
    Blend: AUG-CC-PVTZ-RI
    Molecular point group: c1

    Geometry (in Angstrom), charge = -1, multiplicity = 1:

       Center              X                  Y                   Z               Mass
    ------------   -----------------  -----------------  -----------------  -----------------
         O           -1.362352143823    -1.203152840406     0.046786843587    15.994914619570
         O           -1.373332143823     1.053007159594    -0.221070156413    15.994914619570
         N            1.337890856177     1.277836159594     0.060335843587    14.003074004430
         C            0.759144356177     0.016970559594     0.418973043587    12.000000000000
         C            1.481150856177    -1.151129840406    -0.235227156413    12.000000000000
         C           -0.813541143823    -0.061237840406     0.018466843587    12.000000000000
         H            0.732864856177    -0.116877840406     1.479148843587     1.007825032230
         H            2.516471156177    -1.072105340406     0.110427743587     1.007825032230
         H            1.044297856177    -2.108085840406     0.048041843587     1.007825032230
         H            1.450724856177    -1.078886840406    -1.329160156413     1.007825032230
         H            0.587594856177     1.964935159594     0.160935843587     1.007825032230
         H            1.508100856177     1.272627159594    -0.949431156413     1.007825032230

  Basis Set: AUG-CC-PVTZ
    Blend: AUG-CC-PVTZ
  Basis Set: (AUG-CC-PVTZ AUX)
    Blend: AUG-CC-PVTZ-JKFIT
	 Reference Energy          =    -321.4231896917505082 [Eh]
	 Singles Energy            =      -0.0000000000000000 [Eh]
	 Same-Spin Energy          =      -0.3258895508610344 [Eh]
	 Opposite-Spin Energy      =      -1.0065345698985022 [Eh]
	 Correlation Energy        =      -1.3324241207595366 [Eh]
	 Total Energy              =    -322.7556138125100347 [Eh]

	 ================> DF-SCS-MP2 Energies <==================
	-----------------------------------------------------------
	 SCS Same-Spin Scale       =       0.3333333333333333 [-]
	 SCS Opposite-Spin Scale   =       1.2000000000000000 [-]
	 SCS Same-Spin Energy      =      -0.1086298502870115 [Eh]
	 SCS Opposite-Spin Energy  =      -1.2078414838782026 [Eh]
	 SCS Correlation Energy    =      -1.3164713341652141 [Eh]
	 SCS Total Energy          =    -322.7396610259157228 [Eh]
	-----------------------------------------------------------

  Dipole Moment: [D]
     X:     4.4480      Y:    -0.0577      Z:    -0.1802     Total:     4.4520

*** Psi4 exiting successfully. Buy a developer a beer!
