                               Psi4 1.3.2 release

  ==> Input File <==

--------------------------------------------------------------------------
#psi4
#
memory 32 gb

molecule  {
-1 1
  O       -1.4366360    -1.1870470     0.0571230
  O       -1.4476160     1.0691130    -0.2107340
  N        1.2636070     1.2939420     0.0706720
  C        0.6179830     0.0092170     0.3932550
  C        1.4068670    -1.1350240    -0.2248910
  C       -0.8671115    -0.0358757    -0.0491225
  H        0.7160799    -0.0969342     1.4862211
  H        2.4544500    -1.1027320     0.0899700
  H        0.9700140    -2.0919800     0.0583780
  H        1.3764410    -1.0627810    -1.3188240
  H        0.5133110     1.9810410     0.1712720
  H        1.4338170     1.2887330    -0.9390950
units angstrom
no_reorient  #important for SAPT in psi4, default
symmetry c1  #important for SAPT in psi4, default
}

set PROPERTIES_ORIGIN ["COM"]
properties('MP2/aug-cc-pvtz', properties = ['dipole'])
--------------------------------------------------------------------------

    Molecular point group: c1
  Charge       = -1
  Multiplicity = 1
  Basis Set: AUG-CC-PVTZ
    Blend: AUG-CC-PVTZ
  Basis Set: (AUG-CC-PVTZ AUX)
    Blend: AUG-CC-PVTZ-JKFIT

    Orbital Energies [Eh]
    ---------------------

    Doubly Occupied:

       1A    -20.307478     2A    -20.295199     3A    -15.385446
       4A    -11.143296     5A    -11.094703     6A    -11.070428
       7A     -1.170187     8A     -1.064248     9A     -1.023324
      10A     -0.842186    11A     -0.691119    12A     -0.545707
      13A     -0.500826    14A     -0.461747    15A     -0.440976
      16A     -0.398516    17A     -0.387245    18A     -0.369065
      19A     -0.348425    20A     -0.317709    21A     -0.277968
      22A     -0.217253    23A     -0.198681    24A     -0.194483

  @DF-RHF Final Energy:  -321.42216472885934

   => Energetics <=

    Nuclear Repulsion Energy =            237.9131174485656004
    One-Electron Energy =                -921.1781304411081237
    Two-Electron Energy =                 361.8428482636832086
    Total Energy =                       -321.4221647288593431
  Basis Set: (AUG-CC-PVTZ AUX)
    Blend: AUG-CC-PVTZ-RI
    Molecular point group: c1

    Geometry (in Angstrom), charge = -1, multiplicity = 1:

       Center              X                  Y                   Z               Mass
    ------------   -----------------  -----------------  -----------------  -----------------
         O           -1.356858489593    -1.200671378388     0.062712366503    15.994914619570
         O           -1.367838489593     1.055488621612    -0.205144633497    15.994914619570
         N            1.343384510407     1.280317621612     0.076261366503    14.003074004430
         C            0.697760510407    -0.004407378388     0.398844366503    12.000000000000
         C            1.486644510407    -1.148648378388    -0.219301633497    12.000000000000
         C           -0.787333989593    -0.049500078388    -0.043533133497    12.000000000000
         H            0.795857410407    -0.110558578388     1.491810466503     1.007825032230
         H            2.534227510407    -1.116356378388     0.095559366503     1.007825032230
         H            1.049791510407    -2.105604378388     0.063967366503     1.007825032230
         H            1.456218510407    -1.076405378388    -1.313234633497     1.007825032230
         H            0.593088510407     1.967416621612     0.176861366503     1.007825032230
         H            1.513594510407     1.275108621612    -0.933505633497     1.007825032230

  Basis Set: AUG-CC-PVTZ
    Blend: AUG-CC-PVTZ
  Basis Set: (AUG-CC-PVTZ AUX)
    Blend: AUG-CC-PVTZ-JKFIT
	 Reference Energy          =    -321.4221647288593431 [Eh]
	 Singles Energy            =      -0.0000000000000000 [Eh]
	 Same-Spin Energy          =      -0.3260347570746102 [Eh]
	 Opposite-Spin Energy      =      -1.0078829963135529 [Eh]
	 Correlation Energy        =      -1.3339177533881630 [Eh]
	 Total Energy              =    -322.7560824822475070 [Eh]

	 ================> DF-SCS-MP2 Energies <==================
	-----------------------------------------------------------
	 SCS Same-Spin Scale       =       0.3333333333333333 [-]
	 SCS Opposite-Spin Scale   =       1.2000000000000000 [-]
	 SCS Same-Spin Energy      =      -0.1086782523582034 [Eh]
	 SCS Opposite-Spin Energy  =      -1.2094595955762635 [Eh]
	 SCS Correlation Energy    =      -1.3181378479344668 [Eh]
	 SCS Total Energy          =    -322.7403025767937947 [Eh]
	-----------------------------------------------------------

  Dipole Moment: [D]
     X:     4.4687      Y:     0.0387      Z:    -0.2636     Total:     4.4766

*** Psi4 exiting successfully. Buy a developer a beer!
