                               Psi4 1.3.2 release

  ==> Input File <==

--------------------------------------------------------------------------
#psi4
#
memory 32 gb

molecule  {
-1 1
  O       -1.4366360    -1.1870470     0.0571230
  O       -1.4380030     1.0742923    -0.2088506
  N        1.2636070     1.2939420     0.0706720
  C        0.6177490     0.0226814     0.3919627
  C        1.4068670    -1.1350240    -0.2248910
  C       -0.8878250    -0.0451320     0.0288030
  H        0.6585810    -0.1007720     1.4894850
  H        2.4544500    -1.1027320     0.0899700
  H        0.9700140    -2.0919800     0.0583780
  H        1.3764410    -1.0627810    -1.3188240
  H        0.5133110     1.9810410     0.1712720
  H        1.4338170     1.2887330    -0.9390950
units angstrom
no_reorient  #important for SAPT in psi4, default
symmetry c1  #important for SAPT in psi4, default
}

set PROPERTIES_ORIGIN ["COM"]
properties('MP2/aug-cc-pvtz', properties = ['dipole'])
--------------------------------------------------------------------------

    Molecular point group: c1
  Charge       = -1
  Multiplicity = 1
  Basis Set: AUG-CC-PVTZ
    Blend: AUG-CC-PVTZ
  Basis Set: (AUG-CC-PVTZ AUX)
    Blend: AUG-CC-PVTZ-JKFIT

    Orbital Energies [Eh]
    ---------------------

    Doubly Occupied:

       1A    -20.302262     2A    -20.299133     3A    -15.385721
       4A    -11.141387     5A    -11.092856     6A    -11.071098
       7A     -1.170198     8A     -1.070291     9A     -1.024405
      10A     -0.839585    11A     -0.693869    12A     -0.539181
      13A     -0.502119    14A     -0.460636    15A     -0.442179
      16A     -0.400369    17A     -0.387528    18A     -0.371001
      19A     -0.348510    20A     -0.317256    21A     -0.279550
      22A     -0.216011    23A     -0.200913    24A     -0.193650

  @DF-RHF Final Energy:  -321.42838078039341

   => Energetics <=

    Nuclear Repulsion Energy =            238.0456935283018822
    One-Electron Energy =                -921.4487360092805375
    Two-Electron Energy =                 361.9746617005852727
    Total Energy =                       -321.4283807803934110
  Basis Set: (AUG-CC-PVTZ AUX)
    Blend: AUG-CC-PVTZ-RI
    Molecular point group: c1

    Geometry (in Angstrom), charge = -1, multiplicity = 1:

       Center              X                  Y                   Z               Mass
    ------------   -----------------  -----------------  -----------------  -----------------
         O           -1.355091565746    -1.202141983180     0.051887579488    15.994914619570
         O           -1.356458565746     1.059197316820    -0.214086020512    15.994914619570
         N            1.345151434254     1.278847016820     0.065436579488    14.003074004430
         C            0.699293434254     0.007586416820     0.386727279488    12.000000000000
         C            1.488411434254    -1.150118983180    -0.230126420512    12.000000000000
         C           -0.806280565746    -0.060226983180     0.023567579488    12.000000000000
         H            0.740125434254    -0.115866983180     1.484249579488     1.007825032230
         H            2.535994434254    -1.117826983180     0.084734579488     1.007825032230
         H            1.051558434254    -2.107074983180     0.053142579488     1.007825032230
         H            1.457985434254    -1.077875983180    -1.324059420512     1.007825032230
         H            0.594855434254     1.965946016820     0.166036579488     1.007825032230
         H            1.515361434254     1.273638016820    -0.944330420512     1.007825032230

  Basis Set: AUG-CC-PVTZ
    Blend: AUG-CC-PVTZ
  Basis Set: (AUG-CC-PVTZ AUX)
    Blend: AUG-CC-PVTZ-JKFIT
	 Reference Energy          =    -321.4283807803934110 [Eh]
	 Singles Energy            =      -0.0000000000000000 [Eh]
	 Same-Spin Energy          =      -0.3256221137572602 [Eh]
	 Opposite-Spin Energy      =      -1.0065395795280925 [Eh]
	 Correlation Energy        =      -1.3321616932853528 [Eh]
	 Total Energy              =    -322.7605424736787540 [Eh]

	 ================> DF-SCS-MP2 Energies <==================
	-----------------------------------------------------------
	 SCS Same-Spin Scale       =       0.3333333333333333 [-]
	 SCS Opposite-Spin Scale   =       1.2000000000000000 [-]
	 SCS Same-Spin Energy      =      -0.1085407045857534 [Eh]
	 SCS Opposite-Spin Energy  =      -1.2078474954337108 [Eh]
	 SCS Correlation Energy    =      -1.3163882000194642 [Eh]
	 SCS Total Energy          =    -322.7447689804128572 [Eh]
	-----------------------------------------------------------

  Dipole Moment: [D]
     X:     4.4299      Y:    -0.1007      Z:    -0.2207     Total:     4.4365

*** Psi4 exiting successfully. Buy a developer a beer!
