                               Psi4 1.3.2 release

  ==> Input File <==

--------------------------------------------------------------------------
#psi4
#
memory 32 gb

molecule  {
-1 1
  O       -1.4366360    -1.1870470     0.0571230
  O       -1.4476160     1.0691130    -0.2107340
  N        1.2997077     1.2682197     0.0445831
  C        0.6179830     0.0092170     0.3932550
  C        1.4410574    -1.0995401    -0.2446605
  C       -0.8878250    -0.0451320     0.0288030
  H        0.6585810    -0.1007720     1.4894850
  H        2.4544500    -1.1027320     0.0899700
  H        0.9700140    -2.0919800     0.0583780
  H        1.3764410    -1.0627810    -1.3188240
  H        0.5133110     1.9810410     0.1712720
  H        1.4338170     1.2887330    -0.9390950
units angstrom
no_reorient  #important for SAPT in psi4, default
symmetry c1  #important for SAPT in psi4, default
}

set PROPERTIES_ORIGIN ["COM"]
properties('MP2/aug-cc-pvtz', properties = ['dipole'])
--------------------------------------------------------------------------

    Molecular point group: c1
  Charge       = -1
  Multiplicity = 1
  Basis Set: AUG-CC-PVTZ
    Blend: AUG-CC-PVTZ
  Basis Set: (AUG-CC-PVTZ AUX)
    Blend: AUG-CC-PVTZ-JKFIT

    Orbital Energies [Eh]
    ---------------------

    Doubly Occupied:

       1A    -20.303738     2A    -20.299388     3A    -15.386110
       4A    -11.142952     5A    -11.093956     6A    -11.069622
       7A     -1.171043     8A     -1.070089     9A     -1.022565
      10A     -0.838922    11A     -0.697097    12A     -0.541594
      13A     -0.491169    14A     -0.463965    15A     -0.445143
      16A     -0.403832    17A     -0.385786    18A     -0.377557
      19A     -0.330057    20A     -0.320228    21A     -0.280997
      22A     -0.216856    23A     -0.201456    24A     -0.195233

  @DF-RHF Final Energy:  -321.42138920074456

   => Energetics <=

    Nuclear Repulsion Energy =            237.8062476479670408
    One-Electron Energy =                -920.9565581189908698
    Two-Electron Energy =                 361.7289212702793293
    Total Energy =                       -321.4213892007445565
  Basis Set: (AUG-CC-PVTZ AUX)
    Blend: AUG-CC-PVTZ-RI
    Molecular point group: c1

    Geometry (in Angstrom), charge = -1, multiplicity = 1:

       Center              X                  Y                   Z               Mass
    ------------   -----------------  -----------------  -----------------  -----------------
         O           -1.363779159258    -1.200111087799     0.058897768572    15.994914619570
         O           -1.374759159258     1.056048912201    -0.208959231428    15.994914619570
         N            1.372564540742     1.255155612201     0.046357868572    14.003074004430
         C            0.690839840742    -0.003847087799     0.395029768572    12.000000000000
         C            1.513914240742    -1.112604187799    -0.242885731428    12.000000000000
         C           -0.814968159258    -0.058196087799     0.030577768572    12.000000000000
         H            0.731437840742    -0.113836087799     1.491259768572     1.007825032230
         H            2.527306840742    -1.115796087799     0.091744768572     1.007825032230
         H            1.042870840742    -2.105044087799     0.060152768572     1.007825032230
         H            1.449297840742    -1.075845087799    -1.317049231428     1.007825032230
         H            0.586167840742     1.967976912201     0.173046768572     1.007825032230
         H            1.506673840742     1.275668912201    -0.937320231428     1.007825032230

  Basis Set: AUG-CC-PVTZ
    Blend: AUG-CC-PVTZ
  Basis Set: (AUG-CC-PVTZ AUX)
    Blend: AUG-CC-PVTZ-JKFIT
	 Reference Energy          =    -321.4213892007445565 [Eh]
	 Singles Energy            =      -0.0000000000000000 [Eh]
	 Same-Spin Energy          =      -0.3260301081691198 [Eh]
	 Opposite-Spin Energy      =      -1.0074985098099138 [Eh]
	 Correlation Energy        =      -1.3335286179790335 [Eh]
	 Total Energy              =    -322.7549178187235839 [Eh]

	 ================> DF-SCS-MP2 Energies <==================
	-----------------------------------------------------------
	 SCS Same-Spin Scale       =       0.3333333333333333 [-]
	 SCS Opposite-Spin Scale   =       1.2000000000000000 [-]
	 SCS Same-Spin Energy      =      -0.1086767027230399 [Eh]
	 SCS Opposite-Spin Energy  =      -1.2089982117718965 [Eh]
	 SCS Correlation Energy    =      -1.3176749144949365 [Eh]
	 SCS Total Energy          =    -322.7390641152395006 [Eh]
	-----------------------------------------------------------

  Dipole Moment: [D]
     X:     4.4165      Y:    -0.0838      Z:    -0.2208     Total:     4.4228

*** Psi4 exiting successfully. Buy a developer a beer!
