                               Psi4 1.3.2 release

  ==> Input File <==

--------------------------------------------------------------------------
#psi4
#
memory 32 gb

molecule  {
-1 1
  O       -1.4366360    -1.1870470     0.0571230
  O       -1.4476160     1.0691130    -0.2107340
  N        1.2636070     1.2939420     0.0706720
  C        0.6179830     0.0092170     0.3932550
  C        1.4068670    -1.1350240    -0.2248910
  C       -0.8878250    -0.0451320     0.0288030
  H        0.6622634    -0.1107485     1.5889179
  H        2.4544500    -1.1027320     0.0899700
  H        0.9700140    -2.0919800     0.0583780
  H        1.3764410    -1.0627810    -1.3188240
  H        0.5133110     1.9810410     0.1712720
  H        1.4338170     1.2887330    -0.9390950
units angstrom
no_reorient  #important for SAPT in psi4, default
symmetry c1  #important for SAPT in psi4, default
}

set PROPERTIES_ORIGIN ["COM"]
properties('MP2/aug-cc-pvtz', properties = ['dipole'])
--------------------------------------------------------------------------

    Molecular point group: c1
  Charge       = -1
  Multiplicity = 1
  Basis Set: AUG-CC-PVTZ
    Blend: AUG-CC-PVTZ
  Basis Set: (AUG-CC-PVTZ AUX)
    Blend: AUG-CC-PVTZ-JKFIT

    Orbital Energies [Eh]
    ---------------------

    Doubly Occupied:

       1A    -20.303030     2A    -20.298789     3A    -15.387556
       4A    -11.142751     5A    -11.106403     6A    -11.072754
       7A     -1.170691     8A     -1.069869     9A     -1.022203
      10A     -0.841398    11A     -0.688452    12A     -0.534410
      13A     -0.500981    14A     -0.461335    15A     -0.440016
      16A     -0.400701    17A     -0.388668    18A     -0.369361
      19A     -0.348597    20A     -0.313402    21A     -0.277947
      22A     -0.216310    23A     -0.200910    24A     -0.194580

  @DF-RHF Final Energy:  -321.42201385380321

   => Energetics <=

    Nuclear Repulsion Energy =            237.4590688776204104
    One-Electron Energy =                -920.2599347254447366
    Two-Electron Energy =                 361.3788519940210904
    Total Energy =                       -321.4220138538032074
  Basis Set: (AUG-CC-PVTZ AUX)
    Blend: AUG-CC-PVTZ-RI
    Molecular point group: c1

    Geometry (in Angstrom), charge = -1, multiplicity = 1:

       Center              X                  Y                   Z               Mass
    ------------   -----------------  -----------------  -----------------  -----------------
         O           -1.353419142479    -1.199251589594     0.050915363609    15.994914619570
         O           -1.364399142479     1.056908410406    -0.216941636391    15.994914619570
         N            1.346823857521     1.281737410406     0.064464363609    14.003074004430
         C            0.701199857521    -0.002987589594     0.387047363609    12.000000000000
         C            1.490083857521    -1.147228589594    -0.231098636391    12.000000000000
         C           -0.804608142479    -0.057336589594     0.022595363609    12.000000000000
         H            0.745480257521    -0.122953089594     1.582710263609     1.007825032230
         H            2.537666857521    -1.114936589594     0.083762363609     1.007825032230
         H            1.053230857521    -2.104184589594     0.052170363609     1.007825032230
         H            1.459657857521    -1.074985589594    -1.325031636391     1.007825032230
         H            0.596527857521     1.968836410406     0.165064363609     1.007825032230
         H            1.517033857521     1.276528410406    -0.945302636391     1.007825032230

  Basis Set: AUG-CC-PVTZ
    Blend: AUG-CC-PVTZ
  Basis Set: (AUG-CC-PVTZ AUX)
    Blend: AUG-CC-PVTZ-JKFIT
	 Reference Energy          =    -321.4220138538032074 [Eh]
	 Singles Energy            =      -0.0000000000000000 [Eh]
	 Same-Spin Energy          =      -0.3256360195355075 [Eh]
	 Opposite-Spin Energy      =      -1.0072721200180998 [Eh]
	 Correlation Energy        =      -1.3329081395536073 [Eh]
	 Total Energy              =    -322.7549219933567883 [Eh]

	 ================> DF-SCS-MP2 Energies <==================
	-----------------------------------------------------------
	 SCS Same-Spin Scale       =       0.3333333333333333 [-]
	 SCS Opposite-Spin Scale   =       1.2000000000000000 [-]
	 SCS Same-Spin Energy      =      -0.1085453398451691 [Eh]
	 SCS Opposite-Spin Energy  =      -1.2087265440217199 [Eh]
	 SCS Correlation Energy    =      -1.3172718838668891 [Eh]
	 SCS Total Energy          =    -322.7392857376701159 [Eh]
	-----------------------------------------------------------

  Dipole Moment: [D]
     X:     4.4507      Y:    -0.1124      Z:    -0.3149     Total:     4.4632

*** Psi4 exiting successfully. Buy a developer a beer!
