                               Psi4 1.3.2 release

  ==> Input File <==

--------------------------------------------------------------------------
#psi4
#
memory 32 gb

molecule  {
-1 1
  O       -1.4366360    -1.1870470     0.0571230
  O       -1.4476160     1.0691130    -0.2107340
  N        1.2636070     1.2939420     0.0706720
  C        0.6179830     0.0092170     0.3932550
  C        1.4068670    -1.1350240    -0.2248910
  C       -0.8878250    -0.0451320     0.0288030
  H        0.6585810    -0.1007720     1.4894850
  H        2.4544500    -1.1027320     0.0899700
  H        0.9700140    -2.0919800     0.0583780
  H        1.3764410    -1.0627810    -1.3188240
  H        0.3665302     2.1154585     0.1909524
  H        1.4338170     1.2887330    -0.9390950
units angstrom
no_reorient  #important for SAPT in psi4, default
symmetry c1  #important for SAPT in psi4, default
}

set PROPERTIES_ORIGIN ["COM"]
properties('MP2/aug-cc-pvtz', properties = ['dipole'])
--------------------------------------------------------------------------

    Molecular point group: c1
  Charge       = -1
  Multiplicity = 1
  Basis Set: AUG-CC-PVTZ
    Blend: AUG-CC-PVTZ
  Basis Set: (AUG-CC-PVTZ AUX)
    Blend: AUG-CC-PVTZ-JKFIT

    Orbital Energies [Eh]
    ---------------------

    Doubly Occupied:

       1A    -20.303640     2A    -20.298941     3A    -15.400508
       4A    -11.141838     5A    -11.093348     6A    -11.071880
       7A     -1.170788     8A     -1.069815     9A     -1.003412
      10A     -0.833298    11A     -0.692145    12A     -0.537278
      13A     -0.472780    14A     -0.461785    15A     -0.439820
      16A     -0.397372    17A     -0.388726    18A     -0.370296
      19A     -0.334610    20A     -0.315307    21A     -0.275212
      22A     -0.215208    23A     -0.201413    24A     -0.193187

  @DF-RHF Final Energy:  -321.40097986053524

   => Energetics <=

    Nuclear Repulsion Energy =            237.1605572073015367
    One-Electron Energy =                -919.7578527196005780
    Two-Electron Energy =                 361.1963156517638254
    Total Energy =                       -321.4009798605352444
  Basis Set: (AUG-CC-PVTZ AUX)
    Blend: AUG-CC-PVTZ-RI
    Molecular point group: c1

    Geometry (in Angstrom), charge = -1, multiplicity = 1:

       Center              X                  Y                   Z               Mass
    ------------   -----------------  -----------------  -----------------  -----------------
         O           -1.351696734121    -1.200904521556     0.051828320216    15.994914619570
         O           -1.362676734121     1.055255478444    -0.216028679784    15.994914619570
         N            1.348546265879     1.280084478444     0.065377320216    14.003074004430
         C            0.702922265879    -0.004640521556     0.387960320216    12.000000000000
         C            1.491806265879    -1.148881521556    -0.230185679784    12.000000000000
         C           -0.802885734121    -0.058989521556     0.023508320216    12.000000000000
         H            0.743520265879    -0.114629521556     1.484190320216     1.007825032230
         H            2.539389265879    -1.116589521556     0.084675320216     1.007825032230
         H            1.054953265879    -2.105837521556     0.053083320216     1.007825032230
         H            1.461380265879    -1.076638521556    -1.324118679784     1.007825032230
         H            0.451469465879     2.101600978444     0.185657720216     1.007825032230
         H            1.518756265879     1.274875478444    -0.944389679784     1.007825032230

  Basis Set: AUG-CC-PVTZ
    Blend: AUG-CC-PVTZ
  Basis Set: (AUG-CC-PVTZ AUX)
    Blend: AUG-CC-PVTZ-JKFIT
	 Reference Energy          =    -321.4009798605352444 [Eh]
	 Singles Energy            =      -0.0000000000000000 [Eh]
	 Same-Spin Energy          =      -0.3272132615738287 [Eh]
	 Opposite-Spin Energy      =      -1.0109621156202500 [Eh]
	 Correlation Energy        =      -1.3381753771940788 [Eh]
	 Total Energy              =    -322.7391552377293351 [Eh]

	 ================> DF-SCS-MP2 Energies <==================
	-----------------------------------------------------------
	 SCS Same-Spin Scale       =       0.3333333333333333 [-]
	 SCS Opposite-Spin Scale   =       1.2000000000000000 [-]
	 SCS Same-Spin Energy      =      -0.1090710871912762 [Eh]
	 SCS Opposite-Spin Energy  =      -1.2131545387442999 [Eh]
	 SCS Correlation Energy    =      -1.3222256259355762 [Eh]
	 SCS Total Energy          =    -322.7232054864708175 [Eh]
	-----------------------------------------------------------

  Dipole Moment: [D]
     X:     4.2691      Y:    -0.1638      Z:    -0.2043     Total:     4.2771

*** Psi4 exiting successfully. Buy a developer a beer!
