                               Psi4 1.3.2 release

  ==> Input File <==

--------------------------------------------------------------------------
#psi4
#
memory 32 gb

molecule  {
-1 1
  O       -1.4366360    -1.1870470     0.0571230
  O       -1.4476160     1.0691130    -0.2107340
  N        1.2636070     1.2939420     0.0706720
  C        0.5741694    -0.0779675     0.4151463
  C        1.4068670    -1.1350240    -0.2248910
  C       -0.8878250    -0.0451320     0.0288030
  H        0.6585810    -0.1007720     1.4894850
  H        2.4544500    -1.1027320     0.0899700
  H        0.9700140    -2.0919800     0.0583780
  H        1.3764410    -1.0627810    -1.3188240
  H        0.5133110     1.9810410     0.1712720
  H        1.4338170     1.2887330    -0.9390950
units angstrom
no_reorient  #important for SAPT in psi4, default
symmetry c1  #important for SAPT in psi4, default
}

set PROPERTIES_ORIGIN ["COM"]
properties('MP2/aug-cc-pvtz', properties = ['dipole'])
--------------------------------------------------------------------------

    Molecular point group: c1
  Charge       = -1
  Multiplicity = 1
  Basis Set: AUG-CC-PVTZ
    Blend: AUG-CC-PVTZ
  Basis Set: (AUG-CC-PVTZ AUX)
    Blend: AUG-CC-PVTZ-JKFIT

    Orbital Energies [Eh]
    ---------------------

    Doubly Occupied:

       1A    -20.304370     2A    -20.298372     3A    -15.381002
       4A    -11.142384     5A    -11.095570     6A    -11.073054
       7A     -1.172708     8A     -1.070710     9A     -0.997345
      10A     -0.850889    11A     -0.703758    12A     -0.542625
      13A     -0.489750    14A     -0.464136    15A     -0.436837
      16A     -0.400891    17A     -0.395054    18A     -0.378285
      19A     -0.333979    20A     -0.321088    21A     -0.271284
      22A     -0.219017    23A     -0.201949    24A     -0.197937

  @DF-RHF Final Energy:  -321.41915441173148

   => Energetics <=

    Nuclear Repulsion Energy =            237.8564143441592762
    One-Electron Energy =                -921.0651475263349539
    Two-Electron Energy =                 361.7895787704442228
    Total Energy =                       -321.4191544117314834
  Basis Set: (AUG-CC-PVTZ AUX)
    Blend: AUG-CC-PVTZ-RI
    Molecular point group: c1

    Geometry (in Angstrom), charge = -1, multiplicity = 1:

       Center              X                  Y                   Z               Mass
    ------------   -----------------  -----------------  -----------------  -----------------
         O           -1.347405111398    -1.187482380615     0.049069783136    15.994914619570
         O           -1.358385111398     1.068677619385    -0.218787216864    15.994914619570
         N            1.352837888602     1.293506619385     0.062618783136    14.003074004430
         C            0.663400288602    -0.078402880615     0.407093083136    12.000000000000
         C            1.496097888602    -1.135459380615    -0.232944216864    12.000000000000
         C           -0.798594111398    -0.045567380615     0.020749783136    12.000000000000
         H            0.747811888602    -0.101207380615     1.481431783136     1.007825032230
         H            2.543680888602    -1.103167380615     0.081916783136     1.007825032230
         H            1.059244888602    -2.092415380615     0.050324783136     1.007825032230
         H            1.465671888602    -1.063216380615    -1.326877216864     1.007825032230
         H            0.602541888602     1.980605619385     0.163218783136     1.007825032230
         H            1.523047888602     1.288297619385    -0.947148216864     1.007825032230

  Basis Set: AUG-CC-PVTZ
    Blend: AUG-CC-PVTZ
  Basis Set: (AUG-CC-PVTZ AUX)
    Blend: AUG-CC-PVTZ-JKFIT
	 Reference Energy          =    -321.4191544117314834 [Eh]
	 Singles Energy            =      -0.0000000000000000 [Eh]
	 Same-Spin Energy          =      -0.3258654420977283 [Eh]
	 Opposite-Spin Energy      =      -1.0080328281032571 [Eh]
	 Correlation Energy        =      -1.3338982702009854 [Eh]
	 Total Energy              =    -322.7530526819324450 [Eh]

	 ================> DF-SCS-MP2 Energies <==================
	-----------------------------------------------------------
	 SCS Same-Spin Scale       =       0.3333333333333333 [-]
	 SCS Opposite-Spin Scale   =       1.2000000000000000 [-]
	 SCS Same-Spin Energy      =      -0.1086218140325761 [Eh]
	 SCS Opposite-Spin Energy  =      -1.2096393937239085 [Eh]
	 SCS Correlation Energy    =      -1.3182612077564846 [Eh]
	 SCS Total Energy          =    -322.7374156194879902 [Eh]
	-----------------------------------------------------------

  Dipole Moment: [D]
     X:     4.3303      Y:    -0.4141      Z:    -0.1417     Total:     4.3524

*** Psi4 exiting successfully. Buy a developer a beer!
