                               Psi4 1.4a3.dev225

  ==> Input File <==

--------------------------------------------------------------------------
#psi4
#
memory 32 gb

molecule  {
-1 1
  O       -1.6933650     0.8030190    -0.4602720
  O       -1.1174780    -1.0749000     0.6904900
  N        1.4364130    -1.0622120    -0.3332000
  C        0.6126710     0.1580520    -0.4178300
  C        1.1905680     1.2200680     0.5150430
  C       -0.8738120    -0.0689040    -0.0451960
  H        0.6510006     0.5158663    -1.4004465
  H        2.2305690     1.4435080     0.2589170
  H        0.6009540     2.1390560     0.4596660
  H        1.1629700     0.8554330     1.5482090
  H        1.1631630    -1.6605680    -1.1160450
  H        1.0447980    -1.5551690     0.4751990
units angstrom
no_reorient  #important for SAPT in psi4, default
symmetry c1  #important for SAPT in psi4, default
}

set PROPERTIES_ORIGIN ["COM"]
properties('MP2/aug-cc-pvtz', properties = ['dipole'])
--------------------------------------------------------------------------

    Molecular point group: c1
  Charge       = -1
  Multiplicity = 1
  Basis Set: AUG-CC-PVTZ
    Blend: AUG-CC-PVTZ
  Basis Set: (AUG-CC-PVTZ AUX)
    Blend: AUG-CC-PVTZ-JKFIT

    Orbital Energies [Eh]
    ---------------------

    Doubly Occupied:

       1A    -20.302122     2A    -20.298773     3A    -15.386866
       4A    -11.139850     5A    -11.085755     6A    -11.069828
       7A     -1.169737     8A     -1.069366     9A     -1.021709
      10A     -0.844025    11A     -0.691954    12A     -0.547461
      13A     -0.504976    14A     -0.461362    15A     -0.424158
      16A     -0.407131    17A     -0.394852    18A     -0.365838
      19A     -0.349190    20A     -0.320139    21A     -0.281677
      22A     -0.216297    23A     -0.200450    24A     -0.192185

  @DF-RHF Final Energy:  -321.42815060956559

   => Energetics <=

    Nuclear Repulsion Energy =            238.4120524492192317
    One-Electron Energy =                -922.1890039711730651
    Two-Electron Energy =                 362.3488009123882421
    Total Energy =                       -321.4281506095655914
  Basis Set: (AUG-CC-PVTZ AUX)
    Blend: AUG-CC-PVTZ-RI
    Molecular point group: c1

    Geometry (in Angstrom), charge = -1, multiplicity = 1:

       Center              X                  Y                   Z               Mass
    ------------   -----------------  -----------------  -----------------  -----------------
         O           -1.616300024468     0.823017073180    -0.458772236445    15.994914619570
         O           -1.040413024468    -1.054901926820     0.691989763555    15.994914619570
         N            1.513477975532    -1.042213926820    -0.331700236445    14.003074004430
         C            0.689735975532     0.178050073180    -0.416330236445    12.000000000000
         C            1.267632975532     1.240066073180     0.516542763555    12.000000000000
         C           -0.796747024468    -0.048905926820    -0.043696236445    12.000000000000
         H            0.728065575532     0.535864373180    -1.398946736445     1.007825032230
         H            2.307633975532     1.463506073180     0.260416763555     1.007825032230
         H            0.678018975532     2.159054073180     0.461165763555     1.007825032230
         H            1.240034975532     0.875431073180     1.549708763555     1.007825032230
         H            1.240227975532    -1.640569926820    -1.114545236445     1.007825032230
         H            1.121862975532    -1.535170926820     0.476698763555     1.007825032230

  Basis Set: AUG-CC-PVTZ
    Blend: AUG-CC-PVTZ
  Basis Set: (AUG-CC-PVTZ AUX)
    Blend: AUG-CC-PVTZ-JKFIT
	 Reference Energy          =    -321.4281506095655914 [Eh]
	 Singles Energy            =      -0.0000000000000000 [Eh]
	 Same-Spin Energy          =      -0.3255354977404852 [Eh]
	 Opposite-Spin Energy      =      -1.0064678029436185 [Eh]
	 Correlation Energy        =      -1.3320033006841037 [Eh]
	 Total Energy              =    -322.7601539102496986 [Eh]

	 ================> DF-SCS-MP2 Energies <==================
	-----------------------------------------------------------
	 SCS Same-Spin Scale       =       0.3333333333333333 [-]
	 SCS Opposite-Spin Scale   =       1.2000000000000000 [-]
	 SCS Same-Spin Energy      =      -0.1085118325801617 [Eh]
	 SCS Opposite-Spin Energy  =      -1.2077613635323421 [Eh]
	 SCS Correlation Energy    =      -1.3162731961125038 [Eh]
	 SCS Total Energy          =    -322.7444238056780819 [Eh]
	-----------------------------------------------------------

  Dipole Moment: [D]
     X:     4.1229      Y:     0.3228      Z:    -0.7938     Total:     4.2110

*** Psi4 exiting successfully. Buy a developer a beer!
