                               Psi4 1.4a3.dev225

  ==> Input File <==

--------------------------------------------------------------------------
#psi4
#
memory 32 gb

molecule  {
-1 1
  O       -1.6933650     0.8030190    -0.4602720
  O       -1.1174780    -1.0749000     0.6904900
  N        1.4364130    -1.0622120    -0.3332000
  C        0.6126710     0.1580520    -0.4178300
  C        1.1905680     1.2200680     0.5150430
  C       -0.8546216    -0.0659740    -0.0500067
  H        0.6528320     0.5329630    -1.4473970
  H        2.2305690     1.4435080     0.2589170
  H        0.6009540     2.1390560     0.4596660
  H        1.1629700     0.8554330     1.5482090
  H        1.1631630    -1.6605680    -1.1160450
  H        1.0447980    -1.5551690     0.4751990
units angstrom
no_reorient  #important for SAPT in psi4, default
symmetry c1  #important for SAPT in psi4, default
}

set PROPERTIES_ORIGIN ["COM"]
properties('MP2/aug-cc-pvtz', properties = ['dipole'])
--------------------------------------------------------------------------

    Molecular point group: c1
  Charge       = -1
  Multiplicity = 1
  Basis Set: AUG-CC-PVTZ
    Blend: AUG-CC-PVTZ
  Basis Set: (AUG-CC-PVTZ AUX)
    Blend: AUG-CC-PVTZ-JKFIT

    Orbital Energies [Eh]
    ---------------------

    Doubly Occupied:

       1A    -20.302005     2A    -20.298079     3A    -15.388631
       4A    -11.141123     5A    -11.094144     6A    -11.071774
       7A     -1.165238     8A     -1.063383     9A     -1.022927
      10A     -0.845752    11A     -0.693292    12A     -0.546391
      13A     -0.506195    14A     -0.460269    15A     -0.424605
      16A     -0.408110    17A     -0.392744    18A     -0.366448
      19A     -0.345867    20A     -0.315561    21A     -0.281589
      22A     -0.214750    23A     -0.199089    24A     -0.194941

  @DF-RHF Final Energy:  -321.42679330708165

   => Energetics <=

    Nuclear Repulsion Energy =            238.1797251177683279
    One-Electron Energy =                -921.7272242978223176
    Two-Electron Energy =                 362.1207058729723940
    Total Energy =                       -321.4267933070816525
  Basis Set: (AUG-CC-PVTZ AUX)
    Blend: AUG-CC-PVTZ-RI
    Molecular point group: c1

    Geometry (in Angstrom), charge = -1, multiplicity = 1:

       Center              X                  Y                   Z               Mass
    ------------   -----------------  -----------------  -----------------  -----------------
         O           -1.618936677321     0.822421996289    -0.457579068976    15.994914619570
         O           -1.043049677321    -1.055497003711     0.693182931024    15.994914619570
         N            1.510841322679    -1.042809003711    -0.330507068976    14.003074004430
         C            0.687099322679     0.177454996289    -0.415137068976    12.000000000000
         C            1.264996322679     1.239470996289     0.517735931024    12.000000000000
         C           -0.780193277321    -0.046571003711    -0.047313768976    12.000000000000
         H            0.727260322679     0.552365996289    -1.444704068976     1.007825032230
         H            2.304997322679     1.462910996289     0.261609931024     1.007825032230
         H            0.675382322679     2.158458996289     0.462358931024     1.007825032230
         H            1.237398322679     0.874835996289     1.550901931024     1.007825032230
         H            1.237591322679    -1.641165003711    -1.113352068976     1.007825032230
         H            1.119226322679    -1.535766003711     0.477891931024     1.007825032230

  Basis Set: AUG-CC-PVTZ
    Blend: AUG-CC-PVTZ
  Basis Set: (AUG-CC-PVTZ AUX)
    Blend: AUG-CC-PVTZ-JKFIT
	 Reference Energy          =    -321.4267933070816525 [Eh]
	 Singles Energy            =      -0.0000000000000000 [Eh]
	 Same-Spin Energy          =      -0.3259366738730617 [Eh]
	 Opposite-Spin Energy      =      -1.0075816832934417 [Eh]
	 Correlation Energy        =      -1.3335183571665032 [Eh]
	 Total Energy              =    -322.7603116642481496 [Eh]

	 ================> DF-SCS-MP2 Energies <==================
	-----------------------------------------------------------
	 SCS Same-Spin Scale       =       0.3333333333333333 [-]
	 SCS Opposite-Spin Scale   =       1.2000000000000000 [-]
	 SCS Same-Spin Energy      =      -0.1086455579576872 [Eh]
	 SCS Opposite-Spin Energy  =      -1.2090980199521300 [Eh]
	 SCS Correlation Energy    =      -1.3177435779098172 [Eh]
	 SCS Total Energy          =    -322.7445368849914757 [Eh]
	-----------------------------------------------------------

  Dipole Moment: [D]
     X:     4.2352      Y:     0.3289      Z:    -0.7747     Total:     4.3180

*** Psi4 exiting successfully. Buy a developer a beer!
