                               Psi4 1.3.2 release

  ==> Input File <==

--------------------------------------------------------------------------
#psi4
#
memory 32 gb

molecule  {
-1 1
  O       -1.4366360    -1.1870470     0.0571230
  O       -1.4476160     1.0691130    -0.2107340
  N        1.2636070     1.2939420     0.0706720
  C        0.6179830     0.0092170     0.3932550
  C        1.4068670    -1.1350240    -0.2248910
  C       -0.8813765    -0.0420619     0.0027062
  H        0.6777675    -0.0995257     1.4887306
  H        2.4544500    -1.1027320     0.0899700
  H        0.9700140    -2.0919800     0.0583780
  H        1.3764410    -1.0627810    -1.3188240
  H        0.5133110     1.9810410     0.1712720
  H        1.4338170     1.2887330    -0.9390950
units angstrom
no_reorient  #important for SAPT in psi4, default
symmetry c1  #important for SAPT in psi4, default
}

set PROPERTIES_ORIGIN ["COM"]
properties('MP2/aug-cc-pvtz', properties = ['dipole'])
--------------------------------------------------------------------------

    Molecular point group: c1
  Charge       = -1
  Multiplicity = 1
  Basis Set: AUG-CC-PVTZ
    Blend: AUG-CC-PVTZ
  Basis Set: (AUG-CC-PVTZ AUX)
    Blend: AUG-CC-PVTZ-JKFIT

    Orbital Energies [Eh]
    ---------------------

    Doubly Occupied:

       1A    -20.303905     2A    -20.297192     3A    -15.385624
       4A    -11.141755     5A    -11.093728     6A    -11.071052
       7A     -1.170112     8A     -1.068274     9A     -1.022239
      10A     -0.842043    11A     -0.693213    12A     -0.541103
      13A     -0.501138    14A     -0.461155    15A     -0.441406
      16A     -0.399577    17A     -0.387716    18A     -0.370910
      19A     -0.348273    20A     -0.318615    21A     -0.278737
      22A     -0.216305    23A     -0.200040    24A     -0.194345

  @DF-RHF Final Energy:  -321.42759335039909

   => Energetics <=

    Nuclear Repulsion Energy =            237.9523301715469472
    One-Electron Energy =                -921.2629322559856746
    Two-Electron Energy =                 361.8830087340396631
    Total Energy =                       -321.4275933503990927
  Basis Set: (AUG-CC-PVTZ AUX)
    Blend: AUG-CC-PVTZ-RI
    Molecular point group: c1

    Geometry (in Angstrom), charge = -1, multiplicity = 1:

       Center              X                  Y                   Z               Mass
    ------------   -----------------  -----------------  -----------------  -----------------
         O           -1.354475566547    -1.199798521658     0.055619288624    15.994914619570
         O           -1.365455566547     1.056361478342    -0.212237711376    15.994914619570
         N            1.345767433453     1.281190478342     0.069168288624    14.003074004430
         C            0.700143433453    -0.003534521658     0.391751288624    12.000000000000
         C            1.489027433453    -1.147775521658    -0.226394711376    12.000000000000
         C           -0.799216066547    -0.054813421658     0.001202488624    12.000000000000
         H            0.759927933453    -0.112277221658     1.487226888624     1.007825032230
         H            2.536610433453    -1.115483521658     0.088466288624     1.007825032230
         H            1.052174433453    -2.104731521658     0.056874288624     1.007825032230
         H            1.458601433453    -1.075532521658    -1.320327711376     1.007825032230
         H            0.595471433453     1.968289478342     0.169768288624     1.007825032230
         H            1.515977433453     1.275981478342    -0.940598711376     1.007825032230

  Basis Set: AUG-CC-PVTZ
    Blend: AUG-CC-PVTZ
  Basis Set: (AUG-CC-PVTZ AUX)
    Blend: AUG-CC-PVTZ-JKFIT
	 Reference Energy          =    -321.4275933503990927 [Eh]
	 Singles Energy            =      -0.0000000000000000 [Eh]
	 Same-Spin Energy          =      -0.3256535095422225 [Eh]
	 Opposite-Spin Energy      =      -1.0068342687380014 [Eh]
	 Correlation Energy        =      -1.3324877782802238 [Eh]
	 Total Energy              =    -322.7600811286793032 [Eh]

	 ================> DF-SCS-MP2 Energies <==================
	-----------------------------------------------------------
	 SCS Same-Spin Scale       =       0.3333333333333333 [-]
	 SCS Opposite-Spin Scale   =       1.2000000000000000 [-]
	 SCS Same-Spin Energy      =      -0.1085511698474075 [Eh]
	 SCS Opposite-Spin Energy  =      -1.2082011224856017 [Eh]
	 SCS Correlation Energy    =      -1.3167522923330093 [Eh]
	 SCS Total Energy          =    -322.7443456427321280 [Eh]
	-----------------------------------------------------------

  Dipole Moment: [D]
     X:     4.4549      Y:    -0.0756      Z:    -0.2296     Total:     4.4614

*** Psi4 exiting successfully. Buy a developer a beer!
