                               Psi4 1.3.2 release

  ==> Input File <==

--------------------------------------------------------------------------
#psi4
#
memory 32 gb

molecule  {
-1 1
  O       -1.4943410    -1.1577487     0.0425083
  O       -1.5051634     1.0366471    -0.2180435
  N        1.2636070     1.2939420     0.0706720
  C        0.6179830     0.0092170     0.3932550
  C        1.4068670    -1.1350240    -0.2248910
  C       -0.8878250    -0.0451320     0.0288030
  H        0.6585810    -0.1007720     1.4894850
  H        2.4544500    -1.1027320     0.0899700
  H        0.9700140    -2.0919800     0.0583780
  H        1.3764410    -1.0627810    -1.3188240
  H        0.5133110     1.9810410     0.1712720
  H        1.4338170     1.2887330    -0.9390950
units angstrom
no_reorient  #important for SAPT in psi4, default
symmetry c1  #important for SAPT in psi4, default
}

set PROPERTIES_ORIGIN ["COM"]
properties('MP2/aug-cc-pvtz', properties = ['dipole'])
--------------------------------------------------------------------------

    Molecular point group: c1
  Charge       = -1
  Multiplicity = 1
  Basis Set: AUG-CC-PVTZ
    Blend: AUG-CC-PVTZ
  Basis Set: (AUG-CC-PVTZ AUX)
    Blend: AUG-CC-PVTZ-JKFIT

    Orbital Energies [Eh]
    ---------------------

    Doubly Occupied:

       1A    -20.296024     2A    -20.292068     3A    -15.390987
       4A    -11.138228     5A    -11.100649     6A    -11.075543
       7A     -1.169127     8A     -1.057336     9A     -1.026844
      10A     -0.846760    11A     -0.699005    12A     -0.541464
      13A     -0.504972    14A     -0.458952    15A     -0.444913
      16A     -0.397717    17A     -0.387340    18A     -0.372676
      19A     -0.351364    20A     -0.319878    21A     -0.281684
      22A     -0.209091    23A     -0.196290    24A     -0.191239

  @DF-RHF Final Energy:  -321.42493084772377

   => Energetics <=

    Nuclear Repulsion Energy =            237.3089812162351109
    One-Electron Energy =                -919.9675224177079826
    Two-Electron Energy =                 361.2336103537490999
    Total Energy =                       -321.4249308477237719
  Basis Set: (AUG-CC-PVTZ AUX)
    Blend: AUG-CC-PVTZ-RI
    Molecular point group: c1

    Geometry (in Angstrom), charge = -1, multiplicity = 1:

       Center              X                  Y                   Z               Mass
    ------------   -----------------  -----------------  -----------------  -----------------
         O           -1.390143149889    -1.169492010712     0.041422056423    15.994914619570
         O           -1.400965549889     1.024903789288    -0.219129743577    15.994914619570
         N            1.367804850111     1.282198689288     0.069585756423    14.003074004430
         C            0.722180850111    -0.002526310712     0.392168756423    12.000000000000
         C            1.511064850111    -1.146767310712    -0.225977243577    12.000000000000
         C           -0.783627149889    -0.056875310712     0.027716756423    12.000000000000
         H            0.762778850111    -0.112515310712     1.488398756423     1.007825032230
         H            2.558647850111    -1.114475310712     0.088883756423     1.007825032230
         H            1.074211850111    -2.103723310712     0.057291756423     1.007825032230
         H            1.480638850111    -1.074524310712    -1.319910243577     1.007825032230
         H            0.617508850111     1.969297689288     0.170185756423     1.007825032230
         H            1.538014850111     1.276989689288    -0.940181243577     1.007825032230

  Basis Set: AUG-CC-PVTZ
    Blend: AUG-CC-PVTZ
  Basis Set: (AUG-CC-PVTZ AUX)
    Blend: AUG-CC-PVTZ-JKFIT
	 Reference Energy          =    -321.4249308477237719 [Eh]
	 Singles Energy            =      -0.0000000000000000 [Eh]
	 Same-Spin Energy          =      -0.3253955214225320 [Eh]
	 Opposite-Spin Energy      =      -1.0064525014989041 [Eh]
	 Correlation Energy        =      -1.3318480229214362 [Eh]
	 Total Energy              =    -322.7567788706452347 [Eh]

	 ================> DF-SCS-MP2 Energies <==================
	-----------------------------------------------------------
	 SCS Same-Spin Scale       =       0.3333333333333333 [-]
	 SCS Opposite-Spin Scale   =       1.2000000000000000 [-]
	 SCS Same-Spin Energy      =      -0.1084651738075107 [Eh]
	 SCS Opposite-Spin Energy  =      -1.2077430017986848 [Eh]
	 SCS Correlation Energy    =      -1.3162081756061954 [Eh]
	 SCS Total Energy          =    -322.7411390233299926 [Eh]
	-----------------------------------------------------------

  Dipole Moment: [D]
     X:     4.8086      Y:    -0.1216      Z:    -0.1655     Total:     4.8130

*** Psi4 exiting successfully. Buy a developer a beer!
