                               Psi4 1.3.2 release

  ==> Input File <==

--------------------------------------------------------------------------
#psi4
#
memory 32 gb

molecule  {
-1 1
  O       -1.4366360    -1.1870470     0.0571230
  O       -1.4476160     1.0691130    -0.2107340
  N        1.2636070     1.2939420     0.0706720
  C        0.6179830     0.0092170     0.3932550
  C        1.4068670    -1.1350240    -0.2248910
  C       -0.8908774    -0.0466609     0.0418935
  H        0.6489828    -0.1013826     1.4897370
  H        2.4544500    -1.1027320     0.0899700
  H        0.9700140    -2.0919800     0.0583780
  H        1.3764410    -1.0627810    -1.3188240
  H        0.5133110     1.9810410     0.1712720
  H        1.4338170     1.2887330    -0.9390950
units angstrom
no_reorient  #important for SAPT in psi4, default
symmetry c1  #important for SAPT in psi4, default
}

set PROPERTIES_ORIGIN ["COM"]
properties('MP2/aug-cc-pvtz', properties = ['dipole'])
--------------------------------------------------------------------------

    Molecular point group: c1
  Charge       = -1
  Multiplicity = 1
  Basis Set: AUG-CC-PVTZ
    Blend: AUG-CC-PVTZ
  Basis Set: (AUG-CC-PVTZ AUX)
    Blend: AUG-CC-PVTZ-JKFIT

    Orbital Energies [Eh]
    ---------------------

    Doubly Occupied:

       1A    -20.301442     2A    -20.298964     3A    -15.385823
       4A    -11.141218     5A    -11.093330     6A    -11.071601
       7A     -1.170110     8A     -1.069448     9A     -1.021450
      10A     -0.842051    11A     -0.695038    12A     -0.537974
      13A     -0.501379    14A     -0.460726    15A     -0.441732
      16A     -0.400040    17A     -0.387931    18A     -0.372043
      19A     -0.348147    20A     -0.319018    21A     -0.279266
      22A     -0.215260    23A     -0.200428    24A     -0.193810

  @DF-RHF Final Energy:  -321.42852363628299

   => Energetics <=

    Nuclear Repulsion Energy =            237.9302910353663663
    One-Electron Energy =                -921.2211687735320993
    Two-Electron Energy =                 361.8623541018827154
    Total Energy =                       -321.4285236362829892
  Basis Set: (AUG-CC-PVTZ AUX)
    Blend: AUG-CC-PVTZ-RI
    Molecular point group: c1

    Geometry (in Angstrom), charge = -1, multiplicity = 1:

       Center              X                  Y                   Z               Mass
    ------------   -----------------  -----------------  -----------------  -----------------
         O           -1.352851066554    -1.199150412557     0.050266464230    15.994914619570
         O           -1.363831066554     1.057009587443    -0.217590535770    15.994914619570
         N            1.347391933446     1.281838587443     0.063815464230    14.003074004430
         C            0.701767933446    -0.002886412557     0.386398464230    12.000000000000
         C            1.490651933446    -1.147127412557    -0.231747535770    12.000000000000
         C           -0.807092466554    -0.058764312557     0.035036964230    12.000000000000
         H            0.732767733446    -0.113486012557     1.482880464230     1.007825032230
         H            2.538234933446    -1.114835412557     0.083113464230     1.007825032230
         H            1.053798933446    -2.104083412557     0.051521464230     1.007825032230
         H            1.460225933446    -1.074884412557    -1.325680535770     1.007825032230
         H            0.597095933446     1.968937587443     0.164415464230     1.007825032230
         H            1.517601933446     1.276629587443    -0.945951535770     1.007825032230

  Basis Set: AUG-CC-PVTZ
    Blend: AUG-CC-PVTZ
  Basis Set: (AUG-CC-PVTZ AUX)
    Blend: AUG-CC-PVTZ-JKFIT
	 Reference Energy          =    -321.4285236362829892 [Eh]
	 Singles Energy            =      -0.0000000000000000 [Eh]
	 Same-Spin Energy          =      -0.3255709527359627 [Eh]
	 Opposite-Spin Energy      =      -1.0065045602921583 [Eh]
	 Correlation Energy        =      -1.3320755130281210 [Eh]
	 Total Energy              =    -322.7605991493111333 [Eh]

	 ================> DF-SCS-MP2 Energies <==================
	-----------------------------------------------------------
	 SCS Same-Spin Scale       =       0.3333333333333333 [-]
	 SCS Opposite-Spin Scale   =       1.2000000000000000 [-]
	 SCS Same-Spin Energy      =      -0.1085236509119876 [Eh]
	 SCS Opposite-Spin Energy  =      -1.2078054723505900 [Eh]
	 SCS Correlation Energy    =      -1.3163291232625776 [Eh]
	 SCS Total Energy          =    -322.7448527595455516 [Eh]
	-----------------------------------------------------------

  Dipole Moment: [D]
     X:     4.4485      Y:    -0.1633      Z:    -0.2030     Total:     4.4561

*** Psi4 exiting successfully. Buy a developer a beer!
