                               Psi4 1.3.2 release

  ==> Input File <==

--------------------------------------------------------------------------
#psi4
#
memory 32 gb

molecule  {
-1 1
  O       -1.4366360    -1.1870470     0.0571230
  O       -1.4476160     1.0691130    -0.2107340
  N        1.2636070     1.2939420     0.0706720
  C        0.5303558    -0.1651521     0.4370375
  C        1.4068670    -1.1350240    -0.2248910
  C       -0.8878250    -0.0451320     0.0288030
  H        0.6585810    -0.1007720     1.4894850
  H        2.4544500    -1.1027320     0.0899700
  H        0.9700140    -2.0919800     0.0583780
  H        1.3764410    -1.0627810    -1.3188240
  H        0.5133110     1.9810410     0.1712720
  H        1.4338170     1.2887330    -0.9390950
units angstrom
no_reorient  #important for SAPT in psi4, default
symmetry c1  #important for SAPT in psi4, default
}

set PROPERTIES_ORIGIN ["COM"]
properties('MP2/aug-cc-pvtz', properties = ['dipole'])
--------------------------------------------------------------------------

    Molecular point group: c1
  Charge       = -1
  Multiplicity = 1
  Basis Set: AUG-CC-PVTZ
    Blend: AUG-CC-PVTZ
  Basis Set: (AUG-CC-PVTZ AUX)
    Blend: AUG-CC-PVTZ-JKFIT

    Orbital Energies [Eh]
    ---------------------

    Doubly Occupied:

       1A    -20.306997     2A    -20.299689     3A    -15.373955
       4A    -11.144415     5A    -11.101158     6A    -11.075833
       7A     -1.176466     8A     -1.073636     9A     -0.978601
      10A     -0.858310    11A     -0.712839    12A     -0.549359
      13A     -0.479773    14A     -0.469309    15A     -0.436661
      16A     -0.406530    17A     -0.399604    18A     -0.383516
      19A     -0.334578    20A     -0.304596    21A     -0.261329
      22A     -0.223142    23A     -0.203018    24A     -0.197310

  @DF-RHF Final Energy:  -321.39563607931723

   => Energetics <=

    Nuclear Repulsion Energy =            237.7859491466682300
    One-Electron Energy =                -920.8619296764975388
    Two-Electron Energy =                 361.6803444505120524
    Total Energy =                       -321.3956360793172280
  Basis Set: (AUG-CC-PVTZ AUX)
    Blend: AUG-CC-PVTZ-RI
    Molecular point group: c1

    Geometry (in Angstrom), charge = -1, multiplicity = 1:

       Center              X                  Y                   Z               Mass
    ------------   -----------------  -----------------  -----------------  -----------------
         O           -1.341433234124    -1.175598953290     0.046085970808    15.994914619570
         O           -1.352413234124     1.080561046710    -0.221771029192    15.994914619570
         N            1.358809765876     1.305390046710     0.059634970808    14.003074004430
         C            0.625558565876    -0.153704053290     0.426000470808    12.000000000000
         C            1.502069765876    -1.123575953290    -0.235928029192    12.000000000000
         C           -0.792622234124    -0.033683953290     0.017765970808    12.000000000000
         H            0.753783765876    -0.089323953290     1.478447970808     1.007825032230
         H            2.549652765876    -1.091283953290     0.078932970808     1.007825032230
         H            1.065216765876    -2.080531953290     0.047340970808     1.007825032230
         H            1.471643765876    -1.051332953290    -1.329861029192     1.007825032230
         H            0.608513765876     1.992489046710     0.160234970808     1.007825032230
         H            1.529019765876     1.300181046710    -0.950132029192     1.007825032230

  Basis Set: AUG-CC-PVTZ
    Blend: AUG-CC-PVTZ
  Basis Set: (AUG-CC-PVTZ AUX)
    Blend: AUG-CC-PVTZ-JKFIT
	 Reference Energy          =    -321.3956360793172280 [Eh]
	 Singles Energy            =      -0.0000000000000000 [Eh]
	 Same-Spin Energy          =      -0.3269656170349635 [Eh]
	 Opposite-Spin Energy      =      -1.0108250604365785 [Eh]
	 Correlation Energy        =      -1.3377906774715420 [Eh]
	 Total Energy              =    -322.7334267567887878 [Eh]

	 ================> DF-SCS-MP2 Energies <==================
	-----------------------------------------------------------
	 SCS Same-Spin Scale       =       0.3333333333333333 [-]
	 SCS Opposite-Spin Scale   =       1.2000000000000000 [-]
	 SCS Same-Spin Energy      =      -0.1089885390116545 [Eh]
	 SCS Opposite-Spin Energy  =      -1.2129900725238942 [Eh]
	 SCS Correlation Energy    =      -1.3219786115355487 [Eh]
	 SCS Total Energy          =    -322.7176146908527699 [Eh]
	-----------------------------------------------------------

  Dipole Moment: [D]
     X:     4.1647      Y:    -0.7134      Z:    -0.0849     Total:     4.2262

*** Psi4 exiting successfully. Buy a developer a beer!
