                               Psi4 1.3.2 release

  ==> Input File <==

--------------------------------------------------------------------------
#psi4
#
memory 32 gb

molecule  {
-1 1
  O       -1.4366360    -1.1870470     0.0571230
  O       -1.4476160     1.0691130    -0.2107340
  N        1.2636070     1.2939420     0.0706720
  C        0.6179830     0.0092170     0.3932550
  C        1.3031412    -0.9845744    -0.1436145
  C       -0.8878250    -0.0451320     0.0288030
  H        0.6585810    -0.1007720     1.4894850
  H        2.4544500    -1.1027320     0.0899700
  H        0.9700140    -2.0919800     0.0583780
  H        1.3764410    -1.0627810    -1.3188240
  H        0.5133110     1.9810410     0.1712720
  H        1.4338170     1.2887330    -0.9390950
units angstrom
no_reorient  #important for SAPT in psi4, default
symmetry c1  #important for SAPT in psi4, default
}

set PROPERTIES_ORIGIN ["COM"]
properties('MP2/aug-cc-pvtz', properties = ['dipole'])
--------------------------------------------------------------------------

    Molecular point group: c1
  Charge       = -1
  Multiplicity = 1
  Basis Set: AUG-CC-PVTZ
    Blend: AUG-CC-PVTZ
  Basis Set: (AUG-CC-PVTZ AUX)
    Blend: AUG-CC-PVTZ-JKFIT

    Orbital Energies [Eh]
    ---------------------

    Doubly Occupied:

       1A    -20.304346     2A    -20.300336     3A    -15.386934
       4A    -11.144486     5A    -11.085374     6A    -11.082092
       7A     -1.173324     8A     -1.071507     9A     -1.037577
      10A     -0.872351    11A     -0.680041    12A     -0.552469
      13A     -0.515585    14A     -0.467580    15A     -0.448327
      16A     -0.407825    17A     -0.389817    18A     -0.346581
      19A     -0.340302    20A     -0.307328    21A     -0.281218
      22A     -0.215465    23A     -0.201423    24A     -0.195635

  @DF-RHF Final Energy:  -321.37797310965777

   => Energetics <=

    Nuclear Repulsion Energy =            241.2980983544647131
    One-Electron Energy =                -927.7362956961787859
    Two-Electron Energy =                 365.0602242320562709
    Total Energy =                       -321.3779731096577734
  Basis Set: (AUG-CC-PVTZ AUX)
    Blend: AUG-CC-PVTZ-RI
    Molecular point group: c1

    Geometry (in Angstrom), charge = -1, multiplicity = 1:

       Center              X                  Y                   Z               Mass
    ------------   -----------------  -----------------  -----------------  -----------------
         O           -1.339238964228    -1.219872361841     0.040975467071    15.994914619570
         O           -1.350218964228     1.036287638159    -0.226881532929    15.994914619570
         N            1.361004035772     1.261116638159     0.054524467071    14.003074004430
         C            0.715380035772    -0.023608361841     0.377107467071    12.000000000000
         C            1.400538235772    -1.017399761841    -0.159762032929    12.000000000000
         C           -0.790427964228    -0.077957361841     0.012655467071    12.000000000000
         H            0.755978035772    -0.133597361841     1.473337467071     1.007825032230
         H            2.551847035772    -1.135557361841     0.073822467071     1.007825032230
         H            1.067411035772    -2.124805361841     0.042230467071     1.007825032230
         H            1.473838035772    -1.095606361841    -1.334971532929     1.007825032230
         H            0.610708035772     1.948215638159     0.155124467071     1.007825032230
         H            1.531214035772     1.255907638159    -0.955242532929     1.007825032230

  Basis Set: AUG-CC-PVTZ
    Blend: AUG-CC-PVTZ
  Basis Set: (AUG-CC-PVTZ AUX)
    Blend: AUG-CC-PVTZ-JKFIT
	 Reference Energy          =    -321.3779731096577734 [Eh]
	 Singles Energy            =      -0.0000000000000000 [Eh]
	 Same-Spin Energy          =      -0.3287500568773948 [Eh]
	 Opposite-Spin Energy      =      -1.0109307737935329 [Eh]
	 Correlation Energy        =      -1.3396808306709276 [Eh]
	 Total Energy              =    -322.7176539403287165 [Eh]

	 ================> DF-SCS-MP2 Energies <==================
	-----------------------------------------------------------
	 SCS Same-Spin Scale       =       0.3333333333333333 [-]
	 SCS Opposite-Spin Scale   =       1.2000000000000000 [-]
	 SCS Same-Spin Energy      =      -0.1095833522924649 [Eh]
	 SCS Opposite-Spin Energy  =      -1.2131169285522394 [Eh]
	 SCS Correlation Energy    =      -1.3227002808447044 [Eh]
	 SCS Total Energy          =    -322.7006733905024589 [Eh]
	-----------------------------------------------------------

  Dipole Moment: [D]
     X:     4.2126      Y:    -0.0385      Z:    -0.0982     Total:     4.2139

*** Psi4 exiting successfully. Buy a developer a beer!
