                               Psi4 1.3.2 release

  ==> Input File <==

--------------------------------------------------------------------------
#psi4
#
memory 32 gb

molecule  {
-1 1
  O       -1.4366360    -1.1870470     0.0571230
  O       -1.4476160     1.0691130    -0.2107340
  N        1.2719811     1.3013115     0.1208825
  C        0.6179830     0.0092170     0.3932550
  C        1.4068670    -1.1350240    -0.2248910
  C       -0.8878250    -0.0451320     0.0288030
  H        0.6765897    -0.0668266     1.4915485
  H        2.4544500    -1.1027320     0.0899700
  H        0.9700140    -2.0919800     0.0583780
  H        1.3764410    -1.0627810    -1.3188240
  H        0.5133110     1.9810410     0.1712720
  H        1.4338170     1.2887330    -0.9390950
units angstrom
no_reorient  #important for SAPT in psi4, default
symmetry c1  #important for SAPT in psi4, default
}

set PROPERTIES_ORIGIN ["COM"]
properties('MP2/aug-cc-pvtz', properties = ['dipole'])
--------------------------------------------------------------------------

    Molecular point group: c1
  Charge       = -1
  Multiplicity = 1
  Basis Set: AUG-CC-PVTZ
    Blend: AUG-CC-PVTZ
  Basis Set: (AUG-CC-PVTZ AUX)
    Blend: AUG-CC-PVTZ-JKFIT

    Orbital Energies [Eh]
    ---------------------

    Doubly Occupied:

       1A    -20.303257     2A    -20.299271     3A    -15.392301
       4A    -11.142725     5A    -11.093509     6A    -11.072355
       7A     -1.170913     8A     -1.070038     9A     -1.019710
      10A     -0.841086    11A     -0.692593    12A     -0.541656
      13A     -0.496438    14A     -0.462188    15A     -0.433180
      16A     -0.398345    17A     -0.388690    18A     -0.370327
      19A     -0.349088    20A     -0.318278    21A     -0.282304
      22A     -0.216604    23A     -0.201079    24A     -0.196492

  @DF-RHF Final Energy:  -321.42399857503392

   => Energetics <=

    Nuclear Repulsion Energy =            237.6075876302414258
    One-Electron Energy =                -920.5583134972192738
    Two-Electron Energy =                 361.5267272919438710
    Total Energy =                       -321.4239985750339201
  Basis Set: (AUG-CC-PVTZ AUX)
    Blend: AUG-CC-PVTZ-RI
    Molecular point group: c1

    Geometry (in Angstrom), charge = -1, multiplicity = 1:

       Center              X                  Y                   Z               Mass
    ------------   -----------------  -----------------  -----------------  -----------------
         O           -1.354915073476    -1.200926527005     0.044043816179    15.994914619570
         O           -1.365895073476     1.055233472995    -0.223813183821    15.994914619570
         N            1.353702026524     1.287431972995     0.107803316179    14.003074004430
         C            0.699703926524    -0.004662527005     0.380175816179    12.000000000000
         C            1.488587926524    -1.148903527005    -0.237970183821    12.000000000000
         C           -0.806104073476    -0.059011527005     0.015723816179    12.000000000000
         H            0.758310626524    -0.080706127005     1.478469316179     1.007825032230
         H            2.536170926524    -1.116611527005     0.076890816179     1.007825032230
         H            1.051734926524    -2.105859527005     0.045298816179     1.007825032230
         H            1.458161926524    -1.076660527005    -1.331903183821     1.007825032230
         H            0.595031926524     1.967161472995     0.158192816179     1.007825032230
         H            1.515537926524     1.274853472995    -0.952174183821     1.007825032230

  Basis Set: AUG-CC-PVTZ
    Blend: AUG-CC-PVTZ
  Basis Set: (AUG-CC-PVTZ AUX)
    Blend: AUG-CC-PVTZ-JKFIT
	 Reference Energy          =    -321.4239985750339201 [Eh]
	 Singles Energy            =      -0.0000000000000000 [Eh]
	 Same-Spin Energy          =      -0.3259498509604732 [Eh]
	 Opposite-Spin Energy      =      -1.0078215361175866 [Eh]
	 Correlation Energy        =      -1.3337713870780599 [Eh]
	 Total Energy              =    -322.7577699621119791 [Eh]

	 ================> DF-SCS-MP2 Energies <==================
	-----------------------------------------------------------
	 SCS Same-Spin Scale       =       0.3333333333333333 [-]
	 SCS Opposite-Spin Scale   =       1.2000000000000000 [-]
	 SCS Same-Spin Energy      =      -0.1086499503201577 [Eh]
	 SCS Opposite-Spin Energy  =      -1.2093858433411040 [Eh]
	 SCS Correlation Energy    =      -1.3180357936612617 [Eh]
	 SCS Total Energy          =    -322.7420343686951583 [Eh]
	-----------------------------------------------------------

  Dipole Moment: [D]
     X:     4.4191      Y:    -0.1697      Z:    -0.2201     Total:     4.4278

*** Psi4 exiting successfully. Buy a developer a beer!
