                               Psi4 1.4a3.dev225

  ==> Input File <==

--------------------------------------------------------------------------
#psi4
#
memory 32 gb

molecule  {
-1 1
  O       -1.6933650     0.8030190    -0.4602720
  O       -1.1174780    -1.0749000     0.6904900
  N        1.4364130    -1.0622120    -0.3332000
  C        0.6126710     0.1580520    -0.4178300
  C        1.1905680     1.2200680     0.5150430
  C       -0.8738120    -0.0689040    -0.0451960
  H        0.6528320     0.5329630    -1.4473970
  H        2.2305690     1.4435080     0.2589170
  H        0.6009540     2.1390560     0.4596660
  H        1.1629700     0.8554330     1.5482090
  H        1.1685077    -1.6488644    -1.1007329
  H        1.0447980    -1.5551690     0.4751990
units angstrom
no_reorient  #important for SAPT in psi4, default
symmetry c1  #important for SAPT in psi4, default
}

set PROPERTIES_ORIGIN ["COM"]
properties('MP2/aug-cc-pvtz', properties = ['dipole'])
--------------------------------------------------------------------------

    Molecular point group: c1
  Charge       = -1
  Multiplicity = 1
  Basis Set: AUG-CC-PVTZ
    Blend: AUG-CC-PVTZ
  Basis Set: (AUG-CC-PVTZ AUX)
    Blend: AUG-CC-PVTZ-JKFIT

    Orbital Energies [Eh]
    ---------------------

    Doubly Occupied:

       1A    -20.302679     2A    -20.298775     3A    -15.384982
       4A    -11.140456     5A    -11.092298     6A    -11.070225
       7A     -1.170028     8A     -1.069704     9A     -1.023878
      10A     -0.844222    11A     -0.688393    12A     -0.543539
      13A     -0.508187    14A     -0.461471    15A     -0.424186
      16A     -0.407645    17A     -0.395067    18A     -0.366573
      19A     -0.346375    20A     -0.317891    21A     -0.282348
      22A     -0.216540    23A     -0.200652    24A     -0.192668

  @DF-RHF Final Energy:  -321.42936316693607

   => Energetics <=

    Nuclear Repulsion Energy =            238.2543392498031096
    One-Electron Energy =                -921.8698420266772473
    Two-Electron Energy =                 362.1861396099380386
    Total Energy =                       -321.4293631669360707
  Basis Set: (AUG-CC-PVTZ AUX)
    Blend: AUG-CC-PVTZ-RI
    Molecular point group: c1

    Geometry (in Angstrom), charge = -1, multiplicity = 1:

       Center              X                  Y                   Z               Mass
    ------------   -----------------  -----------------  -----------------  -----------------
         O           -1.616382171961     0.822687385406    -0.458410059883    15.994914619570
         O           -1.040495171961    -1.055231614594     0.692351940117    15.994914619570
         N            1.513395828039    -1.042543614594    -0.331338059883    14.003074004430
         C            0.689653828039     0.177720385406    -0.415968059883    12.000000000000
         C            1.267550828039     1.239736385406     0.516904940117    12.000000000000
         C           -0.796829171961    -0.049235614594    -0.043334059883    12.000000000000
         H            0.729814828039     0.552631385406    -1.445535059883     1.007825032230
         H            2.307551828039     1.463176385406     0.260778940117     1.007825032230
         H            0.677936828039     2.158724385406     0.461527940117     1.007825032230
         H            1.239952828039     0.875101385406     1.550070940117     1.007825032230
         H            1.245490528039    -1.629196014594    -1.098870959883     1.007825032230
         H            1.121780828039    -1.535500614594     0.477060940117     1.007825032230

  Basis Set: AUG-CC-PVTZ
    Blend: AUG-CC-PVTZ
  Basis Set: (AUG-CC-PVTZ AUX)
    Blend: AUG-CC-PVTZ-JKFIT
	 Reference Energy          =    -321.4293631669360707 [Eh]
	 Singles Energy            =      -0.0000000000000000 [Eh]
	 Same-Spin Energy          =      -0.3254782009537349 [Eh]
	 Opposite-Spin Energy      =      -1.0064164201873980 [Eh]
	 Correlation Energy        =      -1.3318946211411329 [Eh]
	 Total Energy              =    -322.7612577880772164 [Eh]

	 ================> DF-SCS-MP2 Energies <==================
	-----------------------------------------------------------
	 SCS Same-Spin Scale       =       0.3333333333333333 [-]
	 SCS Opposite-Spin Scale   =       1.2000000000000000 [-]
	 SCS Same-Spin Energy      =      -0.1084927336512450 [Eh]
	 SCS Opposite-Spin Energy  =      -1.2076997042248776 [Eh]
	 SCS Correlation Energy    =      -1.3161924378761225 [Eh]
	 SCS Total Energy          =    -322.7455556048121821 [Eh]
	-----------------------------------------------------------

  Dipole Moment: [D]
     X:     4.1163      Y:     0.3048      Z:    -0.7577     Total:     4.1965

*** Psi4 exiting successfully. Buy a developer a beer!
