                               Psi4 1.3.2 release

  ==> Input File <==

--------------------------------------------------------------------------
#psi4
#
memory 32 gb

molecule  {
-1 1
  O       -1.4366360    -1.1870470     0.0571230
  O       -1.4476160     1.0691130    -0.2107340
  N        1.2636070     1.2939420     0.0706720
  C        0.6179830     0.0092170     0.3932550
  C        1.4068670    -1.1350240    -0.2248910
  C       -0.8846580    -0.0435989     0.0157402
  H        0.6681761    -0.1001530     1.4891495
  H        2.4544500    -1.1027320     0.0899700
  H        0.9700140    -2.0919800     0.0583780
  H        1.3764410    -1.0627810    -1.3188240
  H        0.5133110     1.9810410     0.1712720
  H        1.4338170     1.2887330    -0.9390950
units angstrom
no_reorient  #important for SAPT in psi4, default
symmetry c1  #important for SAPT in psi4, default
}

set PROPERTIES_ORIGIN ["COM"]
properties('MP2/aug-cc-pvtz', properties = ['dipole'])
--------------------------------------------------------------------------

    Molecular point group: c1
  Charge       = -1
  Multiplicity = 1
  Basis Set: AUG-CC-PVTZ
    Blend: AUG-CC-PVTZ
  Basis Set: (AUG-CC-PVTZ AUX)
    Blend: AUG-CC-PVTZ-JKFIT

    Orbital Energies [Eh]
    ---------------------

    Doubly Occupied:

       1A    -20.303062     2A    -20.297757     3A    -15.385684
       4A    -11.141515     5A    -11.093563     6A    -11.071228
       7A     -1.170101     8A     -1.068847     9A     -1.021975
      10A     -0.842034    11A     -0.693796    12A     -0.540027
      13A     -0.501218    14A     -0.461009    15A     -0.441515
      16A     -0.399765    17A     -0.387799    18A     -0.371312
      19A     -0.348232    20A     -0.318776    21A     -0.278920
      22A     -0.215987    23A     -0.200236    24A     -0.194205

  @DF-RHF Final Energy:  -321.42820481165097

   => Energetics <=

    Nuclear Repulsion Energy =            237.9499192430241976
    One-Electron Energy =                -921.2591227205967925
    Two-Electron Energy =                 361.8809986659216520
    Total Energy =                       -321.4282048116509714
  Basis Set: (AUG-CC-PVTZ AUX)
    Blend: AUG-CC-PVTZ-RI
    Molecular point group: c1

    Geometry (in Angstrom), charge = -1, multiplicity = 1:

       Center              X                  Y                   Z               Mass
    ------------   -----------------  -----------------  -----------------  -----------------
         O           -1.353918495503    -1.199581844689     0.053837934251    15.994914619570
         O           -1.364898495503     1.056578155311    -0.214019065749    15.994914619570
         N            1.346324504497     1.281407155311     0.067386934251    14.003074004430
         C            0.700700504497    -0.003317844689     0.389969934251    12.000000000000
         C            1.489584504497    -1.147558844689    -0.228176065749    12.000000000000
         C           -0.801940495503    -0.056133744689     0.012455134251    12.000000000000
         H            0.750893604497    -0.112687844689     1.485864434251     1.007825032230
         H            2.537167504497    -1.115266844689     0.086684934251     1.007825032230
         H            1.052731504497    -2.104514844689     0.055092934251     1.007825032230
         H            1.459158504497    -1.075315844689    -1.322109065749     1.007825032230
         H            0.596028504497     1.968506155311     0.167986934251     1.007825032230
         H            1.516534504497     1.276198155311    -0.942380065749     1.007825032230

  Basis Set: AUG-CC-PVTZ
    Blend: AUG-CC-PVTZ
  Basis Set: (AUG-CC-PVTZ AUX)
    Blend: AUG-CC-PVTZ-JKFIT
	 Reference Energy          =    -321.4282048116509714 [Eh]
	 Singles Energy            =      -0.0000000000000000 [Eh]
	 Same-Spin Energy          =      -0.3256065288266611 [Eh]
	 Opposite-Spin Energy      =      -1.0066807766147403 [Eh]
	 Correlation Energy        =      -1.3322873054414015 [Eh]
	 Total Energy              =    -322.7604921170923831 [Eh]

	 ================> DF-SCS-MP2 Energies <==================
	-----------------------------------------------------------
	 SCS Same-Spin Scale       =       0.3333333333333333 [-]
	 SCS Opposite-Spin Scale   =       1.2000000000000000 [-]
	 SCS Same-Spin Energy      =      -0.1085355096088870 [Eh]
	 SCS Opposite-Spin Energy  =      -1.2080169319376883 [Eh]
	 SCS Correlation Energy    =      -1.3165524415465755 [Eh]
	 SCS Total Energy          =    -322.7447572531975197 [Eh]
	-----------------------------------------------------------

  Dipole Moment: [D]
     X:     4.4524      Y:    -0.1047      Z:    -0.2208     Total:     4.4590

*** Psi4 exiting successfully. Buy a developer a beer!
