                               Psi4 1.3.2 release

  ==> Input File <==

--------------------------------------------------------------------------
#psi4
#
memory 32 gb

molecule  {
-1 1
  O       -1.4366360    -1.1870470     0.0571230
  O       -1.4571863     1.0638488    -0.2125992
  N        1.2636070     1.2939420     0.0706720
  C        0.6181023    -0.0042516     0.3945196
  C        1.4068670    -1.1350240    -0.2248910
  C       -0.8878250    -0.0451320     0.0288030
  H        0.6585810    -0.1007720     1.4894850
  H        2.4544500    -1.1027320     0.0899700
  H        0.9700140    -2.0919800     0.0583780
  H        1.3764410    -1.0627810    -1.3188240
  H        0.5133110     1.9810410     0.1712720
  H        1.4338170     1.2887330    -0.9390950
units angstrom
no_reorient  #important for SAPT in psi4, default
symmetry c1  #important for SAPT in psi4, default
}

set PROPERTIES_ORIGIN ["COM"]
properties('MP2/aug-cc-pvtz', properties = ['dipole'])
--------------------------------------------------------------------------

    Molecular point group: c1
  Charge       = -1
  Multiplicity = 1
  Basis Set: AUG-CC-PVTZ
    Blend: AUG-CC-PVTZ
  Basis Set: (AUG-CC-PVTZ AUX)
    Blend: AUG-CC-PVTZ-JKFIT

    Orbital Energies [Eh]
    ---------------------

    Doubly Occupied:

       1A    -20.302228     2A    -20.297577     3A    -15.385752
       4A    -11.141311     5A    -11.094072     6A    -11.071708
       7A     -1.170040     8A     -1.068231     9A     -1.019099
      10A     -0.844492    11A     -0.694931    12A     -0.538863
      13A     -0.500521    14A     -0.461150    15A     -0.441120
      16A     -0.399504    17A     -0.388294    18A     -0.372539
      19A     -0.347780    20A     -0.320280    21A     -0.278550
      22A     -0.215306    23A     -0.199841    24A     -0.194285

  @DF-RHF Final Energy:  -321.42819382492098

   => Energetics <=

    Nuclear Repulsion Energy =            237.8434501086108810
    One-Electron Energy =                -921.0483406525274859
    Two-Electron Energy =                 361.7766967189955949
    Total Energy =                       -321.4281938249209816
  Basis Set: (AUG-CC-PVTZ AUX)
    Blend: AUG-CC-PVTZ-RI
    Molecular point group: c1

    Geometry (in Angstrom), charge = -1, multiplicity = 1:

       Center              X                  Y                   Z               Mass
    ------------   -----------------  -----------------  -----------------  -----------------
         O           -1.351654535426    -1.196573608499     0.052220107721    15.994914619570
         O           -1.372204835426     1.054322191501    -0.217502092279    15.994914619570
         N            1.348588464574     1.284415391501     0.065769107721    14.003074004430
         C            0.703083764574    -0.013778208499     0.389616707721    12.000000000000
         C            1.491848464574    -1.144550608499    -0.229793892279    12.000000000000
         C           -0.802843535426    -0.054658608499     0.023900107721    12.000000000000
         H            0.743562464574    -0.110298608499     1.484582107721     1.007825032230
         H            2.539431464574    -1.112258608499     0.085067107721     1.007825032230
         H            1.054995464574    -2.101506608499     0.053475107721     1.007825032230
         H            1.461422464574    -1.072307608499    -1.323726892279     1.007825032230
         H            0.598292464574     1.971514391501     0.166369107721     1.007825032230
         H            1.518798464574     1.279206391501    -0.943997892279     1.007825032230

  Basis Set: AUG-CC-PVTZ
    Blend: AUG-CC-PVTZ
  Basis Set: (AUG-CC-PVTZ AUX)
    Blend: AUG-CC-PVTZ-JKFIT
	 Reference Energy          =    -321.4281938249209816 [Eh]
	 Singles Energy            =      -0.0000000000000000 [Eh]
	 Same-Spin Energy          =      -0.3255573513134858 [Eh]
	 Opposite-Spin Energy      =      -1.0066385601104482 [Eh]
	 Correlation Energy        =      -1.3321959114239341 [Eh]
	 Total Energy              =    -322.7603897363449050 [Eh]

	 ================> DF-SCS-MP2 Energies <==================
	-----------------------------------------------------------
	 SCS Same-Spin Scale       =       0.3333333333333333 [-]
	 SCS Opposite-Spin Scale   =       1.2000000000000000 [-]
	 SCS Same-Spin Energy      =      -0.1085191171044953 [Eh]
	 SCS Opposite-Spin Energy  =      -1.2079662721325377 [Eh]
	 SCS Correlation Energy    =      -1.3164853892370330 [Eh]
	 SCS Total Energy          =    -322.7446792141579976 [Eh]
	-----------------------------------------------------------

  Dipole Moment: [D]
     X:     4.4696      Y:    -0.1669      Z:    -0.2034     Total:     4.4774

*** Psi4 exiting successfully. Buy a developer a beer!
