                               Psi4 1.3.2 release

  ==> Input File <==

--------------------------------------------------------------------------
#psi4
#
memory 32 gb

molecule  {
-1 1
  O       -1.4366360    -1.1870470     0.0571230
  O       -1.4476160     1.0691130    -0.2107340
  N        1.2747482     1.2894247     0.0752359
  C        0.6179830     0.0092170     0.3932550
  C        1.4068670    -1.1350240    -0.2248910
  C       -0.8884342    -0.0578178     0.0334628
  H        0.6585810    -0.1007720     1.4894850
  H        2.4544500    -1.1027320     0.0899700
  H        0.9700140    -2.0919800     0.0583780
  H        1.3764410    -1.0627810    -1.3188240
  H        0.5133110     1.9810410     0.1712720
  H        1.4338170     1.2887330    -0.9390950
units angstrom
no_reorient  #important for SAPT in psi4, default
symmetry c1  #important for SAPT in psi4, default
}

set PROPERTIES_ORIGIN ["COM"]
properties('MP2/aug-cc-pvtz', properties = ['dipole'])
--------------------------------------------------------------------------

    Molecular point group: c1
  Charge       = -1
  Multiplicity = 1
  Basis Set: AUG-CC-PVTZ
    Blend: AUG-CC-PVTZ
  Basis Set: (AUG-CC-PVTZ AUX)
    Blend: AUG-CC-PVTZ-JKFIT

    Orbital Energies [Eh]
    ---------------------

    Doubly Occupied:

       1A    -20.301749     2A    -20.299630     3A    -15.387466
       4A    -11.141818     5A    -11.093428     6A    -11.071329
       7A     -1.170954     8A     -1.069651     9A     -1.020261
      10A     -0.841733    11A     -0.694310    12A     -0.539308
      13A     -0.498140    14A     -0.461149    15A     -0.441052
      16A     -0.400485    17A     -0.387484    18A     -0.371599
      19A     -0.346640    20A     -0.319006    21A     -0.280997
      22A     -0.214678    23A     -0.200802    24A     -0.195231

  @DF-RHF Final Energy:  -321.42758952165627

   => Energetics <=

    Nuclear Repulsion Energy =            237.8329650245381970
    One-Electron Energy =                -921.0233056681031485
    Two-Electron Energy =                 361.7627511219086500
    Total Energy =                       -321.4275895216562731
  Basis Set: (AUG-CC-PVTZ AUX)
    Blend: AUG-CC-PVTZ-RI
    Molecular point group: c1

    Geometry (in Angstrom), charge = -1, multiplicity = 1:

       Center              X                  Y                   Z               Mass
    ------------   -----------------  -----------------  -----------------  -----------------
         O           -1.355066003844    -1.196918201796     0.050692563786    15.994914619570
         O           -1.366046003844     1.059241798204    -0.217164436214    15.994914619570
         N            1.356318196156     1.279553498204     0.068805463786    14.003074004430
         C            0.699552996156    -0.000654201796     0.386824563786    12.000000000000
         C            1.488436996156    -1.144895201796    -0.231321436214    12.000000000000
         C           -0.806864203844    -0.067689001796     0.027032363786    12.000000000000
         H            0.740150996156    -0.110643201796     1.483054563786     1.007825032230
         H            2.536019996156    -1.112603201796     0.083539563786     1.007825032230
         H            1.051583996156    -2.101851201796     0.051947563786     1.007825032230
         H            1.458010996156    -1.072652201796    -1.325254436214     1.007825032230
         H            0.594880996156     1.971169798204     0.164841563786     1.007825032230
         H            1.515386996156     1.278861798204    -0.945525436214     1.007825032230

  Basis Set: AUG-CC-PVTZ
    Blend: AUG-CC-PVTZ
  Basis Set: (AUG-CC-PVTZ AUX)
    Blend: AUG-CC-PVTZ-JKFIT
	 Reference Energy          =    -321.4275895216562731 [Eh]
	 Singles Energy            =      -0.0000000000000000 [Eh]
	 Same-Spin Energy          =      -0.3257254657577486 [Eh]
	 Opposite-Spin Energy      =      -1.0069284882194949 [Eh]
	 Correlation Energy        =      -1.3326539539772435 [Eh]
	 Total Energy              =    -322.7602434756335015 [Eh]

	 ================> DF-SCS-MP2 Energies <==================
	-----------------------------------------------------------
	 SCS Same-Spin Scale       =       0.3333333333333333 [-]
	 SCS Opposite-Spin Scale   =       1.2000000000000000 [-]
	 SCS Same-Spin Energy      =      -0.1085751552525829 [Eh]
	 SCS Opposite-Spin Energy  =      -1.2083141858633939 [Eh]
	 SCS Correlation Energy    =      -1.3168893411159768 [Eh]
	 SCS Total Energy          =    -322.7444788627722687 [Eh]
	-----------------------------------------------------------

  Dipole Moment: [D]
     X:     4.4272      Y:    -0.2699      Z:    -0.1952     Total:     4.4397

*** Psi4 exiting successfully. Buy a developer a beer!
