                               Psi4 1.3.2 release

  ==> Input File <==

--------------------------------------------------------------------------
#psi4
#
memory 32 gb

molecule  {
-1 1
  O       -1.4366360    -1.1870470     0.0571230
  O       -1.4476160     1.0691130    -0.2107340
  N        1.2636070     1.2939420     0.0706720
  C        0.6179830     0.0092170     0.3932550
  C        1.4068670    -1.1350240    -0.2248910
  C       -0.8012117     0.1350850     0.0243335
  H        0.6585810    -0.1007720     1.4894850
  H        2.4544500    -1.1027320     0.0899700
  H        0.9700140    -2.0919800     0.0583780
  H        1.3764410    -1.0627810    -1.3188240
  H        0.5133110     1.9810410     0.1712720
  H        1.4338170     1.2887330    -0.9390950
units angstrom
no_reorient  #important for SAPT in psi4, default
symmetry c1  #important for SAPT in psi4, default
}

set PROPERTIES_ORIGIN ["COM"]
properties('MP2/aug-cc-pvtz', properties = ['dipole'])
--------------------------------------------------------------------------

    Molecular point group: c1
  Charge       = -1
  Multiplicity = 1
  Basis Set: AUG-CC-PVTZ
    Blend: AUG-CC-PVTZ
  Basis Set: (AUG-CC-PVTZ AUX)
    Blend: AUG-CC-PVTZ-JKFIT

    Orbital Energies [Eh]
    ---------------------

    Doubly Occupied:

       1A    -20.340751     2A    -20.256137     3A    -15.393437
       4A    -11.141326     5A    -11.102218     6A    -11.075434
       7A     -1.230540     8A     -1.041402     9A     -0.979663
      10A     -0.845193    11A     -0.718457    12A     -0.555411
      13A     -0.513040    14A     -0.484734    15A     -0.449272
      16A     -0.404671    17A     -0.391823    18A     -0.380959
      19A     -0.354331    20A     -0.332643    21A     -0.279345
      22A     -0.196363    23A     -0.171215    24A     -0.165439

  @DF-RHF Final Energy:  -321.37384006210289

   => Energetics <=

    Nuclear Repulsion Energy =            238.5370903171733801
    One-Electron Energy =                -922.2142531214427663
    Two-Electron Energy =                 362.3033227421665288
    Total Energy =                       -321.3738400621028859
  Basis Set: (AUG-CC-PVTZ AUX)
    Blend: AUG-CC-PVTZ-RI
    Molecular point group: c1

    Geometry (in Angstrom), charge = -1, multiplicity = 1:

       Center              X                  Y                   Z               Mass
    ------------   -----------------  -----------------  -----------------  -----------------
         O           -1.365182546718    -1.223929715256     0.052662810471    15.994914619570
         O           -1.376162546718     1.032230284744    -0.215194189529    15.994914619570
         N            1.335060453282     1.257059284744     0.066211810471    14.003074004430
         C            0.689436453282    -0.027665715256     0.388794810471    12.000000000000
         C            1.478320453282    -1.171906715256    -0.229351189529    12.000000000000
         C           -0.729758246718     0.098202284744     0.019873310471    12.000000000000
         H            0.730034453282    -0.137654715256     1.485024810471     1.007825032230
         H            2.525903453282    -1.139614715256     0.085509810471     1.007825032230
         H            1.041467453282    -2.128862715256     0.053917810471     1.007825032230
         H            1.447894453282    -1.099663715256    -1.323284189529     1.007825032230
         H            0.584764453282     1.944158284744     0.166811810471     1.007825032230
         H            1.505270453282     1.251850284744    -0.943555189529     1.007825032230

  Basis Set: AUG-CC-PVTZ
    Blend: AUG-CC-PVTZ
  Basis Set: (AUG-CC-PVTZ AUX)
    Blend: AUG-CC-PVTZ-JKFIT
	 Reference Energy          =    -321.3738400621028859 [Eh]
	 Singles Energy            =      -0.0000000000000000 [Eh]
	 Same-Spin Energy          =      -0.3272808267489366 [Eh]
	 Opposite-Spin Energy      =      -1.0110664867053591 [Eh]
	 Correlation Energy        =      -1.3383473134542958 [Eh]
	 Total Energy              =    -322.7121873755571642 [Eh]

	 ================> DF-SCS-MP2 Energies <==================
	-----------------------------------------------------------
	 SCS Same-Spin Scale       =       0.3333333333333333 [-]
	 SCS Opposite-Spin Scale   =       1.2000000000000000 [-]
	 SCS Same-Spin Energy      =      -0.1090936089163122 [Eh]
	 SCS Opposite-Spin Energy  =      -1.2132797840464309 [Eh]
	 SCS Correlation Energy    =      -1.3223733929627430 [Eh]
	 SCS Total Energy          =    -322.6962134550656174 [Eh]
	-----------------------------------------------------------

  Dipole Moment: [D]
     X:     5.0521      Y:     1.6678      Z:    -0.3124     Total:     5.3295

*** Psi4 exiting successfully. Buy a developer a beer!
