                               Psi4 1.3.2 release

  ==> Input File <==

--------------------------------------------------------------------------
#psi4
#
memory 32 gb

molecule  {
-1 1
  O       -1.4366360    -1.1870470     0.0571230
  O       -1.4476160     1.0691130    -0.2107340
  N        1.2636070     1.2939420     0.0706720
  C        0.6179830     0.0092170     0.3932550
  C        1.4587299    -1.2102488    -0.2655292
  C       -0.8878250    -0.0451320     0.0288030
  H        0.6585810    -0.1007720     1.4894850
  H        2.4544500    -1.1027320     0.0899700
  H        0.9700140    -2.0919800     0.0583780
  H        1.3764410    -1.0627810    -1.3188240
  H        0.5133110     1.9810410     0.1712720
  H        1.4338170     1.2887330    -0.9390950
units angstrom
no_reorient  #important for SAPT in psi4, default
symmetry c1  #important for SAPT in psi4, default
}

set PROPERTIES_ORIGIN ["COM"]
properties('MP2/aug-cc-pvtz', properties = ['dipole'])
--------------------------------------------------------------------------

    Molecular point group: c1
  Charge       = -1
  Multiplicity = 1
  Basis Set: AUG-CC-PVTZ
    Blend: AUG-CC-PVTZ
  Basis Set: (AUG-CC-PVTZ AUX)
    Blend: AUG-CC-PVTZ-JKFIT

    Orbital Energies [Eh]
    ---------------------

    Doubly Occupied:

       1A    -20.302167     2A    -20.298090     3A    -15.386137
       4A    -11.141150     5A    -11.098286     6A    -11.068317
       7A     -1.169591     8A     -1.068956     9A     -1.018039
      10A     -0.833608    11A     -0.699018    12A     -0.535487
      13A     -0.497474    14A     -0.460985    15A     -0.443030
      16A     -0.405880    17A     -0.400536    18A     -0.377836
      19A     -0.341947    20A     -0.305187    21A     -0.277696
      22A     -0.215557    23A     -0.200347    24A     -0.193659

  @DF-RHF Final Energy:  -321.42131626035177

   => Energetics <=

    Nuclear Repulsion Energy =            236.4377557176654818
    One-Electron Energy =                -918.2401807022621369
    Two-Electron Energy =                 360.3811087242448821
    Total Energy =                       -321.4213162603517731
  Basis Set: (AUG-CC-PVTZ AUX)
    Blend: AUG-CC-PVTZ-RI
    Molecular point group: c1

    Geometry (in Angstrom), charge = -1, multiplicity = 1:

       Center              X                  Y                   Z               Mass
    ------------   -----------------  -----------------  -----------------  -----------------
         O           -1.360446000895    -1.189112510544     0.057592673290    15.994914619570
         O           -1.371426000895     1.067047489456    -0.210264326710    15.994914619570
         N            1.339796999105     1.291876489456     0.071141673290    14.003074004430
         C            0.694172999105     0.007151489456     0.393724673290    12.000000000000
         C            1.534919899105    -1.212314310544    -0.265059526710    12.000000000000
         C           -0.811635000895    -0.047197510544     0.029272673290    12.000000000000
         H            0.734770999105    -0.102837510544     1.489954673290     1.007825032230
         H            2.530639999105    -1.104797510544     0.090439673290     1.007825032230
         H            1.046203999105    -2.094045510544     0.058847673290     1.007825032230
         H            1.452630999105    -1.064846510544    -1.318354326710     1.007825032230
         H            0.589500999105     1.978975489456     0.171741673290     1.007825032230
         H            1.510006999105     1.286667489456    -0.938625326710     1.007825032230

  Basis Set: AUG-CC-PVTZ
    Blend: AUG-CC-PVTZ
  Basis Set: (AUG-CC-PVTZ AUX)
    Blend: AUG-CC-PVTZ-JKFIT
	 Reference Energy          =    -321.4213162603517731 [Eh]
	 Singles Energy            =      -0.0000000000000000 [Eh]
	 Same-Spin Energy          =      -0.3253047448718243 [Eh]
	 Opposite-Spin Energy      =      -1.0065762086581100 [Eh]
	 Correlation Energy        =      -1.3318809535299343 [Eh]
	 Total Energy              =    -322.7531972138817196 [Eh]

	 ================> DF-SCS-MP2 Energies <==================
	-----------------------------------------------------------
	 SCS Same-Spin Scale       =       0.3333333333333333 [-]
	 SCS Opposite-Spin Scale   =       1.2000000000000000 [-]
	 SCS Same-Spin Energy      =      -0.1084349149572748 [Eh]
	 SCS Opposite-Spin Energy  =      -1.2078914503897320 [Eh]
	 SCS Correlation Energy    =      -1.3163263653470068 [Eh]
	 SCS Total Energy          =    -322.7376426256987543 [Eh]
	-----------------------------------------------------------

  Dipole Moment: [D]
     X:     4.4800      Y:    -0.1107      Z:    -0.2295     Total:     4.4872

*** Psi4 exiting successfully. Buy a developer a beer!
