                               Psi4 1.4a3.dev225

  ==> Input File <==

--------------------------------------------------------------------------
#psi4
#
memory 32 gb

molecule  {
-1 1
  O       -1.6933650     0.8030190    -0.4602720
  O       -1.1174780    -1.0749000     0.6904900
  N        1.4364130    -1.0622120    -0.3332000
  C        0.6126710     0.1580520    -0.4178300
  C        1.1905680     1.2200680     0.5150430
  C       -0.8867533    -0.0551358    -0.0517503
  H        0.6528320     0.5329630    -1.4473970
  H        2.2305690     1.4435080     0.2589170
  H        0.6009540     2.1390560     0.4596660
  H        1.1629700     0.8554330     1.5482090
  H        1.1631630    -1.6605680    -1.1160450
  H        1.0447980    -1.5551690     0.4751990
units angstrom
no_reorient  #important for SAPT in psi4, default
symmetry c1  #important for SAPT in psi4, default
}

set PROPERTIES_ORIGIN ["COM"]
properties('MP2/aug-cc-pvtz', properties = ['dipole'])
--------------------------------------------------------------------------

    Molecular point group: c1
  Charge       = -1
  Multiplicity = 1
  Basis Set: AUG-CC-PVTZ
    Blend: AUG-CC-PVTZ
  Basis Set: (AUG-CC-PVTZ AUX)
    Blend: AUG-CC-PVTZ-JKFIT

    Orbital Energies [Eh]
    ---------------------

    Doubly Occupied:

       1A    -20.303254     2A    -20.298769     3A    -15.386595
       4A    -11.140133     5A    -11.091482     6A    -11.069763
       7A     -1.173253     8A     -1.072237     9A     -1.019478
      10A     -0.842381    11A     -0.686068    12A     -0.541472
      13A     -0.504197    14A     -0.461665    15A     -0.424319
      16A     -0.407044    17A     -0.395952    18A     -0.365979
      19A     -0.346535    20A     -0.318281    21A     -0.283228
      22A     -0.215694    23A     -0.201704    24A     -0.191541

  @DF-RHF Final Energy:  -321.42918969200321

   => Energetics <=

    Nuclear Repulsion Energy =            238.1166149900169557
    One-Electron Energy =                -921.6095625203382724
    Two-Electron Energy =                 362.0637578383181108
    Total Energy =                       -321.4291896920032059
  Basis Set: (AUG-CC-PVTZ AUX)
    Blend: AUG-CC-PVTZ-RI
    Molecular point group: c1

    Geometry (in Angstrom), charge = -1, multiplicity = 1:

       Center              X                  Y                   Z               Mass
    ------------   -----------------  -----------------  -----------------  -----------------
         O           -1.614557065305     0.820944728950    -0.457341412969    15.994914619570
         O           -1.038670065305    -1.056974271050     0.693420587031    15.994914619570
         N            1.515220934695    -1.044286271050    -0.330269412969    14.003074004430
         C            0.691478934695     0.175977728950    -0.414899412969    12.000000000000
         C            1.269375934695     1.237993728950     0.517973587031    12.000000000000
         C           -0.807945365305    -0.037210071050    -0.048819712969    12.000000000000
         H            0.731639934695     0.550888728950    -1.444466412969     1.007825032230
         H            2.309376934695     1.461433728950     0.261847587031     1.007825032230
         H            0.679761934695     2.156981728950     0.462596587031     1.007825032230
         H            1.241777934695     0.873358728950     1.551139587031     1.007825032230
         H            1.241970934695    -1.642642271050    -1.113114412969     1.007825032230
         H            1.123605934695    -1.537243271050     0.478129587031     1.007825032230

  Basis Set: AUG-CC-PVTZ
    Blend: AUG-CC-PVTZ
  Basis Set: (AUG-CC-PVTZ AUX)
    Blend: AUG-CC-PVTZ-JKFIT
	 Reference Energy          =    -321.4291896920032059 [Eh]
	 Singles Energy            =      -0.0000000000000000 [Eh]
	 Same-Spin Energy          =      -0.3254284735028520 [Eh]
	 Opposite-Spin Energy      =      -1.0064331787014065 [Eh]
	 Correlation Energy        =      -1.3318616522042586 [Eh]
	 Total Energy              =    -322.7610513442074875 [Eh]

	 ================> DF-SCS-MP2 Energies <==================
	-----------------------------------------------------------
	 SCS Same-Spin Scale       =       0.3333333333333333 [-]
	 SCS Opposite-Spin Scale   =       1.2000000000000000 [-]
	 SCS Same-Spin Energy      =      -0.1084761578342840 [Eh]
	 SCS Opposite-Spin Energy  =      -1.2077198144416876 [Eh]
	 SCS Correlation Energy    =      -1.3161959722759715 [Eh]
	 SCS Total Energy          =    -322.7453856642791834 [Eh]
	-----------------------------------------------------------

  Dipole Moment: [D]
     X:     4.0099      Y:     0.4518      Z:    -0.8421     Total:     4.1222

*** Psi4 exiting successfully. Buy a developer a beer!
