                               Psi4 1.3.2 release

  ==> Input File <==

--------------------------------------------------------------------------
#psi4
#
memory 32 gb

molecule  {
-1 1
  O       -1.4366360    -1.1870470     0.0571230
  O       -1.4476160     1.0691130    -0.2107340
  N        1.2613901     1.2918547     0.0581784
  C        0.6179830     0.0092170     0.3932550
  C        1.4068670    -1.1350240    -0.2248910
  C       -0.8878250    -0.0451320     0.0288030
  H        0.6540702    -0.1092390     1.4887603
  H        2.4544500    -1.1027320     0.0899700
  H        0.9700140    -2.0919800     0.0583780
  H        1.3764410    -1.0627810    -1.3188240
  H        0.5133110     1.9810410     0.1712720
  H        1.4338170     1.2887330    -0.9390950
units angstrom
no_reorient  #important for SAPT in psi4, default
symmetry c1  #important for SAPT in psi4, default
}

set PROPERTIES_ORIGIN ["COM"]
properties('MP2/aug-cc-pvtz', properties = ['dipole'])
--------------------------------------------------------------------------

    Molecular point group: c1
  Charge       = -1
  Multiplicity = 1
  Basis Set: AUG-CC-PVTZ
    Blend: AUG-CC-PVTZ
  Basis Set: (AUG-CC-PVTZ AUX)
    Blend: AUG-CC-PVTZ-JKFIT

    Orbital Energies [Eh]
    ---------------------

    Doubly Occupied:

       1A    -20.301995     2A    -20.298125     3A    -15.384187
       4A    -11.140999     5A    -11.093454     6A    -11.071175
       7A     -1.169907     8A     -1.069050     9A     -1.022321
      10A     -0.842315    11A     -0.694915    12A     -0.538423
      13A     -0.502491    14A     -0.460570    15A     -0.444040
      16A     -0.400212    17A     -0.387690    18A     -0.371870
      19A     -0.347913    20A     -0.318898    21A     -0.278253
      22A     -0.215400    23A     -0.200198    24A     -0.193402

  @DF-RHF Final Energy:  -321.42881356764400

   => Energetics <=

    Nuclear Repulsion Energy =            238.0288787626184046
    One-Electron Energy =                -921.4197807838501149
    Two-Electron Energy =                 361.9620884535876826
    Total Energy =                       -321.4288135676439992
  Basis Set: (AUG-CC-PVTZ AUX)
    Blend: AUG-CC-PVTZ-RI
    Molecular point group: c1

    Geometry (in Angstrom), charge = -1, multiplicity = 1:

       Center              X                  Y                   Z               Mass
    ------------   -----------------  -----------------  -----------------  -----------------
         O           -1.352972745475    -1.198936876388     0.054049059669    15.994914619570
         O           -1.363952745475     1.057223123612    -0.213807940331    15.994914619570
         N            1.345053354525     1.279964823612     0.055104459669    14.003074004430
         C            0.701646254525    -0.002672876388     0.390181059669    12.000000000000
         C            1.490530254525    -1.146913876388    -0.227964940331    12.000000000000
         C           -0.804161745475    -0.057021876388     0.025729059669    12.000000000000
         H            0.737733454525    -0.121128876388     1.485686359669     1.007825032230
         H            2.538113254525    -1.114621876388     0.086896059669     1.007825032230
         H            1.053677254525    -2.103869876388     0.055304059669     1.007825032230
         H            1.460104254525    -1.074670876388    -1.321897940331     1.007825032230
         H            0.596974254525     1.969151123612     0.168198059669     1.007825032230
         H            1.517480254525     1.276843123612    -0.942168940331     1.007825032230

  Basis Set: AUG-CC-PVTZ
    Blend: AUG-CC-PVTZ
  Basis Set: (AUG-CC-PVTZ AUX)
    Blend: AUG-CC-PVTZ-JKFIT
	 Reference Energy          =    -321.4288135676439992 [Eh]
	 Singles Energy            =      -0.0000000000000000 [Eh]
	 Same-Spin Energy          =      -0.3255087935542572 [Eh]
	 Opposite-Spin Energy      =      -1.0063118238872608 [Eh]
	 Correlation Energy        =      -1.3318206174415179 [Eh]
	 Total Energy              =    -322.7606341850855074 [Eh]

	 ================> DF-SCS-MP2 Energies <==================
	-----------------------------------------------------------
	 SCS Same-Spin Scale       =       0.3333333333333333 [-]
	 SCS Opposite-Spin Scale   =       1.2000000000000000 [-]
	 SCS Same-Spin Energy      =      -0.1085029311847524 [Eh]
	 SCS Opposite-Spin Energy  =      -1.2075741886647129 [Eh]
	 SCS Correlation Energy    =      -1.3160771198494652 [Eh]
	 SCS Total Energy          =    -322.7448906874934664 [Eh]
	-----------------------------------------------------------

  Dipole Moment: [D]
     X:     4.4577      Y:    -0.1250      Z:    -0.2079     Total:     4.4643

*** Psi4 exiting successfully. Buy a developer a beer!
