                               Psi4 1.3.2 release

  ==> Input File <==

--------------------------------------------------------------------------
#psi4
#
memory 32 gb

molecule  {
-1 1
  O       -1.4366360    -1.1870470     0.0571230
  O       -1.4476160     1.0691130    -0.2107340
  N        1.2636070     1.2939420     0.0706720
  C        0.6179830     0.0092170     0.3932550
  C        1.4068670    -1.1350240    -0.2248910
  C       -0.8878250    -0.0451320     0.0288030
  H        0.6659458    -0.1207250     1.6883509
  H        2.4544500    -1.1027320     0.0899700
  H        0.9700140    -2.0919800     0.0583780
  H        1.3764410    -1.0627810    -1.3188240
  H        0.5133110     1.9810410     0.1712720
  H        1.4338170     1.2887330    -0.9390950
units angstrom
no_reorient  #important for SAPT in psi4, default
symmetry c1  #important for SAPT in psi4, default
}

set PROPERTIES_ORIGIN ["COM"]
properties('MP2/aug-cc-pvtz', properties = ['dipole'])
--------------------------------------------------------------------------

    Molecular point group: c1
  Charge       = -1
  Multiplicity = 1
  Basis Set: AUG-CC-PVTZ
    Blend: AUG-CC-PVTZ
  Basis Set: (AUG-CC-PVTZ AUX)
    Blend: AUG-CC-PVTZ-JKFIT

    Orbital Energies [Eh]
    ---------------------

    Doubly Occupied:

       1A    -20.304118     2A    -20.299534     3A    -15.389824
       4A    -11.144548     5A    -11.118711     6A    -11.074433
       7A     -1.171601     8A     -1.070786     9A     -1.023508
      10A     -0.841755    11A     -0.684952    12A     -0.531994
      13A     -0.500769    14A     -0.462178    15A     -0.438838
      16A     -0.401785    17A     -0.389757    18A     -0.367958
      19A     -0.349558    20A     -0.307766    21A     -0.275548
      22A     -0.217226    23A     -0.201679    24A     -0.195258

  @DF-RHF Final Energy:  -321.40914316792845

   => Energetics <=

    Nuclear Repulsion Energy =            237.0195166980240060
    One-Electron Energy =                -919.3291530605320077
    Two-Electron Energy =                 360.9004931945794965
    Total Energy =                       -321.4091431679284483
  Basis Set: (AUG-CC-PVTZ AUX)
    Blend: AUG-CC-PVTZ-RI
    Molecular point group: c1

    Geometry (in Angstrom), charge = -1, multiplicity = 1:

       Center              X                  Y                   Z               Mass
    ------------   -----------------  -----------------  -----------------  -----------------
         O           -1.353461296285    -1.199137384878     0.049777116980    15.994914619570
         O           -1.364441296285     1.057022615122    -0.218079883020    15.994914619570
         N            1.346781703715     1.281851615122     0.063326116980    14.003074004430
         C            0.701157703715    -0.002873384878     0.385909116980    12.000000000000
         C            1.490041703715    -1.147114384878    -0.232236883020    12.000000000000
         C           -0.804650296285    -0.057222384878     0.021457116980    12.000000000000
         H            0.749120503715    -0.132815384878     1.681005016980     1.007825032230
         H            2.537624703715    -1.114822384878     0.082624116980     1.007825032230
         H            1.053188703715    -2.104070384878     0.051032116980     1.007825032230
         H            1.459615703715    -1.074871384878    -1.326169883020     1.007825032230
         H            0.596485703715     1.968950615122     0.163926116980     1.007825032230
         H            1.516991703715     1.276642615122    -0.946440883020     1.007825032230

  Basis Set: AUG-CC-PVTZ
    Blend: AUG-CC-PVTZ
  Basis Set: (AUG-CC-PVTZ AUX)
    Blend: AUG-CC-PVTZ-JKFIT
	 Reference Energy          =    -321.4091431679284483 [Eh]
	 Singles Energy            =      -0.0000000000000000 [Eh]
	 Same-Spin Energy          =      -0.3256955218864914 [Eh]
	 Opposite-Spin Energy      =      -1.0081305465468591 [Eh]
	 Correlation Energy        =      -1.3338260684333505 [Eh]
	 Total Energy              =    -322.7429692363617733 [Eh]

	 ================> DF-SCS-MP2 Energies <==================
	-----------------------------------------------------------
	 SCS Same-Spin Scale       =       0.3333333333333333 [-]
	 SCS Opposite-Spin Scale   =       1.2000000000000000 [-]
	 SCS Same-Spin Energy      =      -0.1085651739621638 [Eh]
	 SCS Opposite-Spin Energy  =      -1.2097566558562309 [Eh]
	 SCS Correlation Energy    =      -1.3183218298183947 [Eh]
	 SCS Total Energy          =    -322.7274649977468357 [Eh]
	-----------------------------------------------------------

  Dipole Moment: [D]
     X:     4.4475      Y:    -0.0866      Z:    -0.4526     Total:     4.4713

*** Psi4 exiting successfully. Buy a developer a beer!
