                               Psi4 1.3.2 release

  ==> Input File <==

--------------------------------------------------------------------------
#psi4
#
memory 32 gb

molecule  {
-1 1
  O       -1.4268679    -1.1916278     0.0595523
  O       -1.4378713     1.0742293    -0.2094513
  N        1.2636070     1.2939420     0.0706720
  C        0.6179830     0.0092170     0.3932550
  C        1.4068670    -1.1350240    -0.2248910
  C       -0.8878250    -0.0451320     0.0288030
  H        0.6585810    -0.1007720     1.4894850
  H        2.4544500    -1.1027320     0.0899700
  H        0.9700140    -2.0919800     0.0583780
  H        1.3764410    -1.0627810    -1.3188240
  H        0.5133110     1.9810410     0.1712720
  H        1.4338170     1.2887330    -0.9390950
units angstrom
no_reorient  #important for SAPT in psi4, default
symmetry c1  #important for SAPT in psi4, default
}

set PROPERTIES_ORIGIN ["COM"]
properties('MP2/aug-cc-pvtz', properties = ['dipole'])
--------------------------------------------------------------------------

    Molecular point group: c1
  Charge       = -1
  Multiplicity = 1
  Basis Set: AUG-CC-PVTZ
    Blend: AUG-CC-PVTZ
  Basis Set: (AUG-CC-PVTZ AUX)
    Blend: AUG-CC-PVTZ-JKFIT

    Orbital Energies [Eh]
    ---------------------

    Doubly Occupied:

       1A    -20.303228     2A    -20.299347     3A    -15.384849
       4A    -11.141867     5A    -11.092199     6A    -11.070704
       7A     -1.170343     8A     -1.071144     9A     -1.020804
      10A     -0.841234    11A     -0.693633    12A     -0.538592
      13A     -0.500706    14A     -0.461148    15A     -0.441096
      16A     -0.400520    17A     -0.387708    18A     -0.371556
      19A     -0.347578    20A     -0.318685    21A     -0.278709
      22A     -0.216942    23A     -0.201517    24A     -0.193416

  @DF-RHF Final Energy:  -321.42854770903494

   => Energetics <=

    Nuclear Repulsion Energy =            238.0615626573455756
    One-Electron Energy =                -921.4851639612376175
    Two-Electron Energy =                 361.9950535948570973
    Total Energy =                       -321.4285477090349445
  Basis Set: (AUG-CC-PVTZ AUX)
    Blend: AUG-CC-PVTZ-RI
    Molecular point group: c1

    Geometry (in Angstrom), charge = -1, multiplicity = 1:

       Center              X                  Y                   Z               Mass
    ------------   -----------------  -----------------  -----------------  -----------------
         O           -1.347153937396    -1.204043882940     0.053808519931    15.994914619570
         O           -1.358157337396     1.061813217060    -0.215195080069    15.994914619570
         N            1.343320962604     1.281525917060     0.064928219931    14.003074004430
         C            0.697696962604    -0.003199082940     0.387511219931    12.000000000000
         C            1.486580962604    -1.147440082940    -0.230634780069    12.000000000000
         C           -0.808111037396    -0.057548082940     0.023059219931    12.000000000000
         H            0.738294962604    -0.113188082940     1.483741219931     1.007825032230
         H            2.534163962604    -1.115148082940     0.084226219931     1.007825032230
         H            1.049727962604    -2.104396082940     0.052634219931     1.007825032230
         H            1.456154962604    -1.075197082940    -1.324567780069     1.007825032230
         H            0.593024962604     1.968624917060     0.165528219931     1.007825032230
         H            1.513530962604     1.276316917060    -0.944838780069     1.007825032230

  Basis Set: AUG-CC-PVTZ
    Blend: AUG-CC-PVTZ
  Basis Set: (AUG-CC-PVTZ AUX)
    Blend: AUG-CC-PVTZ-JKFIT
	 Reference Energy          =    -321.4285477090349445 [Eh]
	 Singles Energy            =      -0.0000000000000000 [Eh]
	 Same-Spin Energy          =      -0.3256340994229514 [Eh]
	 Opposite-Spin Energy      =      -1.0066350645307844 [Eh]
	 Correlation Energy        =      -1.3322691639537358 [Eh]
	 Total Energy              =    -322.7608168729886984 [Eh]

	 ================> DF-SCS-MP2 Energies <==================
	-----------------------------------------------------------
	 SCS Same-Spin Scale       =       0.3333333333333333 [-]
	 SCS Opposite-Spin Scale   =       1.2000000000000000 [-]
	 SCS Same-Spin Energy      =      -0.1085446998076505 [Eh]
	 SCS Opposite-Spin Energy  =      -1.2079620774369413 [Eh]
	 SCS Correlation Energy    =      -1.3165067772445918 [Eh]
	 SCS Total Energy          =    -322.7450544862795141 [Eh]
	-----------------------------------------------------------

  Dipole Moment: [D]
     X:     4.3891      Y:    -0.1361      Z:    -0.2198     Total:     4.3967

*** Psi4 exiting successfully. Buy a developer a beer!
