                               Psi4 1.3.2 release

  ==> Input File <==

--------------------------------------------------------------------------
#psi4
#
memory 32 gb

molecule  {
-1 1
  O       -1.4366360    -1.1870470     0.0571230
  O       -1.4476160     1.0691130    -0.2107340
  N        1.2544572     1.3001292     0.0772569
  C        0.6179830     0.0092170     0.3932550
  C        1.3981676    -1.1436788    -0.2198300
  C       -0.8878250    -0.0451320     0.0288030
  H        0.6585810    -0.1007720     1.4894850
  H        2.4544500    -1.1027320     0.0899700
  H        0.9700140    -2.0919800     0.0583780
  H        1.3764410    -1.0627810    -1.3188240
  H        0.5133110     1.9810410     0.1712720
  H        1.4338170     1.2887330    -0.9390950
units angstrom
no_reorient  #important for SAPT in psi4, default
symmetry c1  #important for SAPT in psi4, default
}

set PROPERTIES_ORIGIN ["COM"]
properties('MP2/aug-cc-pvtz', properties = ['dipole'])
--------------------------------------------------------------------------

    Molecular point group: c1
  Charge       = -1
  Multiplicity = 1
  Basis Set: AUG-CC-PVTZ
    Blend: AUG-CC-PVTZ
  Basis Set: (AUG-CC-PVTZ AUX)
    Blend: AUG-CC-PVTZ-JKFIT

    Orbital Energies [Eh]
    ---------------------

    Doubly Occupied:

       1A    -20.301901     2A    -20.298120     3A    -15.385738
       4A    -11.140973     5A    -11.093431     6A    -11.072068
       7A     -1.169906     8A     -1.069071     9A     -1.021754
      10A     -0.842991    11A     -0.693965    12A     -0.538715
      13A     -0.503793    14A     -0.460162    15A     -0.440898
      16A     -0.399471    17A     -0.388307    18A     -0.370137
      19A     -0.352220    20A     -0.318177    21A     -0.278678
      22A     -0.215346    23A     -0.200119    24A     -0.193772

  @DF-RHF Final Energy:  -321.42830415067675

   => Energetics <=

    Nuclear Repulsion Energy =            237.9853508344752981
    One-Electron Energy =                -921.3278863543503121
    Two-Electron Energy =                 361.9142313691982622
    Total Energy =                       -321.4283041506767518
  Basis Set: (AUG-CC-PVTZ AUX)
    Blend: AUG-CC-PVTZ-RI
    Molecular point group: c1

    Geometry (in Angstrom), charge = -1, multiplicity = 1:

       Center              X                  Y                   Z               Mass
    ------------   -----------------  -----------------  -----------------  -----------------
         O           -1.350735933316    -1.199170226282     0.050316431713    15.994914619570
         O           -1.361715933316     1.056989773718    -0.217540568287    15.994914619570
         N            1.340357266684     1.288005973718     0.070450331713    14.003074004430
         C            0.703883066684    -0.002906226282     0.386448431713    12.000000000000
         C            1.484067666684    -1.155802026282    -0.226636568287    12.000000000000
         C           -0.801924933316    -0.057255226282     0.021996431713    12.000000000000
         H            0.744481066684    -0.112895226282     1.482678431713     1.007825032230
         H            2.540350066684    -1.114855226282     0.083163431713     1.007825032230
         H            1.055914066684    -2.104103226282     0.051571431713     1.007825032230
         H            1.462341066684    -1.074904226282    -1.325630568287     1.007825032230
         H            0.599211066684     1.968917773718     0.164465431713     1.007825032230
         H            1.519717066684     1.276609773718    -0.945901568287     1.007825032230

  Basis Set: AUG-CC-PVTZ
    Blend: AUG-CC-PVTZ
  Basis Set: (AUG-CC-PVTZ AUX)
    Blend: AUG-CC-PVTZ-JKFIT
	 Reference Energy          =    -321.4283041506767518 [Eh]
	 Singles Energy            =      -0.0000000000000000 [Eh]
	 Same-Spin Energy          =      -0.3255002313829042 [Eh]
	 Opposite-Spin Energy      =      -1.0064340242294652 [Eh]
	 Correlation Energy        =      -1.3319342556123694 [Eh]
	 Total Energy              =    -322.7602384062891474 [Eh]

	 ================> DF-SCS-MP2 Energies <==================
	-----------------------------------------------------------
	 SCS Same-Spin Scale       =       0.3333333333333333 [-]
	 SCS Opposite-Spin Scale   =       1.2000000000000000 [-]
	 SCS Same-Spin Energy      =      -0.1085000771276347 [Eh]
	 SCS Opposite-Spin Energy  =      -1.2077208290753580 [Eh]
	 SCS Correlation Energy    =      -1.3162209062029928 [Eh]
	 SCS Total Energy          =    -322.7445250568797519 [Eh]
	-----------------------------------------------------------

  Dipole Moment: [D]
     X:     4.4568      Y:    -0.1454      Z:    -0.2091     Total:     4.4640

*** Psi4 exiting successfully. Buy a developer a beer!
