                               Psi4 1.3.2 release

  ==> Input File <==

--------------------------------------------------------------------------
#psi4
#
memory 32 gb

molecule  {
-1 1
  O       -1.4366360    -1.1870470     0.0571230
  O       -1.4476160     1.0691130    -0.2107340
  N        1.2591243     1.2896697     0.0457103
  C        0.6179830     0.0092170     0.3932550
  C        1.4068670    -1.1350240    -0.2248910
  C       -0.8878250    -0.0451320     0.0288030
  H        0.6495567    -0.1176970     1.4879522
  H        2.4544500    -1.1027320     0.0899700
  H        0.9700140    -2.0919800     0.0583780
  H        1.3764410    -1.0627810    -1.3188240
  H        0.5133110     1.9810410     0.1712720
  H        1.4338170     1.2887330    -0.9390950
units angstrom
no_reorient  #important for SAPT in psi4, default
symmetry c1  #important for SAPT in psi4, default
}

set PROPERTIES_ORIGIN ["COM"]
properties('MP2/aug-cc-pvtz', properties = ['dipole'])
--------------------------------------------------------------------------

    Molecular point group: c1
  Charge       = -1
  Multiplicity = 1
  Basis Set: AUG-CC-PVTZ
    Blend: AUG-CC-PVTZ
  Basis Set: (AUG-CC-PVTZ AUX)
    Blend: AUG-CC-PVTZ-JKFIT

    Orbital Energies [Eh]
    ---------------------

    Doubly Occupied:

       1A    -20.301752     2A    -20.297905     3A    -15.382654
       4A    -11.140666     5A    -11.093495     6A    -11.070940
       7A     -1.169718     8A     -1.068867     9A     -1.022974
      10A     -0.842612    11A     -0.695451    12A     -0.537920
      13A     -0.503664    14A     -0.460298    15A     -0.446525
      16A     -0.400462    17A     -0.387518    18A     -0.372000
      19A     -0.347616    20A     -0.318819    21A     -0.277406
      22A     -0.215163    23A     -0.200034    24A     -0.192775

  @DF-RHF Final Energy:  -321.42874894323592

   => Energetics <=

    Nuclear Repulsion Energy =            238.1162259419461975
    One-Electron Energy =                -921.5954890455878967
    Two-Electron Energy =                 362.0505141604057258
    Total Energy =                       -321.4287489432359166
  Basis Set: (AUG-CC-PVTZ AUX)
    Blend: AUG-CC-PVTZ-RI
    Molecular point group: c1

    Geometry (in Angstrom), charge = -1, multiplicity = 1:

       Center              X                  Y                   Z               Mass
    ------------   -----------------  -----------------  -----------------  -----------------
         O           -1.352560693638    -1.198492521937     0.056041409083    15.994914619570
         O           -1.363540693638     1.057667478063    -0.211815590917    15.994914619570
         N            1.343199606362     1.278224178063     0.044628709083    14.003074004430
         C            0.702058306362    -0.002228521937     0.392173409083    12.000000000000
         C            1.490942306362    -1.146469521937    -0.225972590917    12.000000000000
         C           -0.803749693638    -0.056577521937     0.027721409083    12.000000000000
         H            0.733632006362    -0.129142521937     1.486870609083     1.007825032230
         H            2.538525306362    -1.114177521937     0.088888409083     1.007825032230
         H            1.054089306362    -2.103425521937     0.057296409083     1.007825032230
         H            1.460516306362    -1.074226521937    -1.319905590917     1.007825032230
         H            0.597386306362     1.969595478063     0.170190409083     1.007825032230
         H            1.517892306362     1.277287478063    -0.940176590917     1.007825032230

  Basis Set: AUG-CC-PVTZ
    Blend: AUG-CC-PVTZ
  Basis Set: (AUG-CC-PVTZ AUX)
    Blend: AUG-CC-PVTZ-JKFIT
	 Reference Energy          =    -321.4287489432359166 [Eh]
	 Singles Energy            =      -0.0000000000000000 [Eh]
	 Same-Spin Energy          =      -0.3254476463682260 [Eh]
	 Opposite-Spin Energy      =      -1.0060748252705194 [Eh]
	 Correlation Energy        =      -1.3315224716387455 [Eh]
	 Total Energy              =    -322.7602714148746372 [Eh]

	 ================> DF-SCS-MP2 Energies <==================
	-----------------------------------------------------------
	 SCS Same-Spin Scale       =       0.3333333333333333 [-]
	 SCS Opposite-Spin Scale   =       1.2000000000000000 [-]
	 SCS Same-Spin Energy      =      -0.1084825487894087 [Eh]
	 SCS Opposite-Spin Energy  =      -1.2072897903246231 [Eh]
	 SCS Correlation Energy    =      -1.3157723391140319 [Eh]
	 SCS Total Energy          =    -322.7445212823499219 [Eh]
	-----------------------------------------------------------

  Dipole Moment: [D]
     X:     4.4651      Y:    -0.1160      Z:    -0.2032     Total:     4.4712

*** Psi4 exiting successfully. Buy a developer a beer!
