                               Psi4 1.3.2 release

  ==> Input File <==

--------------------------------------------------------------------------
#psi4
#
memory 32 gb

molecule  {
-1 1
  O       -1.4366360    -1.1870470     0.0571230
  O       -1.4476160     1.0691130    -0.2107340
  N        1.2636070     1.2939420     0.0706720
  C        0.6068684     0.0153683     0.3952519
  C        1.4068670    -1.1350240    -0.2248910
  C       -0.8878250    -0.0451320     0.0288030
  H        0.6585810    -0.1007720     1.4894850
  H        2.4544500    -1.1027320     0.0899700
  H        0.9700140    -2.0919800     0.0583780
  H        1.3764410    -1.0627810    -1.3188240
  H        0.5076709     1.9744978     0.1735013
  H        1.4338170     1.2887330    -0.9390950
units angstrom
no_reorient  #important for SAPT in psi4, default
symmetry c1  #important for SAPT in psi4, default
}

set PROPERTIES_ORIGIN ["COM"]
properties('MP2/aug-cc-pvtz', properties = ['dipole'])
--------------------------------------------------------------------------

    Molecular point group: c1
  Charge       = -1
  Multiplicity = 1
  Basis Set: AUG-CC-PVTZ
    Blend: AUG-CC-PVTZ
  Basis Set: (AUG-CC-PVTZ AUX)
    Blend: AUG-CC-PVTZ-JKFIT

    Orbital Energies [Eh]
    ---------------------

    Doubly Occupied:

       1A    -20.302275     2A    -20.298518     3A    -15.385894
       4A    -11.141140     5A    -11.093603     6A    -11.071621
       7A     -1.170674     8A     -1.069597     9A     -1.021867
      10A     -0.840025    11A     -0.696341    12A     -0.539970
      13A     -0.500719    14A     -0.460769    15A     -0.441776
      16A     -0.400388    17A     -0.388237    18A     -0.371946
      19A     -0.345676    20A     -0.317726    21A     -0.279340
      22A     -0.216002    23A     -0.200733    24A     -0.195601

  @DF-RHF Final Energy:  -321.42825412912549

   => Energetics <=

    Nuclear Repulsion Energy =            238.0174281814029200
    One-Electron Energy =                -921.3904916612375473
    Two-Electron Energy =                 361.9448093507091357
    Total Energy =                       -321.4282541291254915
  Basis Set: (AUG-CC-PVTZ AUX)
    Blend: AUG-CC-PVTZ-RI
    Molecular point group: c1

    Geometry (in Angstrom), charge = -1, multiplicity = 1:

       Center              X                  Y                   Z               Mass
    ------------   -----------------  -----------------  -----------------  -----------------
         O           -1.351797483159    -1.200129325786     0.051755908185    15.994914619570
         O           -1.362777483159     1.056030674214    -0.216101091815    15.994914619570
         N            1.348445516841     1.280859674214     0.065304908185    14.003074004430
         C            0.691706916841     0.002285974214     0.389884808185    12.000000000000
         C            1.491705516841    -1.148106325786    -0.230258091815    12.000000000000
         C           -0.802986483159    -0.058214325786     0.023435908185    12.000000000000
         H            0.743419516841    -0.113854325786     1.484117908185     1.007825032230
         H            2.539288516841    -1.115814325786     0.084602908185     1.007825032230
         H            1.054852516841    -2.105062325786     0.053010908185     1.007825032230
         H            1.461279516841    -1.075863325786    -1.324191091815     1.007825032230
         H            0.592509416841     1.961415474214     0.168134208185     1.007825032230
         H            1.518655516841     1.275650674214    -0.944462091815     1.007825032230

  Basis Set: AUG-CC-PVTZ
    Blend: AUG-CC-PVTZ
  Basis Set: (AUG-CC-PVTZ AUX)
    Blend: AUG-CC-PVTZ-JKFIT
	 Reference Energy          =    -321.4282541291254915 [Eh]
	 Singles Energy            =      -0.0000000000000000 [Eh]
	 Same-Spin Energy          =      -0.3255786692236257 [Eh]
	 Opposite-Spin Energy      =      -1.0066350153983596 [Eh]
	 Correlation Energy        =      -1.3322136846219854 [Eh]
	 Total Energy              =    -322.7604678137474821 [Eh]

	 ================> DF-SCS-MP2 Energies <==================
	-----------------------------------------------------------
	 SCS Same-Spin Scale       =       0.3333333333333333 [-]
	 SCS Opposite-Spin Scale   =       1.2000000000000000 [-]
	 SCS Same-Spin Energy      =      -0.1085262230745419 [Eh]
	 SCS Opposite-Spin Energy  =      -1.2079620184780315 [Eh]
	 SCS Correlation Energy    =      -1.3164882415525734 [Eh]
	 SCS Total Energy          =    -322.7447423706780683 [Eh]
	-----------------------------------------------------------

  Dipole Moment: [D]
     X:     4.4414      Y:    -0.1269      Z:    -0.2034     Total:     4.4479

*** Psi4 exiting successfully. Buy a developer a beer!
