                               Psi4 1.3.2 release

  ==> Input File <==

--------------------------------------------------------------------------
#psi4
#
memory 32 gb

molecule  {
-1 1
  O       -1.4366360    -1.1870470     0.0571230
  O       -1.4476160     1.0691130    -0.2107340
  N        1.2636070     1.2939420     0.0706720
  C        0.6179830     0.0092170     0.3932550
  C        1.4068670    -1.1350240    -0.2248910
  C       -0.8445183     0.0449765     0.0265683
  H        0.6585810    -0.1007720     1.4894850
  H        2.4544500    -1.1027320     0.0899700
  H        0.9700140    -2.0919800     0.0583780
  H        1.3764410    -1.0627810    -1.3188240
  H        0.5133110     1.9810410     0.1712720
  H        1.4338170     1.2887330    -0.9390950
units angstrom
no_reorient  #important for SAPT in psi4, default
symmetry c1  #important for SAPT in psi4, default
}

set PROPERTIES_ORIGIN ["COM"]
properties('MP2/aug-cc-pvtz', properties = ['dipole'])
--------------------------------------------------------------------------

    Molecular point group: c1
  Charge       = -1
  Multiplicity = 1
  Basis Set: AUG-CC-PVTZ
    Blend: AUG-CC-PVTZ
  Basis Set: (AUG-CC-PVTZ AUX)
    Blend: AUG-CC-PVTZ-JKFIT

    Orbital Energies [Eh]
    ---------------------

    Doubly Occupied:

       1A    -20.321677     2A    -20.276572     3A    -15.389700
       4A    -11.141715     5A    -11.097725     6A    -11.073352
       7A     -1.189908     8A     -1.034426     9A     -1.025489
      10A     -0.843979    11A     -0.706453    12A     -0.546655
      13A     -0.506807    14A     -0.468186    15A     -0.444817
      16A     -0.397092    17A     -0.388105    18A     -0.374901
      19A     -0.349503    20A     -0.321706    21A     -0.277526
      22A     -0.213718    23A     -0.189278    24A     -0.185395

  @DF-RHF Final Energy:  -321.41174679904015

   => Energetics <=

    Nuclear Repulsion Energy =            238.1593117580148942
    One-Electron Energy =                -921.6127491383822417
    Two-Electron Energy =                 362.0416905813272592
    Total Energy =                       -321.4117467990401451
  Basis Set: (AUG-CC-PVTZ AUX)
    Blend: AUG-CC-PVTZ-RI
    Molecular point group: c1

    Geometry (in Angstrom), charge = -1, multiplicity = 1:

       Center              X                  Y                   Z               Mass
    ------------   -----------------  -----------------  -----------------  -----------------
         O           -1.359279774510    -1.211647754783     0.052358202967    15.994914619570
         O           -1.370259774510     1.044512245217    -0.215498797033    15.994914619570
         N            1.340963225490     1.269341245217     0.065907202967    14.003074004430
         C            0.695339225490    -0.015383754783     0.388490202967    12.000000000000
         C            1.484223225490    -1.159624754783    -0.229655797033    12.000000000000
         C           -0.767162074510     0.020375745217     0.021803502967    12.000000000000
         H            0.735937225490    -0.125372754783     1.484720202967     1.007825032230
         H            2.531806225490    -1.127332754783     0.085205202967     1.007825032230
         H            1.047370225490    -2.116580754783     0.053613202967     1.007825032230
         H            1.453797225490    -1.087381754783    -1.323588797033     1.007825032230
         H            0.590667225490     1.956440245217     0.166507202967     1.007825032230
         H            1.511173225490     1.264132245217    -0.943859797033     1.007825032230

  Basis Set: AUG-CC-PVTZ
    Blend: AUG-CC-PVTZ
  Basis Set: (AUG-CC-PVTZ AUX)
    Blend: AUG-CC-PVTZ-JKFIT
	 Reference Energy          =    -321.4117467990401451 [Eh]
	 Singles Energy            =      -0.0000000000000000 [Eh]
	 Same-Spin Energy          =      -0.3262928309784392 [Eh]
	 Opposite-Spin Energy      =      -1.0084412887219583 [Eh]
	 Correlation Energy        =      -1.3347341197003975 [Eh]
	 Total Energy              =    -322.7464809187405308 [Eh]

	 ================> DF-SCS-MP2 Energies <==================
	-----------------------------------------------------------
	 SCS Same-Spin Scale       =       0.3333333333333333 [-]
	 SCS Opposite-Spin Scale   =       1.2000000000000000 [-]
	 SCS Same-Spin Energy      =      -0.1087642769928131 [Eh]
	 SCS Opposite-Spin Energy  =      -1.2101295464663500 [Eh]
	 SCS Correlation Energy    =      -1.3188938234591630 [Eh]
	 SCS Total Energy          =    -322.7306406224993225 [Eh]
	-----------------------------------------------------------

  Dipole Moment: [D]
     X:     4.7377      Y:     0.7689      Z:    -0.2661     Total:     4.8070

*** Psi4 exiting successfully. Buy a developer a beer!
