                               Psi4 1.3.2 release

  ==> Input File <==

--------------------------------------------------------------------------
#psi4
#
memory 32 gb

molecule  {
-1 1
  O       -1.4366360    -1.1870470     0.0571230
  O       -1.4476160     1.0691130    -0.2107340
  N        1.2636070     1.2939420     0.0706720
  C        0.6403589    -0.0027916     0.3891876
  C        1.4068670    -1.1350240    -0.2248910
  C       -0.8878250    -0.0451320     0.0288030
  H        0.6585810    -0.1007720     1.4894850
  H        2.4544500    -1.1027320     0.0899700
  H        0.9700140    -2.0919800     0.0583780
  H        1.3764410    -1.0627810    -1.3188240
  H        0.5247622     1.9939699     0.1667907
  H        1.4338170     1.2887330    -0.9390950
units angstrom
no_reorient  #important for SAPT in psi4, default
symmetry c1  #important for SAPT in psi4, default
}

set PROPERTIES_ORIGIN ["COM"]
properties('MP2/aug-cc-pvtz', properties = ['dipole'])
--------------------------------------------------------------------------

    Molecular point group: c1
  Charge       = -1
  Multiplicity = 1
  Basis Set: AUG-CC-PVTZ
    Blend: AUG-CC-PVTZ
  Basis Set: (AUG-CC-PVTZ AUX)
    Blend: AUG-CC-PVTZ-JKFIT

    Orbital Energies [Eh]
    ---------------------

    Doubly Occupied:

       1A    -20.302209     2A    -20.298033     3A    -15.385501
       4A    -11.141717     5A    -11.093213     6A    -11.070959
       7A     -1.169012     8A     -1.068563     9A     -1.021491
      10A     -0.846241    11A     -0.690588    12A     -0.537110
      13A     -0.502518    14A     -0.461138    15A     -0.441402
      16A     -0.399075    17A     -0.387012    18A     -0.371619
      19A     -0.353235    20A     -0.320548    21A     -0.278561
      22A     -0.214949    23A     -0.199842    24A     -0.190489

  @DF-RHF Final Energy:  -321.42788077958278

   => Energetics <=

    Nuclear Repulsion Energy =            237.7963567456868361
    One-Electron Energy =                -920.9584221651658709
    Two-Electron Energy =                 361.7341846398962844
    Total Energy =                       -321.4278807795827788
  Basis Set: (AUG-CC-PVTZ AUX)
    Blend: AUG-CC-PVTZ-RI
    Molecular point group: c1

    Geometry (in Angstrom), charge = -1, multiplicity = 1:

       Center              X                  Y                   Z               Mass
    ------------   -----------------  -----------------  -----------------  -----------------
         O           -1.356557952692    -1.197877001157     0.052659302586    15.994914619570
         O           -1.367537952692     1.058282998843    -0.215197697414    15.994914619570
         N            1.343685047308     1.283111998843     0.066208302586    14.003074004430
         C            0.720436947308    -0.013621601157     0.384723902586    12.000000000000
         C            1.486945047308    -1.145854001157    -0.229354697414    12.000000000000
         C           -0.807746952692    -0.055962001157     0.024339302586    12.000000000000
         H            0.738659047308    -0.111602001157     1.485021302586     1.007825032230
         H            2.534528047308    -1.113562001157     0.085506302586     1.007825032230
         H            1.050092047308    -2.102810001157     0.053914302586     1.007825032230
         H            1.456519047308    -1.073611001157    -1.323287697414     1.007825032230
         H            0.604840247308     1.983139898843     0.162327002586     1.007825032230
         H            1.513895047308     1.277902998843    -0.943558697414     1.007825032230

  Basis Set: AUG-CC-PVTZ
    Blend: AUG-CC-PVTZ
  Basis Set: (AUG-CC-PVTZ AUX)
    Blend: AUG-CC-PVTZ-JKFIT
	 Reference Energy          =    -321.4278807795827788 [Eh]
	 Singles Energy            =      -0.0000000000000000 [Eh]
	 Same-Spin Energy          =      -0.3256430938704942 [Eh]
	 Opposite-Spin Energy      =      -1.0065481791919071 [Eh]
	 Correlation Energy        =      -1.3321912730624013 [Eh]
	 Total Energy              =    -322.7600720526451710 [Eh]

	 ================> DF-SCS-MP2 Energies <==================
	-----------------------------------------------------------
	 SCS Same-Spin Scale       =       0.3333333333333333 [-]
	 SCS Opposite-Spin Scale   =       1.2000000000000000 [-]
	 SCS Same-Spin Energy      =      -0.1085476979568314 [Eh]
	 SCS Opposite-Spin Energy  =      -1.2078578150302886 [Eh]
	 SCS Correlation Energy    =      -1.3164055129871199 [Eh]
	 SCS Total Energy          =    -322.7442862925698819 [Eh]
	-----------------------------------------------------------

  Dipole Moment: [D]
     X:     4.4652      Y:    -0.1467      Z:    -0.2292     Total:     4.4735

*** Psi4 exiting successfully. Buy a developer a beer!
