                               Psi4 1.3.2 release

  ==> Input File <==

--------------------------------------------------------------------------
#psi4
#
memory 32 gb

molecule  {
-1 1
  O       -1.4269999    -1.1915495     0.0601518
  O       -1.4476160     1.0691130    -0.2107340
  N        1.2636070     1.2939420     0.0706720
  C        0.6179425    -0.0041753     0.3951683
  C        1.4068670    -1.1350240    -0.2248910
  C       -0.8878250    -0.0451320     0.0288030
  H        0.6585810    -0.1007720     1.4894850
  H        2.4544500    -1.1027320     0.0899700
  H        0.9700140    -2.0919800     0.0583780
  H        1.3764410    -1.0627810    -1.3188240
  H        0.5133110     1.9810410     0.1712720
  H        1.4338170     1.2887330    -0.9390950
units angstrom
no_reorient  #important for SAPT in psi4, default
symmetry c1  #important for SAPT in psi4, default
}

set PROPERTIES_ORIGIN ["COM"]
properties('MP2/aug-cc-pvtz', properties = ['dipole'])
--------------------------------------------------------------------------

    Molecular point group: c1
  Charge       = -1
  Multiplicity = 1
  Basis Set: AUG-CC-PVTZ
    Blend: AUG-CC-PVTZ
  Basis Set: (AUG-CC-PVTZ AUX)
    Blend: AUG-CC-PVTZ-JKFIT

    Orbital Energies [Eh]
    ---------------------

    Doubly Occupied:

       1A    -20.303222     2A    -20.298586     3A    -15.384839
       4A    -11.141836     5A    -11.092825     6A    -11.071018
       7A     -1.170271     8A     -1.070156     9A     -1.018127
      10A     -0.843618    11A     -0.694221    12A     -0.538515
      13A     -0.499860    14A     -0.461413    15A     -0.440604
      16A     -0.400070    17A     -0.388176    18A     -0.372426
      19A     -0.347058    20A     -0.320169    21A     -0.278145
      22A     -0.216592    23A     -0.200970    24A     -0.193774

  @DF-RHF Final Energy:  -321.42831257208667

   => Energetics <=

    Nuclear Repulsion Energy =            237.9548980311380717
    One-Electron Energy =                -921.2734366071385921
    Two-Electron Energy =                 361.8902260039138241
    Total Energy =                       -321.4283125720866678
  Basis Set: (AUG-CC-PVTZ AUX)
    Blend: AUG-CC-PVTZ-RI
    Molecular point group: c1

    Geometry (in Angstrom), charge = -1, multiplicity = 1:

       Center              X                  Y                   Z               Mass
    ------------   -----------------  -----------------  -----------------  -----------------
         O           -1.345486036930    -1.201224892555     0.054271355978    15.994914619570
         O           -1.366102136930     1.059437607445    -0.216614444022    15.994914619570
         N            1.345120863070     1.284266607445     0.064791555978    14.003074004430
         C            0.699456363070    -0.013850692555     0.389287855978    12.000000000000
         C            1.488380863070    -1.144699392555    -0.230771444022    12.000000000000
         C           -0.806311136930    -0.054807392555     0.022922555978    12.000000000000
         H            0.740094863070    -0.110447392555     1.483604555978     1.007825032230
         H            2.535963863070    -1.112407392555     0.084089555978     1.007825032230
         H            1.051527863070    -2.101655392555     0.052497555978     1.007825032230
         H            1.457954863070    -1.072456392555    -1.324704444022     1.007825032230
         H            0.594824863070     1.971365607445     0.165391555978     1.007825032230
         H            1.515330863070     1.279057607445    -0.944975444022     1.007825032230

  Basis Set: AUG-CC-PVTZ
    Blend: AUG-CC-PVTZ
  Basis Set: (AUG-CC-PVTZ AUX)
    Blend: AUG-CC-PVTZ-JKFIT
	 Reference Energy          =    -321.4283125720866678 [Eh]
	 Singles Energy            =      -0.0000000000000000 [Eh]
	 Same-Spin Energy          =      -0.3256051457946612 [Eh]
	 Opposite-Spin Energy      =      -1.0066941944153933 [Eh]
	 Correlation Energy        =      -1.3322993402100545 [Eh]
	 Total Energy              =    -322.7606119122967243 [Eh]

	 ================> DF-SCS-MP2 Energies <==================
	-----------------------------------------------------------
	 SCS Same-Spin Scale       =       0.3333333333333333 [-]
	 SCS Opposite-Spin Scale   =       1.2000000000000000 [-]
	 SCS Same-Spin Energy      =      -0.1085350485982204 [Eh]
	 SCS Opposite-Spin Energy  =      -1.2080330332984719 [Eh]
	 SCS Correlation Energy    =      -1.3165680818966923 [Eh]
	 SCS Total Energy          =    -322.7448806539833868 [Eh]
	-----------------------------------------------------------

  Dipole Moment: [D]
     X:     4.4085      Y:    -0.1697      Z:    -0.2115     Total:     4.4168

*** Psi4 exiting successfully. Buy a developer a beer!
