                               Psi4 1.4a3.dev225

  ==> Input File <==

--------------------------------------------------------------------------
#psi4
#
memory 32 gb

molecule  {
0 1
  O        1.6642820     0.7200090    -0.5161230
  O        1.0775160    -1.0797240     0.7320070
  N       -1.3989360    -1.0731900    -0.4836900
  C       -0.6238755     0.2198217    -0.4131913
  C       -1.1891480     1.2162680     0.5789130
  C        0.7664420    -0.1647700    -0.0115760
  H       -0.6171430     0.6221670    -1.4153090
  H       -0.5838330     2.1275540     0.5722180
  H       -2.2162690     1.4836440     0.3127790
  H       -1.1894240     0.7982770     1.5903820
  H       -2.3959760    -0.8706470    -0.5387880
  H       -1.2392480    -1.5923700     0.3790470
  H        2.5336150     0.4505320    -0.1524310
units angstrom
no_reorient  #important for SAPT in psi4, default
symmetry c1  #important for SAPT in psi4, default
}

set PROPERTIES_ORIGIN ["COM"]
properties('MP2/aug-cc-pvtz', properties = ['dipole'])
--------------------------------------------------------------------------

    Molecular point group: c1
  Charge       = 0
  Multiplicity = 1
  Basis Set: AUG-CC-PVTZ
    Blend: AUG-CC-PVTZ
  Basis Set: (AUG-CC-PVTZ AUX)
    Blend: AUG-CC-PVTZ-JKFIT

    Orbital Energies [Eh]
    ---------------------

    Doubly Occupied:

       1A    -20.621350     2A    -20.556831     3A    -15.549703
       4A    -11.392320     5A    -11.282451     6A    -11.237210
       7A     -1.466013     8A     -1.362689     9A     -1.187401
      10A     -1.029054    11A     -0.917765    12A     -0.792322
      13A     -0.724157    14A     -0.707333    15A     -0.647456
      16A     -0.627002    17A     -0.608323    18A     -0.584321
      19A     -0.573343    20A     -0.546133    21A     -0.519751
      22A     -0.486033    23A     -0.457636    24A     -0.404934

  @DF-RHF Final Energy:  -321.99272457562273

   => Energetics <=

    Nuclear Repulsion Energy =            249.2686149653956420
    One-Electron Energy =                -933.9596124306669935
    Two-Electron Energy =                 362.6982728896486492
    Total Energy =                       -321.9927245756227308
  Basis Set: (AUG-CC-PVTZ AUX)
    Blend: AUG-CC-PVTZ-RI
    Molecular point group: c1

    Geometry (in Angstrom), charge = 0, multiplicity = 1:

       Center              X                  Y                   Z               Mass
    ------------   -----------------  -----------------  -----------------  -----------------
         O            1.597424590333     0.747892391741    -0.508075603326    15.994914619570
         O            1.010658590333    -1.051840608259     0.740054396674    15.994914619570
         N           -1.465793409667    -1.045306608259    -0.475642603326    14.003074004430
         C           -0.690732909667     0.247705091741    -0.405143903326    12.000000000000
         C           -1.256005409667     1.244151391741     0.586960396674    12.000000000000
         C            0.699584590333    -0.136886608259    -0.003528603326    12.000000000000
         H           -0.684000409667     0.650050391741    -1.407261603326     1.007825032230
         H           -0.650690409667     2.155437391741     0.580265396674     1.007825032230
         H           -2.283126409667     1.511527391741     0.320826396674     1.007825032230
         H           -1.256281409667     0.826160391741     1.598429396674     1.007825032230
         H           -2.462833409667    -0.842763608259    -0.530740603326     1.007825032230
         H           -1.306105409667    -1.564486608259     0.387094396674     1.007825032230
         H            2.466757590333     0.478415391741    -0.144383603326     1.007825032230

  Basis Set: AUG-CC-PVTZ
    Blend: AUG-CC-PVTZ
  Basis Set: (AUG-CC-PVTZ AUX)
    Blend: AUG-CC-PVTZ-JKFIT
	 Reference Energy          =    -321.9927245756227308 [Eh]
	 Singles Energy            =      -0.0000000000000000 [Eh]
	 Same-Spin Energy          =      -0.3170387105299633 [Eh]
	 Opposite-Spin Energy      =      -1.0005780557680892 [Eh]
	 Correlation Energy        =      -1.3176167662980525 [Eh]
	 Total Energy              =    -323.3103413419207754 [Eh]

	 ================> DF-SCS-MP2 Energies <==================
	-----------------------------------------------------------
	 SCS Same-Spin Scale       =       0.3333333333333333 [-]
	 SCS Opposite-Spin Scale   =       1.2000000000000000 [-]
	 SCS Same-Spin Energy      =      -0.1056795701766544 [Eh]
	 SCS Opposite-Spin Energy  =      -1.2006936669217070 [Eh]
	 SCS Correlation Energy    =      -1.3063732370983614 [Eh]
	 SCS Total Energy          =    -323.2990978127210724 [Eh]
	-----------------------------------------------------------

  Dipole Moment: [D]
     X:    -0.7035      Y:     2.1487      Z:     0.3185     Total:     2.2833

*** Psi4 exiting successfully. Buy a developer a beer!
