                               Psi4 1.3.2 release

  ==> Input File <==

--------------------------------------------------------------------------
#psi4
#
memory 32 gb

molecule  {
0 1
  O        1.6642950     0.7201020    -0.5160700
  O        1.0775810    -1.0797050     0.7319740
  N       -1.3951008    -1.0766153    -0.4587447
  C       -0.6495640     0.1769900    -0.4154850
  C       -1.1893050     1.2162270     0.5788640
  C        0.7664460    -0.1647250    -0.0115660
  H       -0.6171290     0.6221710    -1.4152790
  H       -0.5840790     2.1275670     0.5721320
  H       -2.2164450     1.4834670     0.3126690
  H       -1.1896280     0.7983240     1.5903720
  H       -2.3959300    -0.8708340    -0.5385770
  H       -1.2389410    -1.5925540     0.3789210
  H        2.5336290     0.4505910    -0.1523780
units angstrom
no_reorient  #important for SAPT in psi4, default
symmetry c1  #important for SAPT in psi4, default
}

set PROPERTIES_ORIGIN ["COM"]
properties('MP2/aug-cc-pvtz', properties = ['dipole'])
--------------------------------------------------------------------------

    Molecular point group: c1
  Charge       = 0
  Multiplicity = 1
  Basis Set: AUG-CC-PVTZ
    Blend: AUG-CC-PVTZ
  Basis Set: (AUG-CC-PVTZ AUX)
    Blend: AUG-CC-PVTZ-JKFIT

    Orbital Energies [Eh]
    ---------------------

    Doubly Occupied:

       1A    -20.621219     2A    -20.554940     3A    -15.548418
       4A    -11.390939     5A    -11.283152     6A    -11.236008
       7A     -1.464724     8A     -1.361689     9A     -1.200906
      10A     -1.024313    11A     -0.913254    12A     -0.793161
      13A     -0.725447    14A     -0.707665    15A     -0.645485
      16A     -0.629472    17A     -0.613406    18A     -0.583364
      19A     -0.578210    20A     -0.543997    21A     -0.522640
      22A     -0.485038    23A     -0.454191    24A     -0.402580

  @DF-RHF Final Energy:  -321.99574920645580

   => Energetics <=

    Nuclear Repulsion Energy =            249.4968234489234646
    One-Electron Energy =                -934.4167131203515737
    Two-Electron Energy =                 362.9241404649723108
    Total Energy =                       -321.9957492064557982
  Basis Set: (AUG-CC-PVTZ AUX)
    Blend: AUG-CC-PVTZ-RI
    Molecular point group: c1

    Geometry (in Angstrom), charge = 0, multiplicity = 1:

       Center              X                  Y                   Z               Mass
    ------------   -----------------  -----------------  -----------------  -----------------
         O            1.600305635056     0.754280154661    -0.511634152649    15.994914619570
         O            1.013591635056    -1.045526845339     0.736409847351    15.994914619570
         N           -1.459090164944    -1.042437145339    -0.454308852649    14.003074004430
         C           -0.713553364944     0.211168154661    -0.411049152649    12.000000000000
         C           -1.253294364944     1.250405154661     0.583299847351    12.000000000000
         C            0.702456635056    -0.130546845339    -0.007130152649    12.000000000000
         H           -0.681118364944     0.656349154661    -1.410843152649     1.007825032230
         H           -0.648068364944     2.161745154661     0.576567847351     1.007825032230
         H           -2.280434364944     1.517645154661     0.317104847351     1.007825032230
         H           -1.253617364944     0.832502154661     1.594807847351     1.007825032230
         H           -2.459919364944    -0.836655845339    -0.534141152649     1.007825032230
         H           -1.302930364944    -1.558375845339     0.383356847351     1.007825032230
         H            2.469639635056     0.484769154661    -0.147942152649     1.007825032230

  Basis Set: AUG-CC-PVTZ
    Blend: AUG-CC-PVTZ
  Basis Set: (AUG-CC-PVTZ AUX)
    Blend: AUG-CC-PVTZ-JKFIT
	 Reference Energy          =    -321.9957492064557982 [Eh]
	 Singles Energy            =      -0.0000000000000000 [Eh]
	 Same-Spin Energy          =      -0.3168339975962277 [Eh]
	 Opposite-Spin Energy      =      -0.9995744358401448 [Eh]
	 Correlation Energy        =      -1.3164084334363726 [Eh]
	 Total Energy              =    -323.3121576398921775 [Eh]

	 ================> DF-SCS-MP2 Energies <==================
	-----------------------------------------------------------
	 SCS Same-Spin Scale       =       0.3333333333333333 [-]
	 SCS Opposite-Spin Scale   =       1.2000000000000000 [-]
	 SCS Same-Spin Energy      =      -0.1056113325320759 [Eh]
	 SCS Opposite-Spin Energy  =      -1.1994893230081738 [Eh]
	 SCS Correlation Energy    =      -1.3051006555402498 [Eh]
	 SCS Total Energy          =    -323.3008498619960278 [Eh]
	-----------------------------------------------------------

  Dipole Moment: [D]
     X:    -0.7647      Y:     2.0324      Z:     0.2386     Total:     2.1845

*** Psi4 exiting successfully. Buy a developer a beer!
