                               Psi4 1.3.2 release

  ==> Input File <==

--------------------------------------------------------------------------
#psi4
#
memory 32 gb

molecule  {
0 1
  O        1.6642950     0.7201020    -0.5160700
  O        1.0775810    -1.0797050     0.7319740
  N       -1.3988490    -1.0732660    -0.4837110
  C       -0.6714792     0.1899214    -0.4165276
  C       -1.1893050     1.2162270     0.5788640
  C        0.7664460    -0.1647250    -0.0115660
  H       -0.6171290     0.6221710    -1.4152790
  H       -0.5840790     2.1275670     0.5721320
  H       -2.2164450     1.4834670     0.3126690
  H       -1.1896280     0.7983240     1.5903720
  H       -2.3959300    -0.8708340    -0.5385770
  H       -1.2389410    -1.5925540     0.3789210
  H        2.5336290     0.4505910    -0.1523780
units angstrom
no_reorient  #important for SAPT in psi4, default
symmetry c1  #important for SAPT in psi4, default
}

set PROPERTIES_ORIGIN ["COM"]
properties('MP2/aug-cc-pvtz', properties = ['dipole'])
--------------------------------------------------------------------------

    Molecular point group: c1
  Charge       = 0
  Multiplicity = 1
  Basis Set: AUG-CC-PVTZ
    Blend: AUG-CC-PVTZ
  Basis Set: (AUG-CC-PVTZ AUX)
    Blend: AUG-CC-PVTZ-JKFIT

    Orbital Energies [Eh]
    ---------------------

    Doubly Occupied:

       1A    -20.621146     2A    -20.555042     3A    -15.551224
       4A    -11.391157     5A    -11.283367     6A    -11.235603
       7A     -1.464070     8A     -1.361260     9A     -1.200336
      10A     -1.024779    11A     -0.909885    12A     -0.793102
      13A     -0.722563    14A     -0.706878    15A     -0.644885
      16A     -0.628697    17A     -0.612811    18A     -0.583431
      19A     -0.580767    20A     -0.541383    21A     -0.522137
      22A     -0.485209    23A     -0.451174    24A     -0.406850

  @DF-RHF Final Energy:  -321.99495526513624

   => Energetics <=

    Nuclear Repulsion Energy =            249.1134026776508961
    One-Electron Energy =                -933.6611987631471266
    Two-Electron Energy =                 362.5528408203599611
    Total Energy =                       -321.9949552651362410
  Basis Set: (AUG-CC-PVTZ AUX)
    Blend: AUG-CC-PVTZ-RI
    Molecular point group: c1

    Geometry (in Angstrom), charge = 0, multiplicity = 1:

       Center              X                  Y                   Z               Mass
    ------------   -----------------  -----------------  -----------------  -----------------
         O            1.603848329570     0.752010838950    -0.507567610402    15.994914619570
         O            1.017134329570    -1.047796161050     0.740476389598    15.994914619570
         N           -1.459295670430    -1.041357161050    -0.475208610402    14.003074004430
         C           -0.731925870430     0.221830238950    -0.408025210402    12.000000000000
         C           -1.249751670430     1.248135838950     0.587366389598    12.000000000000
         C            0.705999329570    -0.132816161050    -0.003063610402    12.000000000000
         H           -0.677575670430     0.654079838950    -1.406776610402     1.007825032230
         H           -0.644525670430     2.159475838950     0.580634389598     1.007825032230
         H           -2.276891670430     1.515375838950     0.321171389598     1.007825032230
         H           -1.250074670430     0.830232838950     1.598874389598     1.007825032230
         H           -2.456376670430    -0.838925161050    -0.530074610402     1.007825032230
         H           -1.299387670430    -1.560645161050     0.387423389598     1.007825032230
         H            2.473182329570     0.482499838950    -0.143875610402     1.007825032230

  Basis Set: AUG-CC-PVTZ
    Blend: AUG-CC-PVTZ
  Basis Set: (AUG-CC-PVTZ AUX)
    Blend: AUG-CC-PVTZ-JKFIT
	 Reference Energy          =    -321.9949552651362410 [Eh]
	 Singles Energy            =      -0.0000000000000000 [Eh]
	 Same-Spin Energy          =      -0.3169428114593968 [Eh]
	 Opposite-Spin Energy      =      -0.9999702539529247 [Eh]
	 Correlation Energy        =      -1.3169130654123216 [Eh]
	 Total Energy              =    -323.3118683305485774 [Eh]

	 ================> DF-SCS-MP2 Energies <==================
	-----------------------------------------------------------
	 SCS Same-Spin Scale       =       0.3333333333333333 [-]
	 SCS Opposite-Spin Scale   =       1.2000000000000000 [-]
	 SCS Same-Spin Energy      =      -0.1056476038197989 [Eh]
	 SCS Opposite-Spin Energy  =      -1.1999643047435096 [Eh]
	 SCS Correlation Energy    =      -1.3056119085633084 [Eh]
	 SCS Total Energy          =    -323.3005671736995623 [Eh]
	-----------------------------------------------------------

  Dipole Moment: [D]
     X:    -0.7516      Y:     2.0449      Z:     0.2955     Total:     2.1987

*** Psi4 exiting successfully. Buy a developer a beer!
