                               Psi4 1.3.2 release

  ==> Input File <==

--------------------------------------------------------------------------
#psi4
#
memory 32 gb

molecule  {
0 1
  O        1.6642950     0.7201020    -0.5160700
  O        1.0775810    -1.0797050     0.7319740
  N       -1.3988490    -1.0732660    -0.4837110
  C       -0.6495640     0.1769900    -0.4154850
  C       -1.2356633     1.2165506     0.5519163
  C        0.7664460    -0.1647250    -0.0115660
  H       -0.6171290     0.6221710    -1.4152790
  H       -0.5840790     2.1275670     0.5721320
  H       -2.2164450     1.4834670     0.3126690
  H       -1.1896280     0.7983240     1.5903720
  H       -2.3959300    -0.8708340    -0.5385770
  H       -1.2389410    -1.5925540     0.3789210
  H        2.5336290     0.4505910    -0.1523780
units angstrom
no_reorient  #important for SAPT in psi4, default
symmetry c1  #important for SAPT in psi4, default
}

set PROPERTIES_ORIGIN ["COM"]
properties('MP2/aug-cc-pvtz', properties = ['dipole'])
--------------------------------------------------------------------------

    Molecular point group: c1
  Charge       = 0
  Multiplicity = 1
  Basis Set: AUG-CC-PVTZ
    Blend: AUG-CC-PVTZ
  Basis Set: (AUG-CC-PVTZ AUX)
    Blend: AUG-CC-PVTZ-JKFIT

    Orbital Energies [Eh]
    ---------------------

    Doubly Occupied:

       1A    -20.622017     2A    -20.556347     3A    -15.550098
       4A    -11.392576     5A    -11.282892     6A    -11.236617
       7A     -1.465523     8A     -1.362629     9A     -1.199928
      10A     -1.022447    11A     -0.915504    12A     -0.792777
      13A     -0.724245    14A     -0.707723    15A     -0.648582
      16A     -0.629345    17A     -0.605658    18A     -0.589080
      19A     -0.573967    20A     -0.553965    21A     -0.511535
      22A     -0.485932    23A     -0.456722    24A     -0.402857

  @DF-RHF Final Energy:  -321.99238379115229

   => Energetics <=

    Nuclear Repulsion Energy =            249.1220114872151612
    One-Electron Energy =                -933.6508611356881602
    Two-Electron Energy =                 362.5364658573206498
    Total Energy =                       -321.9923837911522924
  Basis Set: (AUG-CC-PVTZ AUX)
    Blend: AUG-CC-PVTZ-RI
    Molecular point group: c1

    Geometry (in Angstrom), charge = 0, multiplicity = 1:

       Center              X                  Y                   Z               Mass
    ------------   -----------------  -----------------  -----------------  -----------------
         O            1.607142263843     0.753709856854    -0.504076658079    15.994914619570
         O            1.020428263843    -1.046097143146     0.743967341921    15.994914619570
         N           -1.456001736157    -1.039658143146    -0.471717658079    14.003074004430
         C           -0.706716736157     0.210597856854    -0.403491658079    12.000000000000
         C           -1.292816036157     1.250158456854     0.563909641921    12.000000000000
         C            0.709293263843    -0.131117143146     0.000427341921    12.000000000000
         H           -0.674281736157     0.655778856854    -1.403285658079     1.007825032230
         H           -0.641231736157     2.161174856854     0.584125341921     1.007825032230
         H           -2.273597736157     1.517074856854     0.324662341921     1.007825032230
         H           -1.246780736157     0.831931856854     1.602365341921     1.007825032230
         H           -2.453082736157    -0.837226143146    -0.526583658079     1.007825032230
         H           -1.296093736157    -1.558946143146     0.390914341921     1.007825032230
         H            2.476476263843     0.484198856854    -0.140384658079     1.007825032230

  Basis Set: AUG-CC-PVTZ
    Blend: AUG-CC-PVTZ
  Basis Set: (AUG-CC-PVTZ AUX)
    Blend: AUG-CC-PVTZ-JKFIT
	 Reference Energy          =    -321.9923837911522924 [Eh]
	 Singles Energy            =      -0.0000000000000000 [Eh]
	 Same-Spin Energy          =      -0.3169170442802492 [Eh]
	 Opposite-Spin Energy      =      -1.0000768256101005 [Eh]
	 Correlation Energy        =      -1.3169938698903496 [Eh]
	 Total Energy              =    -323.3093776610426175 [Eh]

	 ================> DF-SCS-MP2 Energies <==================
	-----------------------------------------------------------
	 SCS Same-Spin Scale       =       0.3333333333333333 [-]
	 SCS Opposite-Spin Scale   =       1.2000000000000000 [-]
	 SCS Same-Spin Energy      =      -0.1056390147600831 [Eh]
	 SCS Opposite-Spin Energy  =      -1.2000921907321205 [Eh]
	 SCS Correlation Energy    =      -1.3057312054922035 [Eh]
	 SCS Total Energy          =    -323.2981149966444718 [Eh]
	-----------------------------------------------------------

  Dipole Moment: [D]
     X:    -0.7459      Y:     2.0398      Z:     0.2807     Total:     2.1900

*** Psi4 exiting successfully. Buy a developer a beer!
