                               Psi4 1.3.2 release

  ==> Input File <==

--------------------------------------------------------------------------
#psi4
#
memory 32 gb

molecule  {
0 1
  O        1.6642950     0.7201020    -0.5160700
  O        1.0775810    -1.0797050     0.7319740
  N       -1.3988490    -1.0732660    -0.4837110
  C       -0.7923545     0.1855484    -0.4889355
  C       -1.1893050     1.2162270     0.5788640
  C        0.7664460    -0.1647250    -0.0115660
  H       -0.6171290     0.6221710    -1.4152790
  H       -0.5840790     2.1275670     0.5721320
  H       -2.2164450     1.4834670     0.3126690
  H       -1.1896280     0.7983240     1.5903720
  H       -2.3959300    -0.8708340    -0.5385770
  H       -1.2389410    -1.5925540     0.3789210
  H        2.5336290     0.4505910    -0.1523780
units angstrom
no_reorient  #important for SAPT in psi4, default
symmetry c1  #important for SAPT in psi4, default
}

set PROPERTIES_ORIGIN ["COM"]
properties('MP2/aug-cc-pvtz', properties = ['dipole'])
--------------------------------------------------------------------------

    Molecular point group: c1
  Charge       = 0
  Multiplicity = 1
  Basis Set: AUG-CC-PVTZ
    Blend: AUG-CC-PVTZ
  Basis Set: (AUG-CC-PVTZ AUX)
    Blend: AUG-CC-PVTZ-JKFIT

    Orbital Energies [Eh]
    ---------------------

    Doubly Occupied:

       1A    -20.617992     2A    -20.551725     3A    -15.553651
       4A    -11.386355     5A    -11.288358     6A    -11.234463
       7A     -1.458113     8A     -1.356446     9A     -1.219656
      10A     -1.016201    11A     -0.891628    12A     -0.800587
      13A     -0.718207    14A     -0.704588    15A     -0.635685
      16A     -0.633239    17A     -0.626566    18A     -0.597424
      19A     -0.574615    20A     -0.538291    21A     -0.524130
      22A     -0.482457    23A     -0.431885    24A     -0.403571

  @DF-RHF Final Energy:  -321.97255275768811

   => Energetics <=

    Nuclear Repulsion Energy =            247.8784975068967640
    One-Electron Energy =                -931.2104397672366076
    Two-Electron Energy =                 361.3593895026517089
    Total Energy =                       -321.9725527576881063
  Basis Set: (AUG-CC-PVTZ AUX)
    Blend: AUG-CC-PVTZ-RI
    Molecular point group: c1

    Geometry (in Angstrom), charge = 0, multiplicity = 1:

       Center              X                  Y                   Z               Mass
    ------------   -----------------  -----------------  -----------------  -----------------
         O            1.620137396561     0.752600141231    -0.497809974774    15.994914619570
         O            1.033423396561    -1.047206858769     0.750234025226    15.994914619570
         N           -1.443006603439    -1.040767858769    -0.465450974774    14.003074004430
         C           -0.836512103439     0.218046541231    -0.470675474774    12.000000000000
         C           -1.233462603439     1.248725141231     0.597124025226    12.000000000000
         C            0.722288396561    -0.132226858769     0.006694025226    12.000000000000
         H           -0.661286603439     0.654669141231    -1.397018974774     1.007825032230
         H           -0.628236603439     2.160065141231     0.590392025226     1.007825032230
         H           -2.260602603439     1.515965141231     0.330929025226     1.007825032230
         H           -1.233785603439     0.830822141231     1.608632025226     1.007825032230
         H           -2.440087603439    -0.838335858769    -0.520316974774     1.007825032230
         H           -1.283098603439    -1.560055858769     0.397181025226     1.007825032230
         H            2.489471396561     0.483089141231    -0.134117974774     1.007825032230

  Basis Set: AUG-CC-PVTZ
    Blend: AUG-CC-PVTZ
  Basis Set: (AUG-CC-PVTZ AUX)
    Blend: AUG-CC-PVTZ-JKFIT
	 Reference Energy          =    -321.9725527576881063 [Eh]
	 Singles Energy            =      -0.0000000000000000 [Eh]
	 Same-Spin Energy          =      -0.3175836909105725 [Eh]
	 Opposite-Spin Energy      =      -1.0008315891953370 [Eh]
	 Correlation Energy        =      -1.3184152801059095 [Eh]
	 Total Energy              =    -323.2909680377940163 [Eh]

	 ================> DF-SCS-MP2 Energies <==================
	-----------------------------------------------------------
	 SCS Same-Spin Scale       =       0.3333333333333333 [-]
	 SCS Opposite-Spin Scale   =       1.2000000000000000 [-]
	 SCS Same-Spin Energy      =      -0.1058612303035242 [Eh]
	 SCS Opposite-Spin Energy  =      -1.2009979070344043 [Eh]
	 SCS Correlation Energy    =      -1.3068591373379286 [Eh]
	 SCS Total Energy          =    -323.2794118950260440 [Eh]
	-----------------------------------------------------------

  Dipole Moment: [D]
     X:    -0.8232      Y:     1.8919      Z:     0.2298     Total:     2.0759

*** Psi4 exiting successfully. Buy a developer a beer!
