                               Psi4 1.3.2 release

  ==> Input File <==

--------------------------------------------------------------------------
#psi4
#
memory 32 gb

molecule  {
0 1
  O        1.6642950     0.7201020    -0.5160700
  O        1.0775810    -1.0797050     0.7319740
  N       -1.3988490    -1.0732660    -0.4837110
  C       -0.6965799     0.1785798    -0.4412213
  C       -1.1893050     1.2162270     0.5788640
  C        0.7664460    -0.1647250    -0.0115660
  H       -0.6171290     0.6221710    -1.4152790
  H       -0.5840790     2.1275670     0.5721320
  H       -2.2164450     1.4834670     0.3126690
  H       -1.1896280     0.7983240     1.5903720
  H       -2.3959300    -0.8708340    -0.5385770
  H       -1.2389410    -1.5925540     0.3789210
  H        2.5336290     0.4505910    -0.1523780
units angstrom
no_reorient  #important for SAPT in psi4, default
symmetry c1  #important for SAPT in psi4, default
}

set PROPERTIES_ORIGIN ["COM"]
properties('MP2/aug-cc-pvtz', properties = ['dipole'])
--------------------------------------------------------------------------

    Molecular point group: c1
  Charge       = 0
  Multiplicity = 1
  Basis Set: AUG-CC-PVTZ
    Blend: AUG-CC-PVTZ
  Basis Set: (AUG-CC-PVTZ AUX)
    Blend: AUG-CC-PVTZ-JKFIT

    Orbital Energies [Eh]
    ---------------------

    Doubly Occupied:

       1A    -20.620608     2A    -20.554240     3A    -15.551521
       4A    -11.390510     5A    -11.283953     6A    -11.235232
       7A     -1.462794     8A     -1.360259     9A     -1.206362
      10A     -1.020360    11A     -0.905293    12A     -0.795407
      13A     -0.722472    14A     -0.706608    15A     -0.642480
      16A     -0.628872    17A     -0.616581    18A     -0.585433
      19A     -0.580005    20A     -0.537293    21A     -0.527712
      22A     -0.484623    23A     -0.447468    24A     -0.405451

  @DF-RHF Final Energy:  -321.99314437950562

   => Energetics <=

    Nuclear Repulsion Energy =            248.8355407003879236
    One-Electron Energy =                -933.1142985970543577
    Two-Electron Energy =                 362.2856135171608116
    Total Energy =                       -321.9931443795056225
  Basis Set: (AUG-CC-PVTZ AUX)
    Blend: AUG-CC-PVTZ-RI
    Molecular point group: c1

    Geometry (in Angstrom), charge = 0, multiplicity = 1:

       Center              X                  Y                   Z               Mass
    ------------   -----------------  -----------------  -----------------  -----------------
         O            1.607230881538     0.753539224669    -0.504239905457    15.994914619570
         O            1.020516881538    -1.046267775331     0.743804094543    15.994914619570
         N           -1.455913118462    -1.039828775331    -0.471880905457    14.003074004430
         C           -0.753644018462     0.212017024669    -0.429391205457    12.000000000000
         C           -1.246369118462     1.249664224669     0.590694094543    12.000000000000
         C            0.709381881538    -0.131287775331     0.000264094543    12.000000000000
         H           -0.674193118462     0.655608224669    -1.403448905457     1.007825032230
         H           -0.641143118462     2.161004224669     0.583962094543     1.007825032230
         H           -2.273509118462     1.516904224669     0.324499094543     1.007825032230
         H           -1.246692118462     0.831761224669     1.602202094543     1.007825032230
         H           -2.452994118462    -0.837396775331    -0.526746905457     1.007825032230
         H           -1.296005118462    -1.559116775331     0.390751094543     1.007825032230
         H            2.476564881538     0.484028224669    -0.140547905457     1.007825032230

  Basis Set: AUG-CC-PVTZ
    Blend: AUG-CC-PVTZ
  Basis Set: (AUG-CC-PVTZ AUX)
    Blend: AUG-CC-PVTZ-JKFIT
	 Reference Energy          =    -321.9931443795056225 [Eh]
	 Singles Energy            =      -0.0000000000000000 [Eh]
	 Same-Spin Energy          =      -0.3169162590589595 [Eh]
	 Opposite-Spin Energy      =      -0.9997498811074348 [Eh]
	 Correlation Energy        =      -1.3166661401663944 [Eh]
	 Total Energy              =    -323.3098105196719985 [Eh]

	 ================> DF-SCS-MP2 Energies <==================
	-----------------------------------------------------------
	 SCS Same-Spin Scale       =       0.3333333333333333 [-]
	 SCS Opposite-Spin Scale   =       1.2000000000000000 [-]
	 SCS Same-Spin Energy      =      -0.1056387530196532 [Eh]
	 SCS Opposite-Spin Energy  =      -1.1996998573289217 [Eh]
	 SCS Correlation Energy    =      -1.3053386103485749 [Eh]
	 SCS Total Energy          =    -323.2984829898542216 [Eh]
	-----------------------------------------------------------

  Dipole Moment: [D]
     X:    -0.7703      Y:     1.9898      Z:     0.2628     Total:     2.1498

*** Psi4 exiting successfully. Buy a developer a beer!
