                               Psi4 1.3.2 release

  ==> Input File <==

--------------------------------------------------------------------------
#psi4
#
memory 32 gb

molecule  {
0 1
  O        1.6642950     0.7201020    -0.5160700
  O        1.0775810    -1.0797050     0.7319740
  N       -1.3988490    -1.0732660    -0.4837110
  C       -0.5575615     0.1776093    -0.3604109
  C       -1.1893050     1.2162270     0.5788640
  C        0.7664460    -0.1647250    -0.0115660
  H       -0.6171290     0.6221710    -1.4152790
  H       -0.5840790     2.1275670     0.5721320
  H       -2.2164450     1.4834670     0.3126690
  H       -1.1896280     0.7983240     1.5903720
  H       -2.3959300    -0.8708340    -0.5385770
  H       -1.2389410    -1.5925540     0.3789210
  H        2.5336290     0.4505910    -0.1523780
units angstrom
no_reorient  #important for SAPT in psi4, default
symmetry c1  #important for SAPT in psi4, default
}

set PROPERTIES_ORIGIN ["COM"]
properties('MP2/aug-cc-pvtz', properties = ['dipole'])
--------------------------------------------------------------------------

    Molecular point group: c1
  Charge       = 0
  Multiplicity = 1
  Basis Set: AUG-CC-PVTZ
    Blend: AUG-CC-PVTZ
  Basis Set: (AUG-CC-PVTZ AUX)
    Blend: AUG-CC-PVTZ-JKFIT

    Orbital Energies [Eh]
    ---------------------

    Doubly Occupied:

       1A    -20.622132     2A    -20.556633     3A    -15.550879
       4A    -11.390126     5A    -11.282788     6A    -11.240663
       7A     -1.468835     8A     -1.364531     9A     -1.188585
      10A     -1.033983    11A     -0.931539    12A     -0.788096
      13A     -0.726045    14A     -0.706896    15A     -0.653560
      16A     -0.628965    17A     -0.603040    18A     -0.589769
      19A     -0.567500    20A     -0.555472    21A     -0.503586
      22A     -0.485673    23A     -0.463955    24A     -0.402251

  @DF-RHF Final Energy:  -321.98126410515158

   => Energetics <=

    Nuclear Repulsion Energy =            250.3221364368211823
    One-Electron Energy =                -935.9957948769830409
    Two-Electron Energy =                 363.6923943350102491
    Total Energy =                       -321.9812641051515811
  Basis Set: (AUG-CC-PVTZ AUX)
    Blend: AUG-CC-PVTZ-RI
    Molecular point group: c1

    Geometry (in Angstrom), charge = 0, multiplicity = 1:

       Center              X                  Y                   Z               Mass
    ------------   -----------------  -----------------  -----------------  -----------------
         O            1.588496863665     0.753670008538    -0.515129855837    15.994914619570
         O            1.001782863665    -1.046136991462     0.732914144163    15.994914619570
         N           -1.474647136335    -1.039697991462    -0.482770855837    14.003074004430
         C           -0.633359636335     0.211177308538    -0.359470755837    12.000000000000
         C           -1.265103136335     1.249795008538     0.579804144163    12.000000000000
         C            0.690647863665    -0.131156991462    -0.010625855837    12.000000000000
         H           -0.692927136335     0.655739008538    -1.414338855837     1.007825032230
         H           -0.659877136335     2.161135008538     0.573072144163     1.007825032230
         H           -2.292243136335     1.517035008538     0.313609144163     1.007825032230
         H           -1.265426136335     0.831892008538     1.591312144163     1.007825032230
         H           -2.471728136335    -0.837265991462    -0.537636855837     1.007825032230
         H           -1.314739136335    -1.558985991462     0.379861144163     1.007825032230
         H            2.457830863665     0.484159008538    -0.151437855837     1.007825032230

  Basis Set: AUG-CC-PVTZ
    Blend: AUG-CC-PVTZ
  Basis Set: (AUG-CC-PVTZ AUX)
    Blend: AUG-CC-PVTZ-JKFIT
	 Reference Energy          =    -321.9812641051515811 [Eh]
	 Singles Energy            =      -0.0000000000000000 [Eh]
	 Same-Spin Energy          =      -0.3177807910526768 [Eh]
	 Opposite-Spin Energy      =      -1.0019246983764183 [Eh]
	 Correlation Energy        =      -1.3197054894290949 [Eh]
	 Total Energy              =    -323.3009695945806925 [Eh]

	 ================> DF-SCS-MP2 Energies <==================
	-----------------------------------------------------------
	 SCS Same-Spin Scale       =       0.3333333333333333 [-]
	 SCS Opposite-Spin Scale   =       1.2000000000000000 [-]
	 SCS Same-Spin Energy      =      -0.1059269303508922 [Eh]
	 SCS Opposite-Spin Energy  =      -1.2023096380517020 [Eh]
	 SCS Correlation Energy    =      -1.3082365684025943 [Eh]
	 SCS Total Energy          =    -323.2895006735541870 [Eh]
	-----------------------------------------------------------

  Dipole Moment: [D]
     X:    -0.7644      Y:     2.1524      Z:     0.3357     Total:     2.3087

*** Psi4 exiting successfully. Buy a developer a beer!
