                               Psi4 1.3.2 release

  ==> Input File <==

--------------------------------------------------------------------------
#psi4
#
memory 32 gb

molecule  {
0 1
  O        1.6642950     0.7201020    -0.5160700
  O        1.0775810    -1.0797050     0.7319740
  N       -1.3988490    -1.0732660    -0.4837110
  C       -0.6495640     0.1769900    -0.4154850
  C       -1.1893050     1.2162270     0.5788640
  C        0.5790964    -0.1195133    -0.0650078
  H       -0.6171290     0.6221710    -1.4152790
  H       -0.5840790     2.1275670     0.5721320
  H       -2.2164450     1.4834670     0.3126690
  H       -1.1896280     0.7983240     1.5903720
  H       -2.3959300    -0.8708340    -0.5385770
  H       -1.2389410    -1.5925540     0.3789210
  H        2.5336290     0.4505910    -0.1523780
units angstrom
no_reorient  #important for SAPT in psi4, default
symmetry c1  #important for SAPT in psi4, default
}

set PROPERTIES_ORIGIN ["COM"]
properties('MP2/aug-cc-pvtz', properties = ['dipole'])
--------------------------------------------------------------------------

    Molecular point group: c1
  Charge       = 0
  Multiplicity = 1
  Basis Set: AUG-CC-PVTZ
    Blend: AUG-CC-PVTZ
  Basis Set: (AUG-CC-PVTZ AUX)
    Blend: AUG-CC-PVTZ-JKFIT

    Orbital Energies [Eh]
    ---------------------

    Doubly Occupied:

       1A    -20.602620     2A    -20.544922     3A    -15.565086
       4A    -11.408288     5A    -11.286647     6A    -11.255533
       7A     -1.411156     8A     -1.293761     9A     -1.226365
      10A     -1.068080    11A     -0.953759    12A     -0.782101
      13A     -0.747188    14A     -0.673144    15A     -0.650515
      16A     -0.624557    17A     -0.607615    18A     -0.578424
      19A     -0.574255    20A     -0.548565    21A     -0.528143
      22A     -0.445689    23A     -0.445366    24A     -0.420390

  @DF-RHF Final Energy:  -321.91752524247642

   => Energetics <=

    Nuclear Repulsion Energy =            249.6513726244818656
    One-Electron Energy =                -934.6534558422682721
    Two-Electron Energy =                 363.0845579753100196
    Total Energy =                       -321.9175252424764153
  Basis Set: (AUG-CC-PVTZ AUX)
    Blend: AUG-CC-PVTZ-RI
    Molecular point group: c1

    Geometry (in Angstrom), charge = 0, multiplicity = 1:

       Center              X                  Y                   Z               Mass
    ------------   -----------------  -----------------  -----------------  -----------------
         O            1.626142148276     0.747660769340    -0.500506332547    15.994914619570
         O            1.039428148276    -1.052146230660     0.747537667453    15.994914619570
         N           -1.437001851724    -1.045707230660    -0.468147332547    14.003074004430
         C           -0.687716851724     0.204548769340    -0.399921332547    12.000000000000
         C           -1.227457851724     1.243785769340     0.594427667453    12.000000000000
         C            0.540943548276    -0.091954530660    -0.049444132547    12.000000000000
         H           -0.655281851724     0.649729769340    -1.399715332547     1.007825032230
         H           -0.622231851724     2.155125769340     0.587695667453     1.007825032230
         H           -2.254597851724     1.511025769340     0.328232667453     1.007825032230
         H           -1.227780851724     0.825882769340     1.605935667453     1.007825032230
         H           -2.434082851724    -0.843275230660    -0.523013332547     1.007825032230
         H           -1.277093851724    -1.564995230660     0.394484667453     1.007825032230
         H            2.495476148276     0.478149769340    -0.136814332547     1.007825032230

  Basis Set: AUG-CC-PVTZ
    Blend: AUG-CC-PVTZ
  Basis Set: (AUG-CC-PVTZ AUX)
    Blend: AUG-CC-PVTZ-JKFIT
	 Reference Energy          =    -321.9175252424764153 [Eh]
	 Singles Energy            =      -0.0000000000000000 [Eh]
	 Same-Spin Energy          =      -0.3230972439020250 [Eh]
	 Opposite-Spin Energy      =      -1.0118351829825372 [Eh]
	 Correlation Energy        =      -1.3349324268845622 [Eh]
	 Total Energy              =    -323.2524576693609788 [Eh]

	 ================> DF-SCS-MP2 Energies <==================
	-----------------------------------------------------------
	 SCS Same-Spin Scale       =       0.3333333333333333 [-]
	 SCS Opposite-Spin Scale   =       1.2000000000000000 [-]
	 SCS Same-Spin Energy      =      -0.1076990813006750 [Eh]
	 SCS Opposite-Spin Energy  =      -1.2142022195790445 [Eh]
	 SCS Correlation Energy    =      -1.3219013008797196 [Eh]
	 SCS Total Energy          =    -323.2394265433561600 [Eh]
	-----------------------------------------------------------

  Dipole Moment: [D]
     X:    -1.9283      Y:     2.2297      Z:     0.1762     Total:     2.9532

*** Psi4 exiting successfully. Buy a developer a beer!
