                               Psi4 1.3.2 release

  ==> Input File <==

--------------------------------------------------------------------------
#psi4
#
memory 32 gb

molecule  {
0 1
  O        1.6642950     0.7201020    -0.5160700
  O        1.0775810    -1.0797050     0.7319740
  N       -1.3988490    -1.0732660    -0.4837110
  C       -0.6106436     0.2113711    -0.4288460
  C       -1.1893050     1.2162270     0.5788640
  C        0.7664460    -0.1647250    -0.0115660
  H       -0.6171290     0.6221710    -1.4152790
  H       -0.5840790     2.1275670     0.5721320
  H       -2.2164450     1.4834670     0.3126690
  H       -1.1896280     0.7983240     1.5903720
  H       -2.3959300    -0.8708340    -0.5385770
  H       -1.2389410    -1.5925540     0.3789210
  H        2.5336290     0.4505910    -0.1523780
units angstrom
no_reorient  #important for SAPT in psi4, default
symmetry c1  #important for SAPT in psi4, default
}

set PROPERTIES_ORIGIN ["COM"]
properties('MP2/aug-cc-pvtz', properties = ['dipole'])
--------------------------------------------------------------------------

    Molecular point group: c1
  Charge       = 0
  Multiplicity = 1
  Basis Set: AUG-CC-PVTZ
    Blend: AUG-CC-PVTZ
  Basis Set: (AUG-CC-PVTZ AUX)
    Blend: AUG-CC-PVTZ-JKFIT

    Orbital Energies [Eh]
    ---------------------

    Doubly Occupied:

       1A    -20.621244     2A    -20.556939     3A    -15.549293
       4A    -11.392335     5A    -11.282107     6A    -11.238226
       7A     -1.466317     8A     -1.362857     9A     -1.186829
      10A     -1.026944    11A     -0.919194    12A     -0.793377
      13A     -0.725867    14A     -0.707555    15A     -0.647274
      16A     -0.626808    17A     -0.606909    18A     -0.584325
      19A     -0.569753    20A     -0.547486    21A     -0.522916
      22A     -0.485974    23A     -0.459380    24A     -0.402348

  @DF-RHF Final Energy:  -321.99239347991943

   => Energetics <=

    Nuclear Repulsion Energy =            249.2666046025839535
    One-Electron Energy =                -933.9534799393542244
    Two-Electron Energy =                 362.6944818568508708
    Total Energy =                       -321.9923934799194285
  Basis Set: (AUG-CC-PVTZ AUX)
    Blend: AUG-CC-PVTZ-RI
    Molecular point group: c1

    Geometry (in Angstrom), charge = 0, multiplicity = 1:

       Center              X                  Y                   Z               Mass
    ------------   -----------------  -----------------  -----------------  -----------------
         O            1.595650168624     0.749120293072    -0.505907591831    15.994914619570
         O            1.008936168624    -1.050686706928     0.742136408169    15.994914619570
         N           -1.467493831376    -1.044247706928    -0.473548591831    14.003074004430
         C           -0.679288431376     0.240389393072    -0.418683591831    12.000000000000
         C           -1.257949831376     1.245245293072     0.589026408169    12.000000000000
         C            0.697801168624    -0.135706706928    -0.001403591831    12.000000000000
         H           -0.685773831376     0.651189293072    -1.405116591831     1.007825032230
         H           -0.652723831376     2.156585293072     0.582294408169     1.007825032230
         H           -2.285089831376     1.512485293072     0.322831408169     1.007825032230
         H           -1.258272831376     0.827342293072     1.600534408169     1.007825032230
         H           -2.464574831376    -0.841815706928    -0.528414591831     1.007825032230
         H           -1.307585831376    -1.563535706928     0.389083408169     1.007825032230
         H            2.464984168624     0.479609293072    -0.142215591831     1.007825032230

  Basis Set: AUG-CC-PVTZ
    Blend: AUG-CC-PVTZ
  Basis Set: (AUG-CC-PVTZ AUX)
    Blend: AUG-CC-PVTZ-JKFIT
	 Reference Energy          =    -321.9923934799194285 [Eh]
	 Singles Energy            =      -0.0000000000000000 [Eh]
	 Same-Spin Energy          =      -0.3169814626074134 [Eh]
	 Opposite-Spin Energy      =      -1.0004802369639187 [Eh]
	 Correlation Energy        =      -1.3174616995713322 [Eh]
	 Total Energy              =    -323.3098551794907394 [Eh]

	 ================> DF-SCS-MP2 Energies <==================
	-----------------------------------------------------------
	 SCS Same-Spin Scale       =       0.3333333333333333 [-]
	 SCS Opposite-Spin Scale   =       1.2000000000000000 [-]
	 SCS Same-Spin Energy      =      -0.1056604875358045 [Eh]
	 SCS Opposite-Spin Energy  =      -1.2005762843567025 [Eh]
	 SCS Correlation Energy    =      -1.3062367718925070 [Eh]
	 SCS Total Energy          =    -323.2986302518119146 [Eh]
	-----------------------------------------------------------

  Dipole Moment: [D]
     X:    -0.7059      Y:     2.1446      Z:     0.2973     Total:     2.2773

*** Psi4 exiting successfully. Buy a developer a beer!
