                               Psi4 1.3.2 release

  ==> Input File <==

--------------------------------------------------------------------------
#psi4
#
memory 32 gb

molecule  {
0 1
  O        1.6642950     0.7201020    -0.5160700
  O        1.1987306    -1.0431833     0.7152669
  N       -1.3988490    -1.0732660    -0.4837110
  C       -0.6495640     0.1769900    -0.4154850
  C       -1.1893050     1.2162270     0.5788640
  C        0.7664460    -0.1647250    -0.0115660
  H       -0.6171290     0.6221710    -1.4152790
  H       -0.5840790     2.1275670     0.5721320
  H       -2.2164450     1.4834670     0.3126690
  H       -1.1896280     0.7983240     1.5903720
  H       -2.3959300    -0.8708340    -0.5385770
  H       -1.2389410    -1.5925540     0.3789210
  H        2.5336290     0.4505910    -0.1523780
units angstrom
no_reorient  #important for SAPT in psi4, default
symmetry c1  #important for SAPT in psi4, default
}

set PROPERTIES_ORIGIN ["COM"]
properties('MP2/aug-cc-pvtz', properties = ['dipole'])
--------------------------------------------------------------------------

    Molecular point group: c1
  Charge       = 0
  Multiplicity = 1
  Basis Set: AUG-CC-PVTZ
    Blend: AUG-CC-PVTZ
  Basis Set: (AUG-CC-PVTZ AUX)
    Blend: AUG-CC-PVTZ-JKFIT

    Orbital Energies [Eh]
    ---------------------

    Doubly Occupied:

       1A    -20.610581     2A    -20.552755     3A    -15.555736
       4A    -11.390324     5A    -11.289396     6A    -11.239499
       7A     -1.464788     8A     -1.351170     9A     -1.205556
      10A     -1.027569    11A     -0.915454    12A     -0.791029
      13A     -0.725123    14A     -0.702720    15A     -0.644806
      16A     -0.628170    17A     -0.613330    18A     -0.585659
      19A     -0.580731    20A     -0.544706    21A     -0.524318
      22A     -0.480115    23A     -0.454507    24A     -0.408982

  @DF-RHF Final Energy:  -321.99351054825632

   => Energetics <=

    Nuclear Repulsion Energy =            248.8851661074338608
    One-Electron Energy =                -933.1833048673051962
    Two-Electron Energy =                 362.3046282116150110
    Total Energy =                       -321.9935105482563245
  Basis Set: (AUG-CC-PVTZ AUX)
    Blend: AUG-CC-PVTZ-RI
    Molecular point group: c1

    Geometry (in Angstrom), charge = 0, multiplicity = 1:

       Center              X                  Y                   Z               Mass
    ------------   -----------------  -----------------  -----------------  -----------------
         O            1.579133929981     0.747193367225    -0.504707149103    15.994914619570
         O            1.113569529981    -1.016091932775     0.726629750897    15.994914619570
         N           -1.484010070019    -1.046174632775    -0.472348149103    14.003074004430
         C           -0.734725070019     0.204081367225    -0.404122149103    12.000000000000
         C           -1.274466070019     1.243318367225     0.590226850897    12.000000000000
         C            0.681284929981    -0.137633632775    -0.000203149103    12.000000000000
         H           -0.702290070019     0.649262367225    -1.403916149103     1.007825032230
         H           -0.669240070019     2.154658367225     0.583494850897     1.007825032230
         H           -2.301606070019     1.510558367225     0.324031850897     1.007825032230
         H           -1.274789070019     0.825415367225     1.601734850897     1.007825032230
         H           -2.481091070019    -0.843742632775    -0.527214149103     1.007825032230
         H           -1.324102070019    -1.565462632775     0.390283850897     1.007825032230
         H            2.448467929981     0.477682367225    -0.141015149103     1.007825032230

  Basis Set: AUG-CC-PVTZ
    Blend: AUG-CC-PVTZ
  Basis Set: (AUG-CC-PVTZ AUX)
    Blend: AUG-CC-PVTZ-JKFIT
	 Reference Energy          =    -321.9935105482563245 [Eh]
	 Singles Energy            =      -0.0000000000000000 [Eh]
	 Same-Spin Energy          =      -0.3166427673876128 [Eh]
	 Opposite-Spin Energy      =      -0.9994155041483260 [Eh]
	 Correlation Energy        =      -1.3160582715359388 [Eh]
	 Total Energy              =    -323.3095688197922755 [Eh]

	 ================> DF-SCS-MP2 Energies <==================
	-----------------------------------------------------------
	 SCS Same-Spin Scale       =       0.3333333333333333 [-]
	 SCS Opposite-Spin Scale   =       1.2000000000000000 [-]
	 SCS Same-Spin Energy      =      -0.1055475891292043 [Eh]
	 SCS Opposite-Spin Energy  =      -1.1992986049779912 [Eh]
	 SCS Correlation Energy    =      -1.3048461941071956 [Eh]
	 SCS Total Energy          =    -323.2983567423635236 [Eh]
	-----------------------------------------------------------

  Dipole Moment: [D]
     X:    -1.1623      Y:     1.9853      Z:     0.2981     Total:     2.3198

*** Psi4 exiting successfully. Buy a developer a beer!
