                               Psi4 1.4a3.dev225

  ==> Input File <==

--------------------------------------------------------------------------
#psi4
#
memory 32 gb

molecule  {
0 1
  O        1.6642820     0.7200090    -0.5161230
  O        1.0775160    -1.0797240     0.7320070
  N       -1.3989360    -1.0731900    -0.4836900
  C       -0.6495540     0.1769830    -0.4155270
  C       -1.1891480     1.2162680     0.5789130
  C        0.7477073    -0.1602483    -0.0169206
  H       -0.6171430     0.6221670    -1.4153090
  H       -0.5838330     2.1275540     0.5722180
  H       -2.2162690     1.4836440     0.3127790
  H       -1.1894240     0.7982770     1.5903820
  H       -2.3959760    -0.8706470    -0.5387880
  H       -1.2392480    -1.5923700     0.3790470
  H        2.5336150     0.4505320    -0.1524310
units angstrom
no_reorient  #important for SAPT in psi4, default
symmetry c1  #important for SAPT in psi4, default
}

set PROPERTIES_ORIGIN ["COM"]
properties('MP2/aug-cc-pvtz', properties = ['dipole'])
--------------------------------------------------------------------------

    Molecular point group: c1
  Charge       = 0
  Multiplicity = 1
  Basis Set: AUG-CC-PVTZ
    Blend: AUG-CC-PVTZ
  Basis Set: (AUG-CC-PVTZ AUX)
    Blend: AUG-CC-PVTZ-JKFIT

    Orbital Energies [Eh]
    ---------------------

    Doubly Occupied:

       1A    -20.619657     2A    -20.554342     3A    -15.552252
       4A    -11.392960     5A    -11.283826     6A    -11.238077
       7A     -1.459577     8A     -1.354521     9A     -1.202389
      10A     -1.027422    11A     -0.917270    12A     -0.792091
      13A     -0.726129    14A     -0.703687    15A     -0.644793
      16A     -0.625364    17A     -0.611988    18A     -0.584395
      19A     -0.578424    20A     -0.544523    21A     -0.522024
      22A     -0.481333    23A     -0.455974    24A     -0.406174

  @DF-RHF Final Energy:  -321.99361268480141

   => Energetics <=

    Nuclear Repulsion Energy =            249.3295333239406375
    One-Electron Energy =                -934.0879071511117218
    Two-Electron Energy =                 362.7647611423697072
    Total Energy =                       -321.9936126848014055
  Basis Set: (AUG-CC-PVTZ AUX)
    Blend: AUG-CC-PVTZ-RI
    Molecular point group: c1

    Geometry (in Angstrom), charge = 0, multiplicity = 1:

       Center              X                  Y                   Z               Mass
    ------------   -----------------  -----------------  -----------------  -----------------
         O            1.603409680671     0.753055962627    -0.507040611717    15.994914619570
         O            1.016643680671    -1.046677037373     0.741089388283    15.994914619570
         N           -1.459808319329    -1.040143037373    -0.474607611717    14.003074004430
         C           -0.710426319329     0.210029962627    -0.406444611717    12.000000000000
         C           -1.250020319329     1.249314962627     0.587995388283    12.000000000000
         C            0.686834980671    -0.127201337373    -0.007838211717    12.000000000000
         H           -0.678015319329     0.655213962627    -1.406226611717     1.007825032230
         H           -0.644705319329     2.160600962627     0.581300388283     1.007825032230
         H           -2.277141319329     1.516690962627     0.321861388283     1.007825032230
         H           -1.250296319329     0.831323962627     1.599464388283     1.007825032230
         H           -2.456848319329    -0.837600037373    -0.529705611717     1.007825032230
         H           -1.300120319329    -1.559323037373     0.388129388283     1.007825032230
         H            2.472742680671     0.483578962627    -0.143348611717     1.007825032230

  Basis Set: AUG-CC-PVTZ
    Blend: AUG-CC-PVTZ
  Basis Set: (AUG-CC-PVTZ AUX)
    Blend: AUG-CC-PVTZ-JKFIT
	 Reference Energy          =    -321.9936126848014055 [Eh]
	 Singles Energy            =      -0.0000000000000000 [Eh]
	 Same-Spin Energy          =      -0.3173416834488871 [Eh]
	 Opposite-Spin Energy      =      -1.0007453318325221 [Eh]
	 Correlation Energy        =      -1.3180870152814093 [Eh]
	 Total Energy              =    -323.3116997000828405 [Eh]

	 ================> DF-SCS-MP2 Energies <==================
	-----------------------------------------------------------
	 SCS Same-Spin Scale       =       0.3333333333333333 [-]
	 SCS Opposite-Spin Scale   =       1.2000000000000000 [-]
	 SCS Same-Spin Energy      =      -0.1057805611496290 [Eh]
	 SCS Opposite-Spin Energy  =      -1.2008943981990265 [Eh]
	 SCS Correlation Energy    =      -1.3066749593486555 [Eh]
	 SCS Total Energy          =    -323.3002876441500462 [Eh]
	-----------------------------------------------------------

  Dipole Moment: [D]
     X:    -0.8698      Y:     2.0642      Z:     0.2695     Total:     2.2562

*** Psi4 exiting successfully. Buy a developer a beer!
