                               Psi4 1.3.2 release

  ==> Input File <==

--------------------------------------------------------------------------
#psi4
#
memory 32 gb

molecule  {
0 1
  O        1.6642950     0.7201020    -0.5160700
  O        1.0775810    -1.0797050     0.7319740
  N       -1.3988490    -1.0732660    -0.4837110
  C       -0.6495640     0.1769900    -0.4154850
  C       -1.3261820     1.2133993     0.4945192
  C        0.7664460    -0.1647250    -0.0115660
  H       -0.6171290     0.6221710    -1.4152790
  H       -0.5840790     2.1275670     0.5721320
  H       -2.2164450     1.4834670     0.3126690
  H       -1.1896280     0.7983240     1.5903720
  H       -2.3959300    -0.8708340    -0.5385770
  H       -1.2389410    -1.5925540     0.3789210
  H        2.5336290     0.4505910    -0.1523780
units angstrom
no_reorient  #important for SAPT in psi4, default
symmetry c1  #important for SAPT in psi4, default
}

set PROPERTIES_ORIGIN ["COM"]
properties('MP2/aug-cc-pvtz', properties = ['dipole'])
--------------------------------------------------------------------------

    Molecular point group: c1
  Charge       = 0
  Multiplicity = 1
  Basis Set: AUG-CC-PVTZ
    Blend: AUG-CC-PVTZ
  Basis Set: (AUG-CC-PVTZ AUX)
    Blend: AUG-CC-PVTZ-JKFIT

    Orbital Energies [Eh]
    ---------------------

    Doubly Occupied:

       1A    -20.623534     2A    -20.558976     3A    -15.548670
       4A    -11.395803     5A    -11.284323     6A    -11.239649
       7A     -1.467156     8A     -1.364536     9A     -1.200481
      10A     -1.021191    11A     -0.922607    12A     -0.794697
      13A     -0.724580    14A     -0.709151    15A     -0.660426
      16A     -0.630906    17A     -0.606790    18A     -0.594634
      19A     -0.568074    20A     -0.560630    21A     -0.491367
      22A     -0.485876    23A     -0.460460    24A     -0.399051

  @DF-RHF Final Energy:  -321.96303230064854

   => Energetics <=

    Nuclear Repulsion Energy =            248.7892084017279046
    One-Electron Energy =                -932.8773414692956294
    Two-Electron Energy =                 362.1251007669191608
    Total Energy =                       -321.9630323006485355
  Basis Set: (AUG-CC-PVTZ AUX)
    Blend: AUG-CC-PVTZ-RI
    Molecular point group: c1

    Geometry (in Angstrom), charge = 0, multiplicity = 1:

       Center              X                  Y                   Z               Mass
    ------------   -----------------  -----------------  -----------------  -----------------
         O            1.619340497628     0.754134523737    -0.496341866877    15.994914619570
         O            1.032626497628    -1.045672476263     0.751702133123    15.994914619570
         N           -1.443803502372    -1.039233476263    -0.463982866877    14.003074004430
         C           -0.694518502372     0.211022523737    -0.395756866877    12.000000000000
         C           -1.371136502372     1.247431823737     0.514247333123    12.000000000000
         C            0.721491497628    -0.130692476263     0.008162133123    12.000000000000
         H           -0.662083502372     0.656203523737    -1.395550866877     1.007825032230
         H           -0.629033502372     2.161599523737     0.591860133123     1.007825032230
         H           -2.261399502372     1.517499523737     0.332397133123     1.007825032230
         H           -1.234582502372     0.832356523737     1.610100133123     1.007825032230
         H           -2.440884502372    -0.836801476263    -0.518848866877     1.007825032230
         H           -1.283895502372    -1.558521476263     0.398649133123     1.007825032230
         H            2.488674497628     0.484623523737    -0.132649866877     1.007825032230

  Basis Set: AUG-CC-PVTZ
    Blend: AUG-CC-PVTZ
  Basis Set: (AUG-CC-PVTZ AUX)
    Blend: AUG-CC-PVTZ-JKFIT
	 Reference Energy          =    -321.9630323006485355 [Eh]
	 Singles Energy            =      -0.0000000000000000 [Eh]
	 Same-Spin Energy          =      -0.3172084748343883 [Eh]
	 Opposite-Spin Energy      =      -1.0013662489273318 [Eh]
	 Correlation Energy        =      -1.3185747237617202 [Eh]
	 Total Energy              =    -323.2816070244102775 [Eh]

	 ================> DF-SCS-MP2 Energies <==================
	-----------------------------------------------------------
	 SCS Same-Spin Scale       =       0.3333333333333333 [-]
	 SCS Opposite-Spin Scale   =       1.2000000000000000 [-]
	 SCS Same-Spin Energy      =      -0.1057361582781294 [Eh]
	 SCS Opposite-Spin Energy  =      -1.2016394987127981 [Eh]
	 SCS Correlation Energy    =      -1.3073756569909274 [Eh]
	 SCS Total Energy          =    -323.2704079576394633 [Eh]
	-----------------------------------------------------------

  Dipole Moment: [D]
     X:    -0.6979      Y:     2.0123      Z:     0.2637     Total:     2.1461

*** Psi4 exiting successfully. Buy a developer a beer!
