                               Psi4 1.3.2 release

  ==> Input File <==

--------------------------------------------------------------------------
#psi4
#
memory 32 gb

molecule  {
0 1
  O        1.6642950     0.7201020    -0.5160700
  O        1.0775810    -1.0797050     0.7319740
  N       -1.3988490    -1.0732660    -0.4837110
  C       -0.6495640     0.1769900    -0.4154850
  C       -1.2007968     1.3171176     0.4541789
  C        0.7664460    -0.1647250    -0.0115660
  H       -0.6171290     0.6221710    -1.4152790
  H       -0.5840790     2.1275670     0.5721320
  H       -2.2164450     1.4834670     0.3126690
  H       -1.1896280     0.7983240     1.5903720
  H       -2.3959300    -0.8708340    -0.5385770
  H       -1.2389410    -1.5925540     0.3789210
  H        2.5336290     0.4505910    -0.1523780
units angstrom
no_reorient  #important for SAPT in psi4, default
symmetry c1  #important for SAPT in psi4, default
}

set PROPERTIES_ORIGIN ["COM"]
properties('MP2/aug-cc-pvtz', properties = ['dipole'])
--------------------------------------------------------------------------

    Molecular point group: c1
  Charge       = 0
  Multiplicity = 1
  Basis Set: AUG-CC-PVTZ
    Blend: AUG-CC-PVTZ
  Basis Set: (AUG-CC-PVTZ AUX)
    Blend: AUG-CC-PVTZ-JKFIT

    Orbital Energies [Eh]
    ---------------------

    Doubly Occupied:

       1A    -20.622256     2A    -20.556452     3A    -15.553909
       4A    -11.392986     5A    -11.284463     6A    -11.240872
       7A     -1.465720     8A     -1.362703     9A     -1.200521
      10A     -1.026963    11A     -0.915917    12A     -0.794023
      13A     -0.723726    14A     -0.708614    15A     -0.649978
      16A     -0.630203    17A     -0.626176    18A     -0.587846
      19A     -0.577618    20A     -0.557224    21A     -0.486378
      22A     -0.481505    23A     -0.454389    24A     -0.406682

  @DF-RHF Final Energy:  -321.97166042395577

   => Energetics <=

    Nuclear Repulsion Energy =            248.8702777627644309
    One-Electron Energy =                -933.0696340730413567
    Two-Electron Energy =                 362.2276958863211576
    Total Energy =                       -321.9716604239557682
  Basis Set: (AUG-CC-PVTZ AUX)
    Blend: AUG-CC-PVTZ-RI
    Molecular point group: c1

    Geometry (in Angstrom), charge = 0, multiplicity = 1:

       Center              X                  Y                   Z               Mass
    ------------   -----------------  -----------------  -----------------  -----------------
         O            1.602443679812     0.740157521513    -0.490905637563    15.994914619570
         O            1.015729679812    -1.059649478487     0.757138362437    15.994914619570
         N           -1.460700320188    -1.053210478487    -0.458546637563    14.003074004430
         C           -0.711415320188     0.197045521513    -0.390320637563    12.000000000000
         C           -1.262648120188     1.337173121513     0.479343262437    12.000000000000
         C            0.704594679812    -0.144669478487     0.013598362437    12.000000000000
         H           -0.678980320188     0.642226521513    -1.390114637563     1.007825032230
         H           -0.645930320188     2.147622521513     0.597296362437     1.007825032230
         H           -2.278296320188     1.503522521513     0.337833362437     1.007825032230
         H           -1.251479320188     0.818379521513     1.615536362437     1.007825032230
         H           -2.457781320188    -0.850778478487    -0.513412637563     1.007825032230
         H           -1.300792320188    -1.572498478487     0.404085362437     1.007825032230
         H            2.471777679812     0.470646521513    -0.127213637563     1.007825032230

  Basis Set: AUG-CC-PVTZ
    Blend: AUG-CC-PVTZ
  Basis Set: (AUG-CC-PVTZ AUX)
    Blend: AUG-CC-PVTZ-JKFIT
	 Reference Energy          =    -321.9716604239557682 [Eh]
	 Singles Energy            =      -0.0000000000000000 [Eh]
	 Same-Spin Energy          =      -0.3173411100468054 [Eh]
	 Opposite-Spin Energy      =      -1.0012261475262483 [Eh]
	 Correlation Energy        =      -1.3185672575730538 [Eh]
	 Total Energy              =    -323.2902276815288474 [Eh]

	 ================> DF-SCS-MP2 Energies <==================
	-----------------------------------------------------------
	 SCS Same-Spin Scale       =       0.3333333333333333 [-]
	 SCS Opposite-Spin Scale   =       1.2000000000000000 [-]
	 SCS Same-Spin Energy      =      -0.1057803700156018 [Eh]
	 SCS Opposite-Spin Energy  =      -1.2014713770314980 [Eh]
	 SCS Correlation Energy    =      -1.3072517470470997 [Eh]
	 SCS Total Energy          =    -323.2789121710028439 [Eh]
	-----------------------------------------------------------

  Dipole Moment: [D]
     X:    -0.7471      Y:     2.0320      Z:     0.1944     Total:     2.1737

*** Psi4 exiting successfully. Buy a developer a beer!
