                               Psi4 1.3.2 release

  ==> Input File <==

--------------------------------------------------------------------------
#psi4
#
memory 32 gb

molecule  {
0 1
  O        1.6642950     0.7201020    -0.5160700
  O        1.0775810    -1.0797050     0.7319740
  N       -1.4913303    -1.0143129    -0.3774098
  C       -0.6495640     0.1769900    -0.4154850
  C       -1.1893050     1.2162270     0.5788640
  C        0.7664460    -0.1647250    -0.0115660
  H       -0.6171290     0.6221710    -1.4152790
  H       -0.5840790     2.1275670     0.5721320
  H       -2.2164450     1.4834670     0.3126690
  H       -1.1896280     0.7983240     1.5903720
  H       -2.3959300    -0.8708340    -0.5385770
  H       -1.2389410    -1.5925540     0.3789210
  H        2.5336290     0.4505910    -0.1523780
units angstrom
no_reorient  #important for SAPT in psi4, default
symmetry c1  #important for SAPT in psi4, default
}

set PROPERTIES_ORIGIN ["COM"]
properties('MP2/aug-cc-pvtz', properties = ['dipole'])
--------------------------------------------------------------------------

    Molecular point group: c1
  Charge       = 0
  Multiplicity = 1
  Basis Set: AUG-CC-PVTZ
    Blend: AUG-CC-PVTZ
  Basis Set: (AUG-CC-PVTZ AUX)
    Blend: AUG-CC-PVTZ-JKFIT

    Orbital Energies [Eh]
    ---------------------

    Doubly Occupied:

       1A    -20.623019     2A    -20.556657     3A    -15.531298
       4A    -11.393671     5A    -11.283951     6A    -11.231667
       7A     -1.466329     8A     -1.363189     9A     -1.205858
      10A     -1.027280    11A     -0.913136    12A     -0.796318
      13A     -0.735840    14A     -0.709655    15A     -0.656669
      16A     -0.641675    17A     -0.617108    18A     -0.592344
      19A     -0.567231    20A     -0.546327    21A     -0.523441
      22A     -0.486551    23A     -0.455713    24A     -0.386540

  @DF-RHF Final Energy:  -321.98861206915473

   => Energetics <=

    Nuclear Repulsion Energy =            249.7396853858633108
    One-Electron Energy =                -934.8336598960237325
    Two-Electron Energy =                 363.1053624410057523
    Total Energy =                       -321.9886120691547262
  Basis Set: (AUG-CC-PVTZ AUX)
    Blend: AUG-CC-PVTZ-RI
    Molecular point group: c1

    Geometry (in Angstrom), charge = 0, multiplicity = 1:

       Center              X                  Y                   Z               Mass
    ------------   -----------------  -----------------  -----------------  -----------------
         O            1.615438076834     0.744482873779    -0.524424363954    15.994914619570
         O            1.028724076834    -1.055324126221     0.723619636046    15.994914619570
         N           -1.540187223166    -0.989932026221    -0.385764163954    14.003074004430
         C           -0.698420923166     0.201370873779    -0.423839363954    12.000000000000
         C           -1.238161923166     1.240607873779     0.570509636046    12.000000000000
         C            0.717589076834    -0.140344126221    -0.019920363954    12.000000000000
         H           -0.665985923166     0.646551873779    -1.423633363954     1.007825032230
         H           -0.632935923166     2.151947873779     0.563777636046     1.007825032230
         H           -2.265301923166     1.507847873779     0.304314636046     1.007825032230
         H           -1.238484923166     0.822704873779     1.582017636046     1.007825032230
         H           -2.444786923166    -0.846453126221    -0.546931363954     1.007825032230
         H           -1.287797923166    -1.568173126221     0.370566636046     1.007825032230
         H            2.484772076834     0.474971873779    -0.160732363954     1.007825032230

  Basis Set: AUG-CC-PVTZ
    Blend: AUG-CC-PVTZ
  Basis Set: (AUG-CC-PVTZ AUX)
    Blend: AUG-CC-PVTZ-JKFIT
	 Reference Energy          =    -321.9886120691547262 [Eh]
	 Singles Energy            =      -0.0000000000000000 [Eh]
	 Same-Spin Energy          =      -0.3164131262430990 [Eh]
	 Opposite-Spin Energy      =      -0.9977659232442995 [Eh]
	 Correlation Energy        =      -1.3141790494873984 [Eh]
	 Total Energy              =    -323.3027911186421193 [Eh]

	 ================> DF-SCS-MP2 Energies <==================
	-----------------------------------------------------------
	 SCS Same-Spin Scale       =       0.3333333333333333 [-]
	 SCS Opposite-Spin Scale   =       1.2000000000000000 [-]
	 SCS Same-Spin Energy      =      -0.1054710420810330 [Eh]
	 SCS Opposite-Spin Energy  =      -1.1973191078931593 [Eh]
	 SCS Correlation Energy    =      -1.3027901499741923 [Eh]
	 SCS Total Energy          =    -323.2914022191289405 [Eh]
	-----------------------------------------------------------

  Dipole Moment: [D]
     X:    -0.5886      Y:     1.8245      Z:    -0.0055     Total:     1.9171

*** Psi4 exiting successfully. Buy a developer a beer!
