                               Psi4 1.3.2 release

  ==> Input File <==

--------------------------------------------------------------------------
#psi4
#
memory 32 gb

molecule  {
0 1
  O        1.6642950     0.7201020    -0.5160700
  O        1.0775810    -1.0797050     0.7319740
  N       -1.4056595    -1.0654260    -0.5335736
  C       -0.6495640     0.1769900    -0.4154850
  C       -1.1893050     1.2162270     0.5788640
  C        0.7664460    -0.1647250    -0.0115660
  H       -0.6171290     0.6221710    -1.4152790
  H       -0.5840790     2.1275670     0.5721320
  H       -2.2164450     1.4834670     0.3126690
  H       -1.1896280     0.7983240     1.5903720
  H       -2.3959300    -0.8708340    -0.5385770
  H       -1.2389410    -1.5925540     0.3789210
  H        2.5336290     0.4505910    -0.1523780
units angstrom
no_reorient  #important for SAPT in psi4, default
symmetry c1  #important for SAPT in psi4, default
}

set PROPERTIES_ORIGIN ["COM"]
properties('MP2/aug-cc-pvtz', properties = ['dipole'])
--------------------------------------------------------------------------

    Molecular point group: c1
  Charge       = 0
  Multiplicity = 1
  Basis Set: AUG-CC-PVTZ
    Blend: AUG-CC-PVTZ
  Basis Set: (AUG-CC-PVTZ AUX)
    Blend: AUG-CC-PVTZ-JKFIT

    Orbital Energies [Eh]
    ---------------------

    Doubly Occupied:

       1A    -20.621883     2A    -20.555823     3A    -15.556352
       4A    -11.391924     5A    -11.282714     6A    -11.237465
       7A     -1.465322     8A     -1.362273     9A     -1.198438
      10A     -1.023184    11A     -0.913882    12A     -0.792263
      13A     -0.721924    14A     -0.706024    15A     -0.647234
      16A     -0.628536    17A     -0.605816    18A     -0.587170
      19A     -0.573435    20A     -0.544812    21A     -0.516557
      22A     -0.485878    23A     -0.455024    24A     -0.408932

  @DF-RHF Final Energy:  -321.99197292570341

   => Energetics <=

    Nuclear Repulsion Energy =            248.9754893335692714
    One-Electron Energy =                -933.3691974978595454
    Two-Electron Energy =                 362.4017352385868662
    Total Energy =                       -321.9919729257034078
  Basis Set: (AUG-CC-PVTZ AUX)
    Blend: AUG-CC-PVTZ-RI
    Molecular point group: c1

    Geometry (in Angstrom), charge = 0, multiplicity = 1:

       Center              X                  Y                   Z               Mass
    ------------   -----------------  -----------------  -----------------  -----------------
         O            1.601966029353     0.752520596202    -0.499867033704    15.994914619570
         O            1.015252029353    -1.047286403798     0.748176966296    15.994914619570
         N           -1.467988470647    -1.033007403798    -0.517370633704    14.003074004430
         C           -0.711892970647     0.209408596202    -0.399282033704    12.000000000000
         C           -1.251633970647     1.248645596202     0.595066966296    12.000000000000
         C            0.704117029353    -0.132306403798     0.004636966296    12.000000000000
         H           -0.679457970647     0.654589596202    -1.399076033704     1.007825032230
         H           -0.646407970647     2.159985596202     0.588334966296     1.007825032230
         H           -2.278773970647     1.515885596202     0.328871966296     1.007825032230
         H           -1.251956970647     0.830742596202     1.606574966296     1.007825032230
         H           -2.458258970647    -0.838415403798    -0.522374033704     1.007825032230
         H           -1.301269970647    -1.560135403798     0.395123966296     1.007825032230
         H            2.471300029353     0.483009596202    -0.136175033704     1.007825032230

  Basis Set: AUG-CC-PVTZ
    Blend: AUG-CC-PVTZ
  Basis Set: (AUG-CC-PVTZ AUX)
    Blend: AUG-CC-PVTZ-JKFIT
	 Reference Energy          =    -321.9919729257034078 [Eh]
	 Singles Energy            =      -0.0000000000000000 [Eh]
	 Same-Spin Energy          =      -0.3172117708968168 [Eh]
	 Opposite-Spin Energy      =      -1.0008862149597255 [Eh]
	 Correlation Energy        =      -1.3180979858565425 [Eh]
	 Total Energy              =    -323.3100709115599329 [Eh]

	 ================> DF-SCS-MP2 Energies <==================
	-----------------------------------------------------------
	 SCS Same-Spin Scale       =       0.3333333333333333 [-]
	 SCS Opposite-Spin Scale   =       1.2000000000000000 [-]
	 SCS Same-Spin Energy      =      -0.1057372569656056 [Eh]
	 SCS Opposite-Spin Energy  =      -1.2010634579516706 [Eh]
	 SCS Correlation Energy    =      -1.3068007149172762 [Eh]
	 SCS Total Energy          =    -323.2987736406207091 [Eh]
	-----------------------------------------------------------

  Dipole Moment: [D]
     X:    -0.7401      Y:     2.0636      Z:     0.3703     Total:     2.2234

*** Psi4 exiting successfully. Buy a developer a beer!
