                               Psi4 1.4a3.dev225

  ==> Input File <==

--------------------------------------------------------------------------
#psi4
#
memory 32 gb

molecule  {
0 1
  O        1.6642820     0.7200090    -0.5161230
  O        1.0775160    -1.0797240     0.7320070
  N       -1.3989360    -1.0731900    -0.4836900
  C       -0.6495540     0.1769830    -0.4155270
  C       -1.1821234     1.2027382     0.5659670
  C        0.7664420    -0.1647700    -0.0115760
  H       -0.6171430     0.6221670    -1.4153090
  H       -0.5838330     2.1275540     0.5722180
  H       -2.2162690     1.4836440     0.3127790
  H       -1.1894240     0.7982770     1.5903820
  H       -2.3959760    -0.8706470    -0.5387880
  H       -1.2392480    -1.5923700     0.3790470
  H        2.5336150     0.4505320    -0.1524310
units angstrom
no_reorient  #important for SAPT in psi4, default
symmetry c1  #important for SAPT in psi4, default
}

set PROPERTIES_ORIGIN ["COM"]
properties('MP2/aug-cc-pvtz', properties = ['dipole'])
--------------------------------------------------------------------------

    Molecular point group: c1
  Charge       = 0
  Multiplicity = 1
  Basis Set: AUG-CC-PVTZ
    Blend: AUG-CC-PVTZ
  Basis Set: (AUG-CC-PVTZ AUX)
    Blend: AUG-CC-PVTZ-JKFIT

    Orbital Energies [Eh]
    ---------------------

    Doubly Occupied:

       1A    -20.621571     2A    -20.555442     3A    -15.550853
       4A    -11.391450     5A    -11.282230     6A    -11.237254
       7A     -1.465111     8A     -1.362061     9A     -1.201053
      10A     -1.026137    11A     -0.912363    12A     -0.792907
      13A     -0.724805    14A     -0.707369    15A     -0.647056
      16A     -0.629325    17A     -0.610307    18A     -0.584912
      19A     -0.578940    20A     -0.542604    21A     -0.518074
      22A     -0.485544    23A     -0.454172    24A     -0.405981

  @DF-RHF Final Energy:  -321.99509631305955

   => Energetics <=

    Nuclear Repulsion Energy =            249.6341374637443380
    One-Electron Energy =                -934.6834267641120277
    Two-Electron Energy =                 363.0541929873081699
    Total Energy =                       -321.9950963130595483
  Basis Set: (AUG-CC-PVTZ AUX)
    Blend: AUG-CC-PVTZ-RI
    Molecular point group: c1

    Geometry (in Angstrom), charge = 0, multiplicity = 1:

       Center              X                  Y                   Z               Mass
    ------------   -----------------  -----------------  -----------------  -----------------
         O            1.599938376249     0.755488569560    -0.506016252615    15.994914619570
         O            1.013172376249    -1.044244430440     0.742113747385    15.994914619570
         N           -1.463279623751    -1.037710430440    -0.473583252615    14.003074004430
         C           -0.713897623751     0.212462569560    -0.405420252615    12.000000000000
         C           -1.246467023751     1.238217769560     0.576073747385    12.000000000000
         C            0.702098376249    -0.129290430440    -0.001469252615    12.000000000000
         H           -0.681486623751     0.657646569560    -1.405202252615     1.007825032230
         H           -0.648176623751     2.163033569560     0.582324747385     1.007825032230
         H           -2.280612623751     1.519123569560     0.322885747385     1.007825032230
         H           -1.253767623751     0.833756569560     1.600488747385     1.007825032230
         H           -2.460319623751    -0.835167430440    -0.528681252615     1.007825032230
         H           -1.303591623751    -1.556890430440     0.389153747385     1.007825032230
         H            2.469271376249     0.486011569560    -0.142324252615     1.007825032230

  Basis Set: AUG-CC-PVTZ
    Blend: AUG-CC-PVTZ
  Basis Set: (AUG-CC-PVTZ AUX)
    Blend: AUG-CC-PVTZ-JKFIT
	 Reference Energy          =    -321.9950963130595483 [Eh]
	 Singles Energy            =      -0.0000000000000000 [Eh]
	 Same-Spin Energy          =      -0.3170677524334628 [Eh]
	 Opposite-Spin Energy      =      -1.0000699703989182 [Eh]
	 Correlation Energy        =      -1.3171377228323811 [Eh]
	 Total Energy              =    -323.3122340358919473 [Eh]

	 ================> DF-SCS-MP2 Energies <==================
	-----------------------------------------------------------
	 SCS Same-Spin Scale       =       0.3333333333333333 [-]
	 SCS Opposite-Spin Scale   =       1.2000000000000000 [-]
	 SCS Same-Spin Energy      =      -0.1056892508111543 [Eh]
	 SCS Opposite-Spin Energy  =      -1.2000839644787018 [Eh]
	 SCS Correlation Energy    =      -1.3057732152898560 [Eh]
	 SCS Total Energy          =    -323.3008695283493807 [Eh]
	-----------------------------------------------------------

  Dipole Moment: [D]
     X:    -0.7494      Y:     2.0496      Z:     0.2898     Total:     2.2014

*** Psi4 exiting successfully. Buy a developer a beer!
