                               Psi4 1.3.2 release

  ==> Input File <==

--------------------------------------------------------------------------
#psi4
#
memory 32 gb

molecule  {
0 1
  O        1.6642950     0.7201020    -0.5160700
  O        1.0775810    -1.0797050     0.7319740
  N       -1.3824987    -1.0843686    -0.3837972
  C       -0.6495640     0.1769900    -0.4154850
  C       -1.1893050     1.2162270     0.5788640
  C        0.7664460    -0.1647250    -0.0115660
  H       -0.6171290     0.6221710    -1.4152790
  H       -0.5840790     2.1275670     0.5721320
  H       -2.2164450     1.4834670     0.3126690
  H       -1.1896280     0.7983240     1.5903720
  H       -2.3959300    -0.8708340    -0.5385770
  H       -1.2389410    -1.5925540     0.3789210
  H        2.5336290     0.4505910    -0.1523780
units angstrom
no_reorient  #important for SAPT in psi4, default
symmetry c1  #important for SAPT in psi4, default
}

set PROPERTIES_ORIGIN ["COM"]
properties('MP2/aug-cc-pvtz', properties = ['dipole'])
--------------------------------------------------------------------------

    Molecular point group: c1
  Charge       = 0
  Multiplicity = 1
  Basis Set: AUG-CC-PVTZ
    Blend: AUG-CC-PVTZ
  Basis Set: (AUG-CC-PVTZ AUX)
    Blend: AUG-CC-PVTZ-JKFIT

    Orbital Energies [Eh]
    ---------------------

    Doubly Occupied:

       1A    -20.620562     2A    -20.554061     3A    -15.541176
       4A    -11.389956     5A    -11.284182     6A    -11.234662
       7A     -1.464143     8A     -1.361129     9A     -1.204421
      10A     -1.026478    11A     -0.912827    12A     -0.795909
      13A     -0.729345    14A     -0.709064    15A     -0.644063
      16A     -0.634013    17A     -0.619927    18A     -0.583589
      19A     -0.574922    20A     -0.542221    21A     -0.526646
      22A     -0.484165    23A     -0.453328    24A     -0.396733

  @DF-RHF Final Energy:  -321.98737192285046

   => Energetics <=

    Nuclear Repulsion Energy =            250.0521750716382030
    One-Electron Energy =                -935.5040475380505995
    Two-Electron Energy =                 363.4645005435619396
    Total Energy =                       -321.9873719228504569
  Basis Set: (AUG-CC-PVTZ AUX)
    Blend: AUG-CC-PVTZ-RI
    Molecular point group: c1

    Geometry (in Angstrom), charge = 0, multiplicity = 1:

       Center              X                  Y                   Z               Mass
    ------------   -----------------  -----------------  -----------------  -----------------
         O            1.598323908616     0.755499389520    -0.523419921880    15.994914619570
         O            1.011609908616    -1.044307610480     0.724624078120    15.994914619570
         N           -1.448469791384    -1.048971210480    -0.391147121880    14.003074004430
         C           -0.715535091384     0.212387389520    -0.422834921880    12.000000000000
         C           -1.255276091384     1.251624389520     0.571514078120    12.000000000000
         C            0.700474908616    -0.129327610480    -0.018915921880    12.000000000000
         H           -0.683100091384     0.657568389520    -1.422628921880     1.007825032230
         H           -0.650050091384     2.162964389520     0.564782078120     1.007825032230
         H           -2.282416091384     1.518864389520     0.305319078120     1.007825032230
         H           -1.255599091384     0.833721389520     1.583022078120     1.007825032230
         H           -2.461901091384    -0.835436610480    -0.545926921880     1.007825032230
         H           -1.304912091384    -1.557156610480     0.371571078120     1.007825032230
         H            2.467657908616     0.485988389520    -0.159727921880     1.007825032230

  Basis Set: AUG-CC-PVTZ
    Blend: AUG-CC-PVTZ
  Basis Set: (AUG-CC-PVTZ AUX)
    Blend: AUG-CC-PVTZ-JKFIT
	 Reference Energy          =    -321.9873719228504569 [Eh]
	 Singles Energy            =      -0.0000000000000000 [Eh]
	 Same-Spin Energy          =      -0.3166719936927122 [Eh]
	 Opposite-Spin Energy      =      -0.9989028770386297 [Eh]
	 Correlation Energy        =      -1.3155748707313419 [Eh]
	 Total Energy              =    -323.3029467935817820 [Eh]

	 ================> DF-SCS-MP2 Energies <==================
	-----------------------------------------------------------
	 SCS Same-Spin Scale       =       0.3333333333333333 [-]
	 SCS Opposite-Spin Scale   =       1.2000000000000000 [-]
	 SCS Same-Spin Energy      =      -0.1055573312309041 [Eh]
	 SCS Opposite-Spin Energy  =      -1.1986834524463557 [Eh]
	 SCS Correlation Energy    =      -1.3042407836772598 [Eh]
	 SCS Total Energy          =    -323.2916127065277010 [Eh]
	-----------------------------------------------------------

  Dipole Moment: [D]
     X:    -0.7846      Y:     2.0032      Z:     0.0883     Total:     2.1532

*** Psi4 exiting successfully. Buy a developer a beer!
