                               Psi4 1.3.2 release

  ==> Input File <==

--------------------------------------------------------------------------
#psi4
#
memory 32 gb

molecule  {
0 1
  O        1.6285005     0.7435151    -0.5364831
  O        1.0775810    -1.0797050     0.7319740
  N       -1.3988490    -1.0732660    -0.4837110
  C       -0.6495640     0.1769900    -0.4154850
  C       -1.1893050     1.2162270     0.5788640
  C        0.7664460    -0.1647250    -0.0115660
  H       -0.6171290     0.6221710    -1.4152790
  H       -0.5840790     2.1275670     0.5721320
  H       -2.2164450     1.4834670     0.3126690
  H       -1.1896280     0.7983240     1.5903720
  H       -2.3959300    -0.8708340    -0.5385770
  H       -1.2389410    -1.5925540     0.3789210
  H        2.5336290     0.4505910    -0.1523780
units angstrom
no_reorient  #important for SAPT in psi4, default
symmetry c1  #important for SAPT in psi4, default
}

set PROPERTIES_ORIGIN ["COM"]
properties('MP2/aug-cc-pvtz', properties = ['dipole'])
--------------------------------------------------------------------------

    Molecular point group: c1
  Charge       = 0
  Multiplicity = 1
  Basis Set: AUG-CC-PVTZ
    Blend: AUG-CC-PVTZ
  Basis Set: (AUG-CC-PVTZ AUX)
    Blend: AUG-CC-PVTZ-JKFIT

    Orbital Energies [Eh]
    ---------------------

    Doubly Occupied:

       1A    -20.627342     2A    -20.557426     3A    -15.549824
       4A    -11.391367     5A    -11.280652     6A    -11.235500
       7A     -1.460977     8A     -1.361871     9A     -1.198713
      10A     -1.022088    11A     -0.909893    12A     -0.783874
      13A     -0.721070    14A     -0.707565    15A     -0.646107
      16A     -0.630595    17A     -0.608007    18A     -0.582589
      19A     -0.576437    20A     -0.543877    21A     -0.519745
      22A     -0.487121    23A     -0.454151    24A     -0.403471

  @DF-RHF Final Energy:  -321.98973961397201

   => Energetics <=

    Nuclear Repulsion Energy =            249.3080871475280844
    One-Electron Energy =                -934.0751296501085790
    Two-Electron Energy =                 362.7773028886084603
    Total Energy =                       -321.9897396139720058
  Basis Set: (AUG-CC-PVTZ AUX)
    Blend: AUG-CC-PVTZ-RI
    Molecular point group: c1

    Geometry (in Angstrom), charge = 0, multiplicity = 1:

       Center              X                  Y                   Z               Mass
    ------------   -----------------  -----------------  -----------------  -----------------
         O            1.571530029923     0.772961059073    -0.524454570282    15.994914619570
         O            1.020610529923    -1.050259040927     0.744002529718    15.994914619570
         N           -1.455819470077    -1.043820040927    -0.471682470282    14.003074004430
         C           -0.706534470077     0.206435959073    -0.403456470282    12.000000000000
         C           -1.246275470077     1.245672959073     0.590892529718    12.000000000000
         C            0.709475529923    -0.135279040927     0.000462529718    12.000000000000
         H           -0.674099470077     0.651616959073    -1.403250470282     1.007825032230
         H           -0.641049470077     2.157012959073     0.584160529718     1.007825032230
         H           -2.273415470077     1.512912959073     0.324697529718     1.007825032230
         H           -1.246598470077     0.827769959073     1.602400529718     1.007825032230
         H           -2.452900470077    -0.841388040927    -0.526548470282     1.007825032230
         H           -1.295911470077    -1.563108040927     0.390949529718     1.007825032230
         H            2.476658529923     0.480036959073    -0.140349470282     1.007825032230

  Basis Set: AUG-CC-PVTZ
    Blend: AUG-CC-PVTZ
  Basis Set: (AUG-CC-PVTZ AUX)
    Blend: AUG-CC-PVTZ-JKFIT
	 Reference Energy          =    -321.9897396139720058 [Eh]
	 Singles Energy            =      -0.0000000000000000 [Eh]
	 Same-Spin Energy          =      -0.3178723005885296 [Eh]
	 Opposite-Spin Energy      =      -1.0019950806120945 [Eh]
	 Correlation Energy        =      -1.3198673812006241 [Eh]
	 Total Energy              =    -323.3096069951726577 [Eh]

	 ================> DF-SCS-MP2 Energies <==================
	-----------------------------------------------------------
	 SCS Same-Spin Scale       =       0.3333333333333333 [-]
	 SCS Opposite-Spin Scale   =       1.2000000000000000 [-]
	 SCS Same-Spin Energy      =      -0.1059574335295098 [Eh]
	 SCS Opposite-Spin Energy  =      -1.2023940967345135 [Eh]
	 SCS Correlation Energy    =      -1.3083515302640234 [Eh]
	 SCS Total Energy          =    -323.2980911442360252 [Eh]
	-----------------------------------------------------------

  Dipole Moment: [D]
     X:    -0.6643      Y:     2.0240      Z:     0.3002     Total:     2.1513

*** Psi4 exiting successfully. Buy a developer a beer!
