                               Psi4 1.3.2 release

  ==> Input File <==

--------------------------------------------------------------------------
#psi4
#
memory 32 gb

molecule  {
0 1
  O        1.6642950     0.7201020    -0.5160700
  O        1.1184094    -1.0686274     0.7273029
  N       -1.3988490    -1.0732660    -0.4837110
  C       -0.6495640     0.1769900    -0.4154850
  C       -1.1893050     1.2162270     0.5788640
  C        0.7664460    -0.1647250    -0.0115660
  H       -0.6171290     0.6221710    -1.4152790
  H       -0.5840790     2.1275670     0.5721320
  H       -2.2164450     1.4834670     0.3126690
  H       -1.1896280     0.7983240     1.5903720
  H       -2.3959300    -0.8708340    -0.5385770
  H       -1.2389410    -1.5925540     0.3789210
  H        2.5336290     0.4505910    -0.1523780
units angstrom
no_reorient  #important for SAPT in psi4, default
symmetry c1  #important for SAPT in psi4, default
}

set PROPERTIES_ORIGIN ["COM"]
properties('MP2/aug-cc-pvtz', properties = ['dipole'])
--------------------------------------------------------------------------

    Molecular point group: c1
  Charge       = 0
  Multiplicity = 1
  Basis Set: AUG-CC-PVTZ
    Blend: AUG-CC-PVTZ
  Basis Set: (AUG-CC-PVTZ AUX)
    Blend: AUG-CC-PVTZ-JKFIT

    Orbital Energies [Eh]
    ---------------------

    Doubly Occupied:

       1A    -20.617915     2A    -20.554484     3A    -15.552617
       4A    -11.390930     5A    -11.285113     6A    -11.237505
       7A     -1.464733     8A     -1.358461     9A     -1.201886
      10A     -1.025103    11A     -0.914103    12A     -0.792145
      13A     -0.724521    14A     -0.705699    15A     -0.645571
      16A     -0.628675    17A     -0.611486    18A     -0.584782
      19A     -0.578592    20A     -0.544527    21A     -0.522055
      22A     -0.483717    23A     -0.454837    24A     -0.406128

  @DF-RHF Final Energy:  -321.99567245544415

   => Energetics <=

    Nuclear Repulsion Energy =            249.1508950679010468
    One-Electron Energy =                -933.7219645389188827
    Two-Electron Energy =                 362.5753970155736852
    Total Energy =                       -321.9956724554441507
  Basis Set: (AUG-CC-PVTZ AUX)
    Blend: AUG-CC-PVTZ-RI
    Molecular point group: c1

    Geometry (in Angstrom), charge = 0, multiplicity = 1:

       Center              X                  Y                   Z               Mass
    ------------   -----------------  -----------------  -----------------  -----------------
         O            1.593561377818     0.751763685217    -0.506869078484    15.994914619570
         O            1.047675777818    -1.036965714783     0.736503821516    15.994914619570
         N           -1.469582622182    -1.041604314783    -0.474510078484    14.003074004430
         C           -0.720297622182     0.208651685217    -0.406284078484    12.000000000000
         C           -1.260038622182     1.247888685217     0.588064921516    12.000000000000
         C            0.695712377818    -0.133063314783    -0.002365078484    12.000000000000
         H           -0.687862622182     0.653832685217    -1.406078078484     1.007825032230
         H           -0.654812622182     2.159228685217     0.581332921516     1.007825032230
         H           -2.287178622182     1.515128685217     0.321869921516     1.007825032230
         H           -1.260361622182     0.829985685217     1.599572921516     1.007825032230
         H           -2.466663622182    -0.839172314783    -0.529376078484     1.007825032230
         H           -1.309674622182    -1.560892314783     0.388121921516     1.007825032230
         H            2.462895377818     0.482252685217    -0.143177078484     1.007825032230

  Basis Set: AUG-CC-PVTZ
    Blend: AUG-CC-PVTZ
  Basis Set: (AUG-CC-PVTZ AUX)
    Blend: AUG-CC-PVTZ-JKFIT
	 Reference Energy          =    -321.9956724554441507 [Eh]
	 Singles Energy            =      -0.0000000000000000 [Eh]
	 Same-Spin Energy          =      -0.3168106221671184 [Eh]
	 Opposite-Spin Energy      =      -0.9997144949619697 [Eh]
	 Correlation Energy        =      -1.3165251171290882 [Eh]
	 Total Energy              =    -323.3121975725732113 [Eh]

	 ================> DF-SCS-MP2 Energies <==================
	-----------------------------------------------------------
	 SCS Same-Spin Scale       =       0.3333333333333333 [-]
	 SCS Opposite-Spin Scale   =       1.2000000000000000 [-]
	 SCS Same-Spin Energy      =      -0.1056035407223728 [Eh]
	 SCS Opposite-Spin Energy  =      -1.1996573939543635 [Eh]
	 SCS Correlation Energy    =      -1.3052609346767363 [Eh]
	 SCS Total Energy          =    -323.3009333901208606 [Eh]
	-----------------------------------------------------------

  Dipole Moment: [D]
     X:    -0.8930      Y:     2.0263      Z:     0.2867     Total:     2.2329

*** Psi4 exiting successfully. Buy a developer a beer!
