                               Psi4 1.3.2 release

  ==> Input File <==

--------------------------------------------------------------------------
#psi4
#
memory 32 gb

molecule  {
0 1
  O        1.6642950     0.7201020    -0.5160700
  O        0.9948371    -1.0985037     0.7385939
  N       -1.3988490    -1.0732660    -0.4837110
  C       -0.6495640     0.1769900    -0.4154850
  C       -1.1893050     1.2162270     0.5788640
  C        0.7664460    -0.1647250    -0.0115660
  H       -0.6171290     0.6221710    -1.4152790
  H       -0.5840790     2.1275670     0.5721320
  H       -2.2164450     1.4834670     0.3126690
  H       -1.1896280     0.7983240     1.5903720
  H       -2.3959300    -0.8708340    -0.5385770
  H       -1.2389410    -1.5925540     0.3789210
  H        2.5336290     0.4505910    -0.1523780
units angstrom
no_reorient  #important for SAPT in psi4, default
symmetry c1  #important for SAPT in psi4, default
}

set PROPERTIES_ORIGIN ["COM"]
properties('MP2/aug-cc-pvtz', properties = ['dipole'])
--------------------------------------------------------------------------

    Molecular point group: c1
  Charge       = 0
  Multiplicity = 1
  Basis Set: AUG-CC-PVTZ
    Blend: AUG-CC-PVTZ
  Basis Set: (AUG-CC-PVTZ AUX)
    Blend: AUG-CC-PVTZ-JKFIT

    Orbital Energies [Eh]
    ---------------------

    Doubly Occupied:

       1A    -20.628232     2A    -20.556516     3A    -15.547589
       4A    -11.392017     5A    -11.278567     6A    -11.234389
       7A     -1.465681     8A     -1.368353     9A     -1.196013
      10A     -1.021283    11A     -0.912176    12A     -0.793780
      13A     -0.723377    14A     -0.709958    15A     -0.647225
      16A     -0.630164    17A     -0.608609    18A     -0.583270
      19A     -0.574879    20A     -0.543890    21A     -0.518519
      22A     -0.488152    23A     -0.452793    24A     -0.401595

  @DF-RHF Final Energy:  -321.99347074673278

   => Energetics <=

    Nuclear Repulsion Energy =            249.7289878196756092
    One-Electron Energy =                -934.8908681579280255
    Two-Electron Energy =                 363.1684095915196622
    Total Energy =                       -321.9934707467327826
  Basis Set: (AUG-CC-PVTZ AUX)
    Blend: AUG-CC-PVTZ-RI
    Molecular point group: c1

    Geometry (in Angstrom), charge = 0, multiplicity = 1:

       Center              X                  Y                   Z               Mass
    ------------   -----------------  -----------------  -----------------  -----------------
         O            1.615757671105     0.757130123465    -0.508897189537    15.994914619570
         O            0.946299771105    -1.061475576535     0.745766710463    15.994914619570
         N           -1.447386328895    -1.036237876535    -0.476538189537    14.003074004430
         C           -0.698101328895     0.214018123465    -0.408312189537    12.000000000000
         C           -1.237842328895     1.253255123465     0.586036810463    12.000000000000
         C            0.717908671105    -0.127696876535    -0.004393189537    12.000000000000
         H           -0.665666328895     0.659199123465    -1.408106189537     1.007825032230
         H           -0.632616328895     2.164595123465     0.579304810463     1.007825032230
         H           -2.264982328895     1.520495123465     0.319841810463     1.007825032230
         H           -1.238165328895     0.835352123465     1.597544810463     1.007825032230
         H           -2.444467328895    -0.833805876535    -0.531404189537     1.007825032230
         H           -1.287478328895    -1.555525876535     0.386093810463     1.007825032230
         H            2.485091671105     0.487619123465    -0.145205189537     1.007825032230

  Basis Set: AUG-CC-PVTZ
    Blend: AUG-CC-PVTZ
  Basis Set: (AUG-CC-PVTZ AUX)
    Blend: AUG-CC-PVTZ-JKFIT
	 Reference Energy          =    -321.9934707467327826 [Eh]
	 Singles Energy            =      -0.0000000000000000 [Eh]
	 Same-Spin Energy          =      -0.3172750543240082 [Eh]
	 Opposite-Spin Energy      =      -1.0005565585849983 [Eh]
	 Correlation Energy        =      -1.3178316129090064 [Eh]
	 Total Energy              =    -323.3113023596417861 [Eh]

	 ================> DF-SCS-MP2 Energies <==================
	-----------------------------------------------------------
	 SCS Same-Spin Scale       =       0.3333333333333333 [-]
	 SCS Opposite-Spin Scale   =       1.2000000000000000 [-]
	 SCS Same-Spin Energy      =      -0.1057583514413361 [Eh]
	 SCS Opposite-Spin Energy  =      -1.2006678703019980 [Eh]
	 SCS Correlation Energy    =      -1.3064262217433340 [Eh]
	 SCS Total Energy          =    -323.2998969684761050 [Eh]
	-----------------------------------------------------------

  Dipole Moment: [D]
     X:    -0.4825      Y:     2.0661      Z:     0.2882     Total:     2.1412

*** Psi4 exiting successfully. Buy a developer a beer!
