                               Psi4 1.3.2 release

  ==> Input File <==

--------------------------------------------------------------------------
#psi4
#
memory 32 gb

molecule  {
0 1
  O        1.6642950     0.7201020    -0.5160700
  O        1.0775810    -1.0797050     0.7319740
  N       -1.3988490    -1.0732660    -0.4837110
  C       -0.6300186     0.1940249    -0.4223180
  C       -1.1893050     1.2162270     0.5788640
  C        0.7664460    -0.1647250    -0.0115660
  H       -0.6171290     0.6221710    -1.4152790
  H       -0.5840790     2.1275670     0.5721320
  H       -2.2164450     1.4834670     0.3126690
  H       -1.1896280     0.7983240     1.5903720
  H       -2.3959300    -0.8708340    -0.5385770
  H       -1.2389410    -1.5925540     0.3789210
  H        2.5336290     0.4505910    -0.1523780
units angstrom
no_reorient  #important for SAPT in psi4, default
symmetry c1  #important for SAPT in psi4, default
}

set PROPERTIES_ORIGIN ["COM"]
properties('MP2/aug-cc-pvtz', properties = ['dipole'])
--------------------------------------------------------------------------

    Molecular point group: c1
  Charge       = 0
  Multiplicity = 1
  Basis Set: AUG-CC-PVTZ
    Blend: AUG-CC-PVTZ
  Basis Set: (AUG-CC-PVTZ AUX)
    Blend: AUG-CC-PVTZ-JKFIT

    Orbital Energies [Eh]
    ---------------------

    Doubly Occupied:

       1A    -20.621349     2A    -20.556086     3A    -15.550153
       4A    -11.391803     5A    -11.282417     6A    -11.237317
       7A     -1.465612     8A     -1.362370     9A     -1.193153
      10A     -1.025387    11A     -0.916351    12A     -0.792975
      13A     -0.724902    14A     -0.707317    15A     -0.646594
      16A     -0.627863    17A     -0.608672    18A     -0.584032
      19A     -0.573697    20A     -0.545975    21A     -0.522187
      22A     -0.485668    23A     -0.457071    24A     -0.403655

  @DF-RHF Final Energy:  -321.99477584513397

   => Energetics <=

    Nuclear Repulsion Energy =            249.2920313529292002
    One-Electron Energy =                -934.0084018848120877
    Two-Electron Energy =                 362.7215946867488583
    Total Energy =                       -321.9947758451339723
  Basis Set: (AUG-CC-PVTZ AUX)
    Blend: AUG-CC-PVTZ-RI
    Molecular point group: c1

    Geometry (in Angstrom), charge = 0, multiplicity = 1:

       Center              X                  Y                   Z               Mass
    ------------   -----------------  -----------------  -----------------  -----------------
         O            1.598261129448     0.751457854293    -0.506787300335    15.994914619570
         O            1.011547129448    -1.048349145707     0.741256699665    15.994914619570
         N           -1.464882870552    -1.041910145707    -0.474428300335    14.003074004430
         C           -0.696052470552     0.225380754293    -0.413035300335    12.000000000000
         C           -1.255338870552     1.247582854293     0.588146699665    12.000000000000
         C            0.700412129448    -0.133369145707    -0.002283300335    12.000000000000
         H           -0.683162870552     0.653526854293    -1.405996300335     1.007825032230
         H           -0.650112870552     2.158922854293     0.581414699665     1.007825032230
         H           -2.282478870552     1.514822854293     0.321951699665     1.007825032230
         H           -1.255661870552     0.829679854293     1.599654699665     1.007825032230
         H           -2.461963870552    -0.839478145707    -0.529294300335     1.007825032230
         H           -1.304974870552    -1.561198145707     0.388203699665     1.007825032230
         H            2.467595129448     0.481946854293    -0.143095300335     1.007825032230

  Basis Set: AUG-CC-PVTZ
    Blend: AUG-CC-PVTZ
  Basis Set: (AUG-CC-PVTZ AUX)
    Blend: AUG-CC-PVTZ-JKFIT
	 Reference Energy          =    -321.9947758451339723 [Eh]
	 Singles Energy            =      -0.0000000000000000 [Eh]
	 Same-Spin Energy          =      -0.3169303990161949 [Eh]
	 Opposite-Spin Energy      =      -1.0001551676264708 [Eh]
	 Correlation Energy        =      -1.3170855666426657 [Eh]
	 Total Energy              =    -323.3118614117766469 [Eh]

	 ================> DF-SCS-MP2 Energies <==================
	-----------------------------------------------------------
	 SCS Same-Spin Scale       =       0.3333333333333333 [-]
	 SCS Opposite-Spin Scale   =       1.2000000000000000 [-]
	 SCS Same-Spin Energy      =      -0.1056434663387316 [Eh]
	 SCS Opposite-Spin Energy  =      -1.2001862011517650 [Eh]
	 SCS Correlation Energy    =      -1.3058296674904966 [Eh]
	 SCS Total Energy          =    -323.3006055126244860 [Eh]
	-----------------------------------------------------------

  Dipole Moment: [D]
     X:    -0.7308      Y:     2.0945      Z:     0.2904     Total:     2.2373

*** Psi4 exiting successfully. Buy a developer a beer!
