                               Psi4 1.3.2 release

  ==> Input File <==

--------------------------------------------------------------------------
#psi4
#
memory 32 gb

molecule  {
0 1
  O        1.6642950     0.7201020    -0.5160700
  O        1.0775810    -1.0797050     0.7319740
  N       -1.3988490    -1.0732660    -0.4837110
  C       -0.6692738     0.1602717    -0.4083491
  C       -1.1893050     1.2162270     0.5788640
  C        0.7664460    -0.1647250    -0.0115660
  H       -0.6171290     0.6221710    -1.4152790
  H       -0.5840790     2.1275670     0.5721320
  H       -2.2164450     1.4834670     0.3126690
  H       -1.1896280     0.7983240     1.5903720
  H       -2.3959300    -0.8708340    -0.5385770
  H       -1.2389410    -1.5925540     0.3789210
  H        2.5336290     0.4505910    -0.1523780
units angstrom
no_reorient  #important for SAPT in psi4, default
symmetry c1  #important for SAPT in psi4, default
}

set PROPERTIES_ORIGIN ["COM"]
properties('MP2/aug-cc-pvtz', properties = ['dipole'])
--------------------------------------------------------------------------

    Molecular point group: c1
  Charge       = 0
  Multiplicity = 1
  Basis Set: AUG-CC-PVTZ
    Blend: AUG-CC-PVTZ
  Basis Set: (AUG-CC-PVTZ AUX)
    Blend: AUG-CC-PVTZ-JKFIT

    Orbital Energies [Eh]
    ---------------------

    Doubly Occupied:

       1A    -20.621511     2A    -20.554387     3A    -15.551815
       4A    -11.390723     5A    -11.283686     6A    -11.235729
       7A     -1.464242     8A     -1.361394     9A     -1.207319
      10A     -1.022334    11A     -0.910487    12A     -0.792547
      13A     -0.723738    14A     -0.707002    15A     -0.645714
      16A     -0.630409    17A     -0.612409    18A     -0.586479
      19A     -0.579379    20A     -0.542750    21A     -0.519297
      22A     -0.484949    23A     -0.451566    24A     -0.405302

  @DF-RHF Final Energy:  -321.99496070163212

   => Energetics <=

    Nuclear Repulsion Energy =            249.3495848966566371
    One-Electron Energy =                -934.1187608314886575
    Two-Electron Energy =                 362.7742152331998682
    Total Energy =                       -321.9949607016321238
  Basis Set: (AUG-CC-PVTZ AUX)
    Blend: AUG-CC-PVTZ-RI
    Molecular point group: c1

    Geometry (in Angstrom), charge = 0, multiplicity = 1:

       Center              X                  Y                   Z               Mass
    ------------   -----------------  -----------------  -----------------  -----------------
         O            1.603551131480     0.756006410830    -0.508669739078    15.994914619570
         O            1.016837131480    -1.043800589170     0.739374260922    15.994914619570
         N           -1.459592868520    -1.037361589170    -0.476310739078    14.003074004430
         C           -0.730017668520     0.196176110830    -0.400948839078    12.000000000000
         C           -1.250048868520     1.252131410830     0.586264260922    12.000000000000
         C            0.705702131480    -0.128820589170    -0.004165739078    12.000000000000
         H           -0.677872868520     0.658075410830    -1.407878739078     1.007825032230
         H           -0.644822868520     2.163471410830     0.579532260922     1.007825032230
         H           -2.277188868520     1.519371410830     0.320069260922     1.007825032230
         H           -1.250371868520     0.834228410830     1.597772260922     1.007825032230
         H           -2.456673868520    -0.834929589170    -0.531176739078     1.007825032230
         H           -1.299684868520    -1.556649589170     0.386321260922     1.007825032230
         H            2.472885131480     0.486495410830    -0.144977739078     1.007825032230

  Basis Set: AUG-CC-PVTZ
    Blend: AUG-CC-PVTZ
  Basis Set: (AUG-CC-PVTZ AUX)
    Blend: AUG-CC-PVTZ-JKFIT
	 Reference Energy          =    -321.9949607016321238 [Eh]
	 Singles Energy            =      -0.0000000000000000 [Eh]
	 Same-Spin Energy          =      -0.3170009939485251 [Eh]
	 Opposite-Spin Energy      =      -0.9998444920301959 [Eh]
	 Correlation Energy        =      -1.3168454859787211 [Eh]
	 Total Energy              =    -323.3118061876108413 [Eh]

	 ================> DF-SCS-MP2 Energies <==================
	-----------------------------------------------------------
	 SCS Same-Spin Scale       =       0.3333333333333333 [-]
	 SCS Opposite-Spin Scale   =       1.2000000000000000 [-]
	 SCS Same-Spin Energy      =      -0.1056669979828417 [Eh]
	 SCS Opposite-Spin Energy  =      -1.1998133904362349 [Eh]
	 SCS Correlation Energy    =      -1.3054803884190767 [Eh]
	 SCS Total Energy          =    -323.3004410900512084 [Eh]
	-----------------------------------------------------------

  Dipole Moment: [D]
     X:    -0.7844      Y:     1.9886      Z:     0.2804     Total:     2.1560

*** Psi4 exiting successfully. Buy a developer a beer!
