                               Psi4 1.3.2 release

  ==> Input File <==

--------------------------------------------------------------------------
#psi4
#
memory 32 gb

molecule  {
0 1
  O        1.6642950     0.7201020    -0.5160700
  O        1.0775810    -1.0797050     0.7319740
  N       -1.3988490    -1.0732660    -0.4837110
  C       -0.5126870     0.1798177    -0.3311402
  C       -1.1893050     1.2162270     0.5788640
  C        0.7664460    -0.1647250    -0.0115660
  H       -0.6171290     0.6221710    -1.4152790
  H       -0.5840790     2.1275670     0.5721320
  H       -2.2164450     1.4834670     0.3126690
  H       -1.1896280     0.7983240     1.5903720
  H       -2.3959300    -0.8708340    -0.5385770
  H       -1.2389410    -1.5925540     0.3789210
  H        2.5336290     0.4505910    -0.1523780
units angstrom
no_reorient  #important for SAPT in psi4, default
symmetry c1  #important for SAPT in psi4, default
}

set PROPERTIES_ORIGIN ["COM"]
properties('MP2/aug-cc-pvtz', properties = ['dipole'])
--------------------------------------------------------------------------

    Molecular point group: c1
  Charge       = 0
  Multiplicity = 1
  Basis Set: AUG-CC-PVTZ
    Blend: AUG-CC-PVTZ
  Basis Set: (AUG-CC-PVTZ AUX)
    Blend: AUG-CC-PVTZ-JKFIT

    Orbital Energies [Eh]
    ---------------------

    Doubly Occupied:

       1A    -20.621989     2A    -20.557000     3A    -15.551244
       4A    -11.388269     5A    -11.283378     6A    -11.243540
       7A     -1.470661     8A     -1.365544     9A     -1.183951
      10A     -1.040627    11A     -0.940884    12A     -0.786494
      13A     -0.726151    14A     -0.705935    15A     -0.657531
      16A     -0.628713    17A     -0.601607    18A     -0.592454
      19A     -0.570563    20A     -0.552313    21A     -0.494405
      22A     -0.484978    23A     -0.465827    24A     -0.400933

  @DF-RHF Final Energy:  -321.96297635387009

   => Energetics <=

    Nuclear Repulsion Energy =            250.8480080359907163
    One-Electron Energy =                -936.9919874382981106
    Two-Electron Energy =                 364.1810030484373328
    Total Energy =                       -321.9629763538700900
  Basis Set: (AUG-CC-PVTZ AUX)
    Blend: AUG-CC-PVTZ-RI
    Molecular point group: c1

    Geometry (in Angstrom), charge = 0, multiplicity = 1:

       Center              X                  Y                   Z               Mass
    ------------   -----------------  -----------------  -----------------  -----------------
         O            1.582449608876     0.753372406170    -0.519074353954    15.994914619570
         O            0.995735608876    -1.046434593830     0.728969646046    15.994914619570
         N           -1.480694391124    -1.039995593830    -0.486715353954    14.003074004430
         C           -0.594532391124     0.213088106170    -0.334144553954    12.000000000000
         C           -1.271150391124     1.249497406170     0.575859646046    12.000000000000
         C            0.684600608876    -0.131454593830    -0.014570353954    12.000000000000
         H           -0.698974391124     0.655441406170    -1.418283353954     1.007825032230
         H           -0.665924391124     2.160837406170     0.569127646046     1.007825032230
         H           -2.298290391124     1.516737406170     0.309664646046     1.007825032230
         H           -1.271473391124     0.831594406170     1.587367646046     1.007825032230
         H           -2.477775391124    -0.837563593830    -0.541581353954     1.007825032230
         H           -1.320786391124    -1.559283593830     0.375916646046     1.007825032230
         H            2.451783608876     0.483861406170    -0.155382353954     1.007825032230

  Basis Set: AUG-CC-PVTZ
    Blend: AUG-CC-PVTZ
  Basis Set: (AUG-CC-PVTZ AUX)
    Blend: AUG-CC-PVTZ-JKFIT
	 Reference Energy          =    -321.9629763538700900 [Eh]
	 Singles Energy            =      -0.0000000000000000 [Eh]
	 Same-Spin Energy          =      -0.3186394977218991 [Eh]
	 Opposite-Spin Energy      =      -1.0037417962707109 [Eh]
	 Correlation Energy        =      -1.3223812939926101 [Eh]
	 Total Energy              =    -323.2853576478627247 [Eh]

	 ================> DF-SCS-MP2 Energies <==================
	-----------------------------------------------------------
	 SCS Same-Spin Scale       =       0.3333333333333333 [-]
	 SCS Opposite-Spin Scale   =       1.2000000000000000 [-]
	 SCS Same-Spin Energy      =      -0.1062131659072997 [Eh]
	 SCS Opposite-Spin Energy  =      -1.2044901555248531 [Eh]
	 SCS Correlation Energy    =      -1.3107033214321528 [Eh]
	 SCS Total Energy          =    -323.2736796753022190 [Eh]
	-----------------------------------------------------------

  Dipole Moment: [D]
     X:    -0.7872      Y:     2.2079      Z:     0.3637     Total:     2.3721

*** Psi4 exiting successfully. Buy a developer a beer!
