                               Psi4 1.3.2 release

  ==> Input File <==

--------------------------------------------------------------------------
#psi4
#
memory 32 gb

molecule  {
0 1
  O        1.6642950     0.7201020    -0.5160700
  O        1.0775810    -1.0797050     0.7319740
  N       -1.5198985    -0.9892024    -0.5238177
  C       -0.6495640     0.1769900    -0.4154850
  C       -1.1893050     1.2162270     0.5788640
  C        0.7664460    -0.1647250    -0.0115660
  H       -0.6171290     0.6221710    -1.4152790
  H       -0.5840790     2.1275670     0.5721320
  H       -2.2164450     1.4834670     0.3126690
  H       -1.1896280     0.7983240     1.5903720
  H       -2.3959300    -0.8708340    -0.5385770
  H       -1.2389410    -1.5925540     0.3789210
  H        2.5336290     0.4505910    -0.1523780
units angstrom
no_reorient  #important for SAPT in psi4, default
symmetry c1  #important for SAPT in psi4, default
}

set PROPERTIES_ORIGIN ["COM"]
properties('MP2/aug-cc-pvtz', properties = ['dipole'])
--------------------------------------------------------------------------

    Molecular point group: c1
  Charge       = 0
  Multiplicity = 1
  Basis Set: AUG-CC-PVTZ
    Blend: AUG-CC-PVTZ
  Basis Set: (AUG-CC-PVTZ AUX)
    Blend: AUG-CC-PVTZ-JKFIT

    Orbital Energies [Eh]
    ---------------------

    Doubly Occupied:

       1A    -20.624893     2A    -20.558885     3A    -15.543164
       4A    -11.396465     5A    -11.284649     6A    -11.234832
       7A     -1.468070     8A     -1.364918     9A     -1.205586
      10A     -1.029841    11A     -0.915961    12A     -0.801333
      13A     -0.723657    14A     -0.706333    15A     -0.662824
      16A     -0.642149    17A     -0.605157    18A     -0.595675
      19A     -0.561432    20A     -0.548259    21A     -0.511028
      22A     -0.488741    23A     -0.457478    24A     -0.398097

  @DF-RHF Final Energy:  -321.96617314154537

   => Energetics <=

    Nuclear Repulsion Energy =            248.8241927222249785
    One-Electron Energy =                -932.9218766251545958
    Two-Electron Energy =                 362.1315107613842201
    Total Energy =                       -321.9661731415453687
  Basis Set: (AUG-CC-PVTZ AUX)
    Blend: AUG-CC-PVTZ-RI
    Molecular point group: c1

    Geometry (in Angstrom), charge = 0, multiplicity = 1:

       Center              X                  Y                   Z               Mass
    ------------   -----------------  -----------------  -----------------  -----------------
         O            1.619930531053     0.740534155566    -0.501401184757    15.994914619570
         O            1.033216531053    -1.059272844434     0.746642815243    15.994914619570
         N           -1.564262968947    -0.968770244434    -0.509148884757    14.003074004430
         C           -0.693928468947     0.197422155566    -0.400816184757    12.000000000000
         C           -1.233669468947     1.236659155566     0.593532815243    12.000000000000
         C            0.722081531053    -0.144292844434     0.003102815243    12.000000000000
         H           -0.661493468947     0.642603155566    -1.400610184757     1.007825032230
         H           -0.628443468947     2.147999155566     0.586800815243     1.007825032230
         H           -2.260809468947     1.503899155566     0.327337815243     1.007825032230
         H           -1.233992468947     0.818756155566     1.605040815243     1.007825032230
         H           -2.440294468947    -0.850401844434    -0.523908184757     1.007825032230
         H           -1.283305468947    -1.572121844434     0.393589815243     1.007825032230
         H            2.489264531053     0.471023155566    -0.137709184757     1.007825032230

  Basis Set: AUG-CC-PVTZ
    Blend: AUG-CC-PVTZ
  Basis Set: (AUG-CC-PVTZ AUX)
    Blend: AUG-CC-PVTZ-JKFIT
	 Reference Energy          =    -321.9661731415453687 [Eh]
	 Singles Energy            =      -0.0000000000000000 [Eh]
	 Same-Spin Energy          =      -0.3168773725257098 [Eh]
	 Opposite-Spin Energy      =      -1.0000402150218151 [Eh]
	 Correlation Energy        =      -1.3169175875475250 [Eh]
	 Total Energy              =    -323.2830907290929190 [Eh]

	 ================> DF-SCS-MP2 Energies <==================
	-----------------------------------------------------------
	 SCS Same-Spin Scale       =       0.3333333333333333 [-]
	 SCS Opposite-Spin Scale   =       1.2000000000000000 [-]
	 SCS Same-Spin Energy      =      -0.1056257908419033 [Eh]
	 SCS Opposite-Spin Energy  =      -1.2000482580261780 [Eh]
	 SCS Correlation Energy    =      -1.3056740488680814 [Eh]
	 SCS Total Energy          =    -323.2718471904134390 [Eh]
	-----------------------------------------------------------

  Dipole Moment: [D]
     X:    -0.5146      Y:     1.9365      Z:     0.3127     Total:     2.0279

*** Psi4 exiting successfully. Buy a developer a beer!
