                               Psi4 1.3.2 release

  ==> Input File <==

--------------------------------------------------------------------------
#psi4
#
memory 32 gb

molecule  {
0 1
  O        1.6642950     0.7201020    -0.5160700
  O        1.0775810    -1.0797050     0.7319740
  N       -1.3988490    -1.0732660    -0.4837110
  C       -0.7700772     0.0816034    -0.3682058
  C       -1.1893050     1.2162270     0.5788640
  C        0.7664460    -0.1647250    -0.0115660
  H       -0.6171290     0.6221710    -1.4152790
  H       -0.5840790     2.1275670     0.5721320
  H       -2.2164450     1.4834670     0.3126690
  H       -1.1896280     0.7983240     1.5903720
  H       -2.3959300    -0.8708340    -0.5385770
  H       -1.2389410    -1.5925540     0.3789210
  H        2.5336290     0.4505910    -0.1523780
units angstrom
no_reorient  #important for SAPT in psi4, default
symmetry c1  #important for SAPT in psi4, default
}

set PROPERTIES_ORIGIN ["COM"]
properties('MP2/aug-cc-pvtz', properties = ['dipole'])
--------------------------------------------------------------------------

    Molecular point group: c1
  Charge       = 0
  Multiplicity = 1
  Basis Set: AUG-CC-PVTZ
    Blend: AUG-CC-PVTZ
  Basis Set: (AUG-CC-PVTZ AUX)
    Blend: AUG-CC-PVTZ-JKFIT

    Orbital Energies [Eh]
    ---------------------

    Doubly Occupied:

       1A    -20.621199     2A    -20.550115     3A    -15.556483
       4A    -11.387311     5A    -11.290454     6A    -11.233469
       7A     -1.460696     8A     -1.358778     9A     -1.251881
      10A     -1.015910    11A     -0.895196    12A     -0.793293
      13A     -0.728267    14A     -0.705584    15A     -0.651100
      16A     -0.636904    17A     -0.618691    18A     -0.606774
      19A     -0.577405    20A     -0.535810    21A     -0.512194
      22A     -0.482776    23A     -0.431258    24A     -0.402224

  @DF-RHF Final Energy:  -321.96524029199725

   => Energetics <=

    Nuclear Repulsion Energy =            249.5486440225708691
    One-Electron Energy =                -934.4202246152419775
    Two-Electron Energy =                 362.9063403006738326
    Total Energy =                       -321.9652402919972474
  Basis Set: (AUG-CC-PVTZ AUX)
    Blend: AUG-CC-PVTZ-RI
    Molecular point group: c1

    Geometry (in Angstrom), charge = 0, multiplicity = 1:

       Center              X                  Y                   Z               Mass
    ------------   -----------------  -----------------  -----------------  -----------------
         O            1.617135323912     0.766607693381    -0.514079420816    15.994914619570
         O            1.030421323912    -1.033199306619     0.733964579184    15.994914619570
         N           -1.446008676088    -1.026760306619    -0.481720420816    14.003074004430
         C           -0.817236876088     0.128109093381    -0.366215220816    12.000000000000
         C           -1.236464676088     1.262732693381     0.580854579184    12.000000000000
         C            0.719286323912    -0.118219306619    -0.009575420816    12.000000000000
         H           -0.664288676088     0.668676693381    -1.413288420816     1.007825032230
         H           -0.631238676088     2.174072693381     0.574122579184     1.007825032230
         H           -2.263604676088     1.529972693381     0.314659579184     1.007825032230
         H           -1.236787676088     0.844829693381     1.592362579184     1.007825032230
         H           -2.443089676088    -0.824328306619    -0.536586420816     1.007825032230
         H           -1.286100676088    -1.546048306619     0.380911579184     1.007825032230
         H            2.486469323912     0.497096693381    -0.150387420816     1.007825032230

  Basis Set: AUG-CC-PVTZ
    Blend: AUG-CC-PVTZ
  Basis Set: (AUG-CC-PVTZ AUX)
    Blend: AUG-CC-PVTZ-JKFIT
	 Reference Energy          =    -321.9652402919972474 [Eh]
	 Singles Energy            =      -0.0000000000000000 [Eh]
	 Same-Spin Energy          =      -0.3181930487588970 [Eh]
	 Opposite-Spin Energy      =      -1.0010390586666156 [Eh]
	 Correlation Energy        =      -1.3192321074255124 [Eh]
	 Total Energy              =    -323.2844723994227820 [Eh]

	 ================> DF-SCS-MP2 Energies <==================
	-----------------------------------------------------------
	 SCS Same-Spin Scale       =       0.3333333333333333 [-]
	 SCS Opposite-Spin Scale   =       1.2000000000000000 [-]
	 SCS Same-Spin Energy      =      -0.1060643495862990 [Eh]
	 SCS Opposite-Spin Energy  =      -1.2012468703999386 [Eh]
	 SCS Correlation Energy    =      -1.3073112199862376 [Eh]
	 SCS Total Energy          =    -323.2725515119834654 [Eh]
	-----------------------------------------------------------

  Dipole Moment: [D]
     X:    -0.9561      Y:     1.6846      Z:     0.2894     Total:     1.9586

*** Psi4 exiting successfully. Buy a developer a beer!
