                               Psi4 1.3.2 release

  ==> Input File <==

--------------------------------------------------------------------------
#psi4
#
memory 32 gb

molecule  {
0 1
  O        1.6642950     0.7201020    -0.5160700
  O        1.0775810    -1.0797050     0.7319740
  N       -1.3988490    -1.0732660    -0.4837110
  C       -0.6064250     0.1499888    -0.4134624
  C       -1.1893050     1.2162270     0.5788640
  C        0.7664460    -0.1647250    -0.0115660
  H       -0.6171290     0.6221710    -1.4152790
  H       -0.5840790     2.1275670     0.5721320
  H       -2.2164450     1.4834670     0.3126690
  H       -1.1896280     0.7983240     1.5903720
  H       -2.3959300    -0.8708340    -0.5385770
  H       -1.2389410    -1.5925540     0.3789210
  H        2.5336290     0.4505910    -0.1523780
units angstrom
no_reorient  #important for SAPT in psi4, default
symmetry c1  #important for SAPT in psi4, default
}

set PROPERTIES_ORIGIN ["COM"]
properties('MP2/aug-cc-pvtz', properties = ['dipole'])
--------------------------------------------------------------------------

    Molecular point group: c1
  Charge       = 0
  Multiplicity = 1
  Basis Set: AUG-CC-PVTZ
    Blend: AUG-CC-PVTZ
  Basis Set: (AUG-CC-PVTZ AUX)
    Blend: AUG-CC-PVTZ-JKFIT

    Orbital Energies [Eh]
    ---------------------

    Doubly Occupied:

       1A    -20.621764     2A    -20.555278     3A    -15.550784
       4A    -11.390797     5A    -11.282513     6A    -11.238684
       7A     -1.466436     8A     -1.362895     9A     -1.199552
      10A     -1.023334    11A     -0.920305    12A     -0.791879
      13A     -0.727102    14A     -0.707435    15A     -0.648449
      16A     -0.629833    17A     -0.606549    18A     -0.586996
      19A     -0.570755    20A     -0.549837    21A     -0.517999
      22A     -0.485185    23A     -0.459751    24A     -0.399962

  @DF-RHF Final Energy:  -321.99311730320187

   => Energetics <=

    Nuclear Repulsion Energy =            249.7408023369881391
    One-Electron Energy =                -934.8796930936838407
    Two-Electron Energy =                 363.1457734534938027
    Total Energy =                       -321.9931173032018705
  Basis Set: (AUG-CC-PVTZ AUX)
    Blend: AUG-CC-PVTZ-RI
    Molecular point group: c1

    Geometry (in Angstrom), charge = 0, multiplicity = 1:

       Center              X                  Y                   Z               Mass
    ------------   -----------------  -----------------  -----------------  -----------------
         O            1.595081673174     0.757392126910    -0.507980674512    15.994914619570
         O            1.008367673174    -1.042414873090     0.740063325488    15.994914619570
         N           -1.468062326826    -1.035975873090    -0.475621674512    14.003074004430
         C           -0.675638326826     0.187278926910    -0.405373074512    12.000000000000
         C           -1.258518326826     1.253517126910     0.586953325488    12.000000000000
         C            0.697232673174    -0.127434873090    -0.003476674512    12.000000000000
         H           -0.686342326826     0.659461126910    -1.407189674512     1.007825032230
         H           -0.653292326826     2.164857126910     0.580221325488     1.007825032230
         H           -2.285658326826     1.520757126910     0.320758325488     1.007825032230
         H           -1.258841326826     0.835614126910     1.598461325488     1.007825032230
         H           -2.465143326826    -0.833543873090    -0.530487674512     1.007825032230
         H           -1.308154326826    -1.555263873090     0.387010325488     1.007825032230
         H            2.464415673174     0.487881126910    -0.144288674512     1.007825032230

  Basis Set: AUG-CC-PVTZ
    Blend: AUG-CC-PVTZ
  Basis Set: (AUG-CC-PVTZ AUX)
    Blend: AUG-CC-PVTZ-JKFIT
	 Reference Energy          =    -321.9931173032018705 [Eh]
	 Singles Energy            =      -0.0000000000000000 [Eh]
	 Same-Spin Energy          =      -0.3171072690008374 [Eh]
	 Opposite-Spin Energy      =      -1.0002132810433757 [Eh]
	 Correlation Energy        =      -1.3173205500442131 [Eh]
	 Total Energy              =    -323.3104378532460714 [Eh]

	 ================> DF-SCS-MP2 Energies <==================
	-----------------------------------------------------------
	 SCS Same-Spin Scale       =       0.3333333333333333 [-]
	 SCS Opposite-Spin Scale   =       1.2000000000000000 [-]
	 SCS Same-Spin Energy      =      -0.1057024230002791 [Eh]
	 SCS Opposite-Spin Energy  =      -1.2002559372520507 [Eh]
	 SCS Correlation Energy    =      -1.3059583602523299 [Eh]
	 SCS Total Energy          =    -323.2990756634541754 [Eh]
	-----------------------------------------------------------

  Dipole Moment: [D]
     X:    -0.7814      Y:     2.0408      Z:     0.2638     Total:     2.2012

*** Psi4 exiting successfully. Buy a developer a beer!
