                               Psi4 1.3.2 release

  ==> Input File <==

--------------------------------------------------------------------------
#psi4
#
memory 32 gb

molecule  {
0 1
  O        1.5538055     0.7869945    -0.5753665
  O        1.0775810    -1.0797050     0.7319740
  N       -1.3988490    -1.0732660    -0.4837110
  C       -0.6495640     0.1769900    -0.4154850
  C       -1.1893050     1.2162270     0.5788640
  C        0.7664460    -0.1647250    -0.0115660
  H       -0.6171290     0.6221710    -1.4152790
  H       -0.5840790     2.1275670     0.5721320
  H       -2.2164450     1.4834670     0.3126690
  H       -1.1896280     0.7983240     1.5903720
  H       -2.3959300    -0.8708340    -0.5385770
  H       -1.2389410    -1.5925540     0.3789210
  H        2.5336290     0.4505910    -0.1523780
units angstrom
no_reorient  #important for SAPT in psi4, default
symmetry c1  #important for SAPT in psi4, default
}

set PROPERTIES_ORIGIN ["COM"]
properties('MP2/aug-cc-pvtz', properties = ['dipole'])
--------------------------------------------------------------------------

    Molecular point group: c1
  Charge       = 0
  Multiplicity = 1
  Basis Set: AUG-CC-PVTZ
    Blend: AUG-CC-PVTZ
  Basis Set: (AUG-CC-PVTZ AUX)
    Blend: AUG-CC-PVTZ-JKFIT

    Orbital Energies [Eh]
    ---------------------

    Doubly Occupied:

       1A    -20.637445     2A    -20.561965     3A    -15.547553
       4A    -11.392213     5A    -11.276279     6A    -11.233607
       7A     -1.455107     8A     -1.362825     9A     -1.196207
      10A     -1.018798    11A     -0.904161    12A     -0.772115
      13A     -0.715674    14A     -0.704696    15A     -0.646485
      16A     -0.633382    17A     -0.603041    18A     -0.577784
      19A     -0.574418    20A     -0.542485    21A     -0.517065
      22A     -0.490730    23A     -0.452768    24A     -0.401135

  @DF-RHF Final Energy:  -321.96758177826410

   => Energetics <=

    Nuclear Repulsion Energy =            249.3950194343173905
    One-Electron Energy =                -934.2893318569647363
    Two-Electron Energy =                 362.9267306443832126
    Total Energy =                       -321.9675817782641047
  Basis Set: (AUG-CC-PVTZ AUX)
    Blend: AUG-CC-PVTZ-RI
    Molecular point group: c1

    Geometry (in Angstrom), charge = 0, multiplicity = 1:

       Center              X                  Y                   Z               Mass
    ------------   -----------------  -----------------  -----------------  -----------------
         O            1.510251888937     0.808630605939    -0.556353659475    15.994914619570
         O            1.034027388937    -1.058068894061     0.750986840525    15.994914619570
         N           -1.442402611063    -1.051629894061    -0.464698159475    14.003074004430
         C           -0.693117611063     0.198626105939    -0.396472159475    12.000000000000
         C           -1.232858611063     1.237863105939     0.597876840525    12.000000000000
         C            0.722892388937    -0.143088894061     0.007446840525    12.000000000000
         H           -0.660682611063     0.643807105939    -1.396266159475     1.007825032230
         H           -0.627632611063     2.149203105939     0.591144840525     1.007825032230
         H           -2.259998611063     1.505103105939     0.331681840525     1.007825032230
         H           -1.233181611063     0.819960105939     1.609384840525     1.007825032230
         H           -2.439483611063    -0.849197894061    -0.519564159475     1.007825032230
         H           -1.282494611063    -1.570917894061     0.397933840525     1.007825032230
         H            2.490075388937     0.472227105939    -0.133365159475     1.007825032230

  Basis Set: AUG-CC-PVTZ
    Blend: AUG-CC-PVTZ
  Basis Set: (AUG-CC-PVTZ AUX)
    Blend: AUG-CC-PVTZ-JKFIT
	 Reference Energy          =    -321.9675817782641047 [Eh]
	 Singles Energy            =      -0.0000000000000000 [Eh]
	 Same-Spin Energy          =      -0.3199426714100551 [Eh]
	 Opposite-Spin Energy      =      -1.0066898498030974 [Eh]
	 Correlation Energy        =      -1.3266325212131524 [Eh]
	 Total Energy              =    -323.2942142994772325 [Eh]

	 ================> DF-SCS-MP2 Energies <==================
	-----------------------------------------------------------
	 SCS Same-Spin Scale       =       0.3333333333333333 [-]
	 SCS Opposite-Spin Scale   =       1.2000000000000000 [-]
	 SCS Same-Spin Energy      =      -0.1066475571366850 [Eh]
	 SCS Opposite-Spin Energy  =      -1.2080278197637169 [Eh]
	 SCS Correlation Energy    =      -1.3146753769004018 [Eh]
	 SCS Total Energy          =    -323.2822571551645296 [Eh]
	-----------------------------------------------------------

  Dipole Moment: [D]
     X:    -0.5010      Y:     1.9857      Z:     0.3296     Total:     2.0743

*** Psi4 exiting successfully. Buy a developer a beer!
