                               Psi4 1.3.2 release

  ==> Input File <==

--------------------------------------------------------------------------
#psi4
#
memory 32 gb

molecule  {
0 1
  O        1.6642950     0.7201020    -0.5160700
  O        1.0775810    -1.0797050     0.7319740
  N       -1.3988490    -1.0732660    -0.4837110
  C       -0.6495640     0.1769900    -0.4154850
  C       -1.1893050     1.2162270     0.5788640
  C        0.8601208    -0.1873308     0.0151549
  H       -0.6171290     0.6221710    -1.4152790
  H       -0.5840790     2.1275670     0.5721320
  H       -2.2164450     1.4834670     0.3126690
  H       -1.1896280     0.7983240     1.5903720
  H       -2.3959300    -0.8708340    -0.5385770
  H       -1.2389410    -1.5925540     0.3789210
  H        2.5336290     0.4505910    -0.1523780
units angstrom
no_reorient  #important for SAPT in psi4, default
symmetry c1  #important for SAPT in psi4, default
}

set PROPERTIES_ORIGIN ["COM"]
properties('MP2/aug-cc-pvtz', properties = ['dipole'])
--------------------------------------------------------------------------

    Molecular point group: c1
  Charge       = 0
  Multiplicity = 1
  Basis Set: AUG-CC-PVTZ
    Blend: AUG-CC-PVTZ
  Basis Set: (AUG-CC-PVTZ AUX)
    Blend: AUG-CC-PVTZ-JKFIT

    Orbital Energies [Eh]
    ---------------------

    Doubly Occupied:

       1A    -20.630849     2A    -20.560693     3A    -15.544764
       4A    -11.384943     5A    -11.276135     6A    -11.228913
       7A     -1.491750     8A     -1.399636     9A     -1.188786
      10A     -1.008151    11A     -0.896145    12A     -0.794255
      13A     -0.724908    14A     -0.716808    15A     -0.658034
      16A     -0.646297    17A     -0.603155    18A     -0.581646
      19A     -0.571157    20A     -0.549090    21A     -0.514386
      22A     -0.505423    23A     -0.437057    24A     -0.396585

  @DF-RHF Final Energy:  -321.98855936562080

   => Energetics <=

    Nuclear Repulsion Energy =            249.3178976779943241
    One-Electron Energy =                -933.9937770018706260
    Two-Electron Energy =                 362.6873199582555003
    Total Energy =                       -321.9885593656208016
  Basis Set: (AUG-CC-PVTZ AUX)
    Blend: AUG-CC-PVTZ-RI
    Molecular point group: c1

    Geometry (in Angstrom), charge = 0, multiplicity = 1:

       Center              X                  Y                   Z               Mass
    ------------   -----------------  -----------------  -----------------  -----------------
         O            1.588271505740     0.756799806022    -0.511308999349    15.994914619570
         O            1.001557505740    -1.043007193978     0.736735000651    15.994914619570
         N           -1.474872494260    -1.036568193978    -0.478949999349    14.003074004430
         C           -0.725587494260     0.213687806022    -0.410723999349    12.000000000000
         C           -1.265328494260     1.252924806022     0.583625000651    12.000000000000
         C            0.784097305740    -0.150632993978     0.019915900651    12.000000000000
         H           -0.693152494260     0.658868806022    -1.410517999349     1.007825032230
         H           -0.660102494260     2.164264806022     0.576893000651     1.007825032230
         H           -2.292468494260     1.520164806022     0.317430000651     1.007825032230
         H           -1.265651494260     0.835021806022     1.595133000651     1.007825032230
         H           -2.471953494260    -0.834136193978    -0.533815999349     1.007825032230
         H           -1.314964494260    -1.555856193978     0.383682000651     1.007825032230
         H            2.457605505740     0.487288806022    -0.147616999349     1.007825032230

  Basis Set: AUG-CC-PVTZ
    Blend: AUG-CC-PVTZ
  Basis Set: (AUG-CC-PVTZ AUX)
    Blend: AUG-CC-PVTZ-JKFIT
	 Reference Energy          =    -321.9885593656208016 [Eh]
	 Singles Energy            =      -0.0000000000000000 [Eh]
	 Same-Spin Energy          =      -0.3156693160218150 [Eh]
	 Opposite-Spin Energy      =      -0.9973653035609241 [Eh]
	 Correlation Energy        =      -1.3130346195827391 [Eh]
	 Total Energy              =    -323.3015939852035672 [Eh]

	 ================> DF-SCS-MP2 Energies <==================
	-----------------------------------------------------------
	 SCS Same-Spin Scale       =       0.3333333333333333 [-]
	 SCS Opposite-Spin Scale   =       1.2000000000000000 [-]
	 SCS Same-Spin Energy      =      -0.1052231053406050 [Eh]
	 SCS Opposite-Spin Energy  =      -1.1968383642731089 [Eh]
	 SCS Correlation Energy    =      -1.3020614696137138 [Eh]
	 SCS Total Energy          =    -323.2906208352345061 [Eh]
	-----------------------------------------------------------

  Dipole Moment: [D]
     X:    -0.1756      Y:     1.9163      Z:     0.3789     Total:     1.9613

*** Psi4 exiting successfully. Buy a developer a beer!
