                               Psi4 1.3.2 release

  ==> Input File <==

--------------------------------------------------------------------------
#psi4
#
memory 32 gb

molecule  {
0 1
  O        1.6642950     0.7201020    -0.5160700
  O        1.0775810    -1.0797050     0.7319740
  N       -1.3988490    -1.0732660    -0.4837110
  C       -0.6495640     0.1769900    -0.4154850
  C       -1.1893050     1.2162270     0.5788640
  C        0.6727712    -0.1421192    -0.0382869
  H       -0.6171290     0.6221710    -1.4152790
  H       -0.5840790     2.1275670     0.5721320
  H       -2.2164450     1.4834670     0.3126690
  H       -1.1896280     0.7983240     1.5903720
  H       -2.3959300    -0.8708340    -0.5385770
  H       -1.2389410    -1.5925540     0.3789210
  H        2.5336290     0.4505910    -0.1523780
units angstrom
no_reorient  #important for SAPT in psi4, default
symmetry c1  #important for SAPT in psi4, default
}

set PROPERTIES_ORIGIN ["COM"]
properties('MP2/aug-cc-pvtz', properties = ['dipole'])
--------------------------------------------------------------------------

    Molecular point group: c1
  Charge       = 0
  Multiplicity = 1
  Basis Set: AUG-CC-PVTZ
    Blend: AUG-CC-PVTZ
  Basis Set: (AUG-CC-PVTZ AUX)
    Blend: AUG-CC-PVTZ-JKFIT

    Orbital Energies [Eh]
    ---------------------

    Doubly Occupied:

       1A    -20.612466     2A    -20.550794     3A    -15.557548
       4A    -11.400240     5A    -11.286079     6A    -11.245010
       7A     -1.438076     8A     -1.325898     9A     -1.212752
      10A     -1.043634    11A     -0.933308    12A     -0.788534
      13A     -0.735039    14A     -0.689818    15A     -0.643861
      16A     -0.618053    17A     -0.611592    18A     -0.584591
      19A     -0.578572    20A     -0.547558    21A     -0.526013
      22A     -0.465444    23A     -0.455729    24A     -0.412326

  @DF-RHF Final Energy:  -321.97307593525392

   => Energetics <=

    Nuclear Repulsion Energy =            249.4082684060879842
    One-Electron Energy =                -934.2368217247291113
    Two-Electron Energy =                 362.8554773833871536
    Total Energy =                       -321.9730759352539167
  Basis Set: (AUG-CC-PVTZ AUX)
    Blend: AUG-CC-PVTZ-RI
    Molecular point group: c1

    Geometry (in Angstrom), charge = 0, multiplicity = 1:

       Center              X                  Y                   Z               Mass
    ------------   -----------------  -----------------  -----------------  -----------------
         O            1.613518600764     0.750707123885    -0.504107221481    15.994914619570
         O            1.026804600764    -1.049099876115     0.743936778519    15.994914619570
         N           -1.449625399236    -1.042660876115    -0.471748221481    14.003074004430
         C           -0.700340399236     0.207595123885    -0.403522221481    12.000000000000
         C           -1.240081399236     1.246832123885     0.590826778519    12.000000000000
         C            0.621994800764    -0.111514076115    -0.026324121481    12.000000000000
         H           -0.667905399236     0.652776123885    -1.403316221481     1.007825032230
         H           -0.634855399236     2.158172123885     0.584094778519     1.007825032230
         H           -2.267221399236     1.514072123885     0.324631778519     1.007825032230
         H           -1.240404399236     0.828929123885     1.602334778519     1.007825032230
         H           -2.446706399236    -0.840228876115    -0.526614221481     1.007825032230
         H           -1.289717399236    -1.561948876115     0.390883778519     1.007825032230
         H            2.482852600764     0.481196123885    -0.140415221481     1.007825032230

  Basis Set: AUG-CC-PVTZ
    Blend: AUG-CC-PVTZ
  Basis Set: (AUG-CC-PVTZ AUX)
    Blend: AUG-CC-PVTZ-JKFIT
	 Reference Energy          =    -321.9730759352539167 [Eh]
	 Singles Energy            =      -0.0000000000000000 [Eh]
	 Same-Spin Energy          =      -0.3194550392151512 [Eh]
	 Opposite-Spin Energy      =      -1.0048841597410290 [Eh]
	 Correlation Energy        =      -1.3243391989561801 [Eh]
	 Total Energy              =    -323.2974151342100981 [Eh]

	 ================> DF-SCS-MP2 Energies <==================
	-----------------------------------------------------------
	 SCS Same-Spin Scale       =       0.3333333333333333 [-]
	 SCS Opposite-Spin Scale   =       1.2000000000000000 [-]
	 SCS Same-Spin Energy      =      -0.1064850130717171 [Eh]
	 SCS Opposite-Spin Energy  =      -1.2058609916892347 [Eh]
	 SCS Correlation Energy    =      -1.3123460047609516 [Eh]
	 SCS Total Energy          =    -323.2854219400148850 [Eh]
	-----------------------------------------------------------

  Dipole Moment: [D]
     X:    -1.3247      Y:     2.1415      Z:     0.2212     Total:     2.5278

*** Psi4 exiting successfully. Buy a developer a beer!
