                               Psi4 1.3.2 release

  ==> Input File <==

--------------------------------------------------------------------------
#psi4
#
memory 32 gb

molecule  {
0 1
  O        1.6642950     0.7201020    -0.5160700
  O        1.0775810    -1.0797050     0.7319740
  N       -1.3988490    -1.0732660    -0.4837110
  C       -0.6262991     0.1766699    -0.4021605
  C       -1.1893050     1.2162270     0.5788640
  C        0.7664460    -0.1647250    -0.0115660
  H       -0.6171290     0.6221710    -1.4152790
  H       -0.5840790     2.1275670     0.5721320
  H       -2.2164450     1.4834670     0.3126690
  H       -1.1896280     0.7983240     1.5903720
  H       -2.3959300    -0.8708340    -0.5385770
  H       -1.2389410    -1.5925540     0.3789210
  H        2.5336290     0.4505910    -0.1523780
units angstrom
no_reorient  #important for SAPT in psi4, default
symmetry c1  #important for SAPT in psi4, default
}

set PROPERTIES_ORIGIN ["COM"]
properties('MP2/aug-cc-pvtz', properties = ['dipole'])
--------------------------------------------------------------------------

    Molecular point group: c1
  Charge       = 0
  Multiplicity = 1
  Basis Set: AUG-CC-PVTZ
    Blend: AUG-CC-PVTZ
  Basis Set: (AUG-CC-PVTZ AUX)
    Blend: AUG-CC-PVTZ-JKFIT

    Orbital Energies [Eh]
    ---------------------

    Doubly Occupied:

       1A    -20.621737     2A    -20.555662     3A    -15.550847
       4A    -11.391314     5A    -11.282697     6A    -11.237322
       7A     -1.465941     8A     -1.362621     9A     -1.196924
      10A     -1.025974    11A     -0.917795    12A     -0.791414
      13A     -0.724845    14A     -0.707260    15A     -0.647885
      16A     -0.629099    17A     -0.608080    18A     -0.585575
      19A     -0.574305    20A     -0.547966    21A     -0.516959
      22A     -0.485558    23A     -0.457456    24A     -0.404109

  @DF-RHF Final Energy:  -321.99462529392241

   => Energetics <=

    Nuclear Repulsion Energy =            249.5650768554351089
    One-Electron Energy =                -934.5407151578721141
    Two-Electron Energy =                 362.9810130085145943
    Total Energy =                       -321.9946252939224109
  Basis Set: (AUG-CC-PVTZ AUX)
    Blend: AUG-CC-PVTZ-RI
    Molecular point group: c1

    Geometry (in Angstrom), charge = 0, multiplicity = 1:

       Center              X                  Y                   Z               Mass
    ------------   -----------------  -----------------  -----------------  -----------------
         O            1.597759892350     0.753796601395    -0.509503710287    15.994914619570
         O            1.011045892350    -1.046010398605     0.738540289713    15.994914619570
         N           -1.465384107650    -1.039571398605    -0.477144710287    14.003074004430
         C           -0.692834207650     0.210364501395    -0.395594210287    12.000000000000
         C           -1.255840107650     1.249921601395     0.585430289713    12.000000000000
         C            0.699910892350    -0.131030398605    -0.004999710287    12.000000000000
         H           -0.683664107650     0.655865601395    -1.408712710287     1.007825032230
         H           -0.650614107650     2.161261601395     0.578698289713     1.007825032230
         H           -2.282980107650     1.517161601395     0.319235289713     1.007825032230
         H           -1.256163107650     0.832018601395     1.596938289713     1.007825032230
         H           -2.462465107650    -0.837139398605    -0.532010710287     1.007825032230
         H           -1.305476107650    -1.558859398605     0.385487289713     1.007825032230
         H            2.467093892350     0.484285601395    -0.145811710287     1.007825032230

  Basis Set: AUG-CC-PVTZ
    Blend: AUG-CC-PVTZ
  Basis Set: (AUG-CC-PVTZ AUX)
    Blend: AUG-CC-PVTZ-JKFIT
	 Reference Energy          =    -321.9946252939224109 [Eh]
	 Singles Energy            =      -0.0000000000000000 [Eh]
	 Same-Spin Energy          =      -0.3170439442222646 [Eh]
	 Opposite-Spin Energy      =      -1.0002354224291246 [Eh]
	 Correlation Energy        =      -1.3172793666513891 [Eh]
	 Total Energy              =    -323.3119046605738163 [Eh]

	 ================> DF-SCS-MP2 Energies <==================
	-----------------------------------------------------------
	 SCS Same-Spin Scale       =       0.3333333333333333 [-]
	 SCS Opposite-Spin Scale   =       1.2000000000000000 [-]
	 SCS Same-Spin Energy      =      -0.1056813147407548 [Eh]
	 SCS Opposite-Spin Energy  =      -1.2002825069149494 [Eh]
	 SCS Correlation Energy    =      -1.3059638216557043 [Eh]
	 SCS Total Energy          =    -323.3005891155781342 [Eh]
	-----------------------------------------------------------

  Dipole Moment: [D]
     X:    -0.7542      Y:     2.0696      Z:     0.2966     Total:     2.2226

*** Psi4 exiting successfully. Buy a developer a beer!
