                               Psi4 1.3.2 release

  ==> Input File <==

--------------------------------------------------------------------------
#psi4
#
memory 32 gb

molecule  {
0 1
  O        1.6642950     0.7201020    -0.5160700
  O        1.1588090    -1.0564486     0.7217316
  N       -1.3988490    -1.0732660    -0.4837110
  C       -0.6495640     0.1769900    -0.4154850
  C       -1.1893050     1.2162270     0.5788640
  C        0.7664460    -0.1647250    -0.0115660
  H       -0.6171290     0.6221710    -1.4152790
  H       -0.5840790     2.1275670     0.5721320
  H       -2.2164450     1.4834670     0.3126690
  H       -1.1896280     0.7983240     1.5903720
  H       -2.3959300    -0.8708340    -0.5385770
  H       -1.2389410    -1.5925540     0.3789210
  H        2.5336290     0.4505910    -0.1523780
units angstrom
no_reorient  #important for SAPT in psi4, default
symmetry c1  #important for SAPT in psi4, default
}

set PROPERTIES_ORIGIN ["COM"]
properties('MP2/aug-cc-pvtz', properties = ['dipole'])
--------------------------------------------------------------------------

    Molecular point group: c1
  Charge       = 0
  Multiplicity = 1
  Basis Set: AUG-CC-PVTZ
    Blend: AUG-CC-PVTZ
  Basis Set: (AUG-CC-PVTZ AUX)
    Blend: AUG-CC-PVTZ-JKFIT

    Orbital Energies [Eh]
    ---------------------

    Doubly Occupied:

       1A    -20.614296     2A    -20.553657     3A    -15.554199
       4A    -11.390615     5A    -11.287264     6A    -11.238511
       7A     -1.464684     8A     -1.354894     9A     -1.203745
      10A     -1.026345    11A     -0.914773    12A     -0.791585
      13A     -0.724839    14A     -0.704228    15A     -0.645153
      16A     -0.628384    17A     -0.612416    18A     -0.585226
      19A     -0.579698    20A     -0.544629    21A     -0.523197
      22A     -0.481981    23A     -0.454854    24A     -0.407572

  @DF-RHF Final Energy:  -321.99496004604708

   => Energetics <=

    Nuclear Repulsion Energy =            249.0061239598163638
    One-Electron Energy =                -933.4286793578872903
    Two-Electron Energy =                 362.4275953520238431
    Total Energy =                       -321.9949600460470833
  Basis Set: (AUG-CC-PVTZ AUX)
    Blend: AUG-CC-PVTZ-RI
    Molecular point group: c1

    Geometry (in Angstrom), charge = 0, multiplicity = 1:

       Center              X                  Y                   Z               Mass
    ------------   -----------------  -----------------  -----------------  -----------------
         O            1.586304724262     0.749576105827    -0.505868350903    15.994914619570
         O            1.080818724262    -1.026974494173     0.731933249097    15.994914619570
         N           -1.476839275738    -1.043791894173    -0.473509350903    14.003074004430
         C           -0.727554275738     0.206464105827    -0.405283350903    12.000000000000
         C           -1.267295275738     1.245701105827     0.589065649097    12.000000000000
         C            0.688455724262    -0.135250894173    -0.001364350903    12.000000000000
         H           -0.695119275738     0.651645105827    -1.405077350903     1.007825032230
         H           -0.662069275738     2.157041105827     0.582333649097     1.007825032230
         H           -2.294435275738     1.512941105827     0.322870649097     1.007825032230
         H           -1.267618275738     0.827798105827     1.600573649097     1.007825032230
         H           -2.473920275738    -0.841359894173    -0.528375350903     1.007825032230
         H           -1.316931275738    -1.563079894173     0.389122649097     1.007825032230
         H            2.455638724262     0.480065105827    -0.142176350903     1.007825032230

  Basis Set: AUG-CC-PVTZ
    Blend: AUG-CC-PVTZ
  Basis Set: (AUG-CC-PVTZ AUX)
    Blend: AUG-CC-PVTZ-JKFIT
	 Reference Energy          =    -321.9949600460470833 [Eh]
	 Singles Energy            =      -0.0000000000000000 [Eh]
	 Same-Spin Energy          =      -0.3167126668552708 [Eh]
	 Opposite-Spin Energy      =      -0.9995385655247655 [Eh]
	 Correlation Energy        =      -1.3162512323800364 [Eh]
	 Total Energy              =    -323.3112112784270948 [Eh]

	 ================> DF-SCS-MP2 Energies <==================
	-----------------------------------------------------------
	 SCS Same-Spin Scale       =       0.3333333333333333 [-]
	 SCS Opposite-Spin Scale   =       1.2000000000000000 [-]
	 SCS Same-Spin Energy      =      -0.1055708889517569 [Eh]
	 SCS Opposite-Spin Energy  =      -1.1994462786297186 [Eh]
	 SCS Correlation Energy    =      -1.3050171675814757 [Eh]
	 SCS Total Energy          =    -323.2999772136285515 [Eh]
	-----------------------------------------------------------

  Dipole Moment: [D]
     X:    -1.0282      Y:     2.0072      Z:     0.2912     Total:     2.2740

*** Psi4 exiting successfully. Buy a developer a beer!
