                               Psi4 1.3.2 release

  ==> Input File <==

--------------------------------------------------------------------------
#psi4
#
memory 32 gb

molecule  {
0 1
  O        1.6642950     0.7201020    -0.5160700
  O        1.0775810    -1.0797050     0.7319740
  N       -1.3988490    -1.0732660    -0.4837110
  C       -0.6891420     0.1438751    -0.4009126
  C       -1.1893050     1.2162270     0.5788640
  C        0.7664460    -0.1647250    -0.0115660
  H       -0.6171290     0.6221710    -1.4152790
  H       -0.5840790     2.1275670     0.5721320
  H       -2.2164450     1.4834670     0.3126690
  H       -1.1896280     0.7983240     1.5903720
  H       -2.3959300    -0.8708340    -0.5385770
  H       -1.2389410    -1.5925540     0.3789210
  H        2.5336290     0.4505910    -0.1523780
units angstrom
no_reorient  #important for SAPT in psi4, default
symmetry c1  #important for SAPT in psi4, default
}

set PROPERTIES_ORIGIN ["COM"]
properties('MP2/aug-cc-pvtz', properties = ['dipole'])
--------------------------------------------------------------------------

    Molecular point group: c1
  Charge       = 0
  Multiplicity = 1
  Basis Set: AUG-CC-PVTZ
    Blend: AUG-CC-PVTZ
  Basis Set: (AUG-CC-PVTZ AUX)
    Blend: AUG-CC-PVTZ-JKFIT

    Orbital Energies [Eh]
    ---------------------

    Doubly Occupied:

       1A    -20.621550     2A    -20.553538     3A    -15.552651
       4A    -11.390149     5A    -11.284635     6A    -11.235064
       7A     -1.463562     8A     -1.360897     9A     -1.215183
      10A     -1.020877    11A     -0.907480    12A     -0.792501
      13A     -0.723680    14A     -0.706861    15A     -0.645654
      16A     -0.631895    17A     -0.614160    18A     -0.590415
      19A     -0.579528    20A     -0.541130    21A     -0.517602
      22A     -0.484549    23A     -0.448300    24A     -0.405575

  @DF-RHF Final Energy:  -321.99260164558433

   => Energetics <=

    Nuclear Repulsion Energy =            249.3825447592182911
    One-Electron Energy =                -934.1754201468033898
    Two-Electron Energy =                 362.8002737420007975
    Total Energy =                       -321.9926016455843296
  Basis Set: (AUG-CC-PVTZ AUX)
    Blend: AUG-CC-PVTZ-RI
    Molecular point group: c1

    Geometry (in Angstrom), charge = 0, multiplicity = 1:

       Center              X                  Y                   Z               Mass
    ------------   -----------------  -----------------  -----------------  -----------------
         O            1.606228555575     0.758216004649    -0.509671876378    15.994914619570
         O            1.019514555575    -1.041590995351     0.738372123622    15.994914619570
         N           -1.456915444425    -1.035151995351    -0.477312876378    14.003074004430
         C           -0.747208444425     0.181989104649    -0.394514476378    12.000000000000
         C           -1.247371444425     1.254341004649     0.585262123622    12.000000000000
         C            0.708379555575    -0.126610995351    -0.005167876378    12.000000000000
         H           -0.675195444425     0.660285004649    -1.408880876378     1.007825032230
         H           -0.642145444425     2.165681004649     0.578530123622     1.007825032230
         H           -2.274511444425     1.521581004649     0.319067123622     1.007825032230
         H           -1.247694444425     0.836438004649     1.596770123622     1.007825032230
         H           -2.453996444425    -0.832719995351    -0.532178876378     1.007825032230
         H           -1.297007444425    -1.554439995351     0.385319123622     1.007825032230
         H            2.475562555575     0.488705004649    -0.145979876378     1.007825032230

  Basis Set: AUG-CC-PVTZ
    Blend: AUG-CC-PVTZ
  Basis Set: (AUG-CC-PVTZ AUX)
    Blend: AUG-CC-PVTZ-JKFIT
	 Reference Energy          =    -321.9926016455843296 [Eh]
	 Singles Energy            =      -0.0000000000000000 [Eh]
	 Same-Spin Energy          =      -0.3171234678458164 [Eh]
	 Opposite-Spin Energy      =      -0.9998595281017114 [Eh]
	 Correlation Energy        =      -1.3169829959475279 [Eh]
	 Total Energy              =    -323.3095846415318420 [Eh]

	 ================> DF-SCS-MP2 Energies <==================
	-----------------------------------------------------------
	 SCS Same-Spin Scale       =       0.3333333333333333 [-]
	 SCS Opposite-Spin Scale   =       1.2000000000000000 [-]
	 SCS Same-Spin Energy      =      -0.1057078226152721 [Eh]
	 SCS Opposite-Spin Energy  =      -1.1998314337220537 [Eh]
	 SCS Correlation Energy    =      -1.3055392563373258 [Eh]
	 SCS Total Energy          =    -323.2981409019216699 [Eh]
	-----------------------------------------------------------

  Dipole Moment: [D]
     X:    -0.8137      Y:     1.9325      Z:     0.2779     Total:     2.1151

*** Psi4 exiting successfully. Buy a developer a beer!
