                               Psi4 1.3.2 release

  ==> Input File <==

--------------------------------------------------------------------------
#psi4
#
memory 32 gb

molecule  {
0 1
  O        1.6642950     0.7201020    -0.5160700
  O        1.0775810    -1.0797050     0.7319740
  N       -1.3988490    -1.0732660    -0.4837110
  C       -0.6495640     0.1769900    -0.4154850
  C       -1.1190377     1.0809317     0.4494125
  C        0.7664460    -0.1647250    -0.0115660
  H       -0.6171290     0.6221710    -1.4152790
  H       -0.5840790     2.1275670     0.5721320
  H       -2.2164450     1.4834670     0.3126690
  H       -1.1896280     0.7983240     1.5903720
  H       -2.3959300    -0.8708340    -0.5385770
  H       -1.2389410    -1.5925540     0.3789210
  H        2.5336290     0.4505910    -0.1523780
units angstrom
no_reorient  #important for SAPT in psi4, default
symmetry c1  #important for SAPT in psi4, default
}

set PROPERTIES_ORIGIN ["COM"]
properties('MP2/aug-cc-pvtz', properties = ['dipole'])
--------------------------------------------------------------------------

    Molecular point group: c1
  Charge       = 0
  Multiplicity = 1
  Basis Set: AUG-CC-PVTZ
    Blend: AUG-CC-PVTZ
  Basis Set: (AUG-CC-PVTZ AUX)
    Blend: AUG-CC-PVTZ-JKFIT

    Orbital Energies [Eh]
    ---------------------

    Doubly Occupied:

       1A    -20.622839     2A    -20.557445     3A    -15.550402
       4A    -11.393795     5A    -11.273922     6A    -11.248654
       7A     -1.466979     8A     -1.363774     9A     -1.216485
      10A     -1.053334    11A     -0.903086    12A     -0.793587
      13A     -0.732712    14A     -0.709815    15A     -0.663082
      16A     -0.632856    17A     -0.615332    18A     -0.607096
      19A     -0.581126    20A     -0.518689    21A     -0.491683
      22A     -0.480108    23A     -0.446446    24A     -0.412243

  @DF-RHF Final Energy:  -321.94733304772114

   => Energetics <=

    Nuclear Repulsion Energy =            252.6826286804352151
    One-Electron Energy =                -940.5889454661179343
    Two-Electron Energy =                 365.9589837379616029
    Total Energy =                       -321.9473330477211448
  Basis Set: (AUG-CC-PVTZ AUX)
    Blend: AUG-CC-PVTZ-RI
    Molecular point group: c1

    Geometry (in Angstrom), charge = 0, multiplicity = 1:

       Center              X                  Y                   Z               Mass
    ------------   -----------------  -----------------  -----------------  -----------------
         O            1.591425883314     0.771985760594    -0.490263320987    15.994914619570
         O            1.004711883314    -1.027821239406     0.757780679013    15.994914619570
         N           -1.471718116686    -1.021382239406    -0.457904320987    14.003074004430
         C           -0.722433116686     0.228873760594    -0.389678320987    12.000000000000
         C           -1.191906816686     1.132815460594     0.475219179013    12.000000000000
         C            0.693576883314    -0.112841239406     0.014240679013    12.000000000000
         H           -0.689998116686     0.674054760594    -1.389472320987     1.007825032230
         H           -0.656948116686     2.179450760594     0.597938679013     1.007825032230
         H           -2.289314116686     1.535350760594     0.338475679013     1.007825032230
         H           -1.262497116686     0.850207760594     1.616178679013     1.007825032230
         H           -2.468799116686    -0.818950239406    -0.512770320987     1.007825032230
         H           -1.311810116686    -1.540670239406     0.404727679013     1.007825032230
         H            2.460759883314     0.502474760594    -0.126571320987     1.007825032230

  Basis Set: AUG-CC-PVTZ
    Blend: AUG-CC-PVTZ
  Basis Set: (AUG-CC-PVTZ AUX)
    Blend: AUG-CC-PVTZ-JKFIT
	 Reference Energy          =    -321.9473330477211448 [Eh]
	 Singles Energy            =      -0.0000000000000000 [Eh]
	 Same-Spin Energy          =      -0.3198258437665475 [Eh]
	 Opposite-Spin Energy      =      -1.0038709610098620 [Eh]
	 Correlation Energy        =      -1.3236968047764095 [Eh]
	 Total Energy              =    -323.2710298524975769 [Eh]

	 ================> DF-SCS-MP2 Energies <==================
	-----------------------------------------------------------
	 SCS Same-Spin Scale       =       0.3333333333333333 [-]
	 SCS Opposite-Spin Scale   =       1.2000000000000000 [-]
	 SCS Same-Spin Energy      =      -0.1066086145888492 [Eh]
	 SCS Opposite-Spin Energy  =      -1.2046451532118343 [Eh]
	 SCS Correlation Energy    =      -1.3112537678006835 [Eh]
	 SCS Total Energy          =    -323.2585868155218236 [Eh]
	-----------------------------------------------------------

  Dipole Moment: [D]
     X:    -0.6677      Y:     2.0775      Z:     0.3114     Total:     2.2043

*** Psi4 exiting successfully. Buy a developer a beer!
