                               Psi4 1.3.2 release

  ==> Input File <==

--------------------------------------------------------------------------
#psi4
#
memory 32 gb

molecule  {
0 1
  O        1.6642950     0.7201020    -0.5160700
  O        1.0775810    -1.0797050     0.7319740
  N       -1.3988490    -1.0732660    -0.4837110
  C       -0.5642515     0.1214972    -0.4115253
  C       -1.1893050     1.2162270     0.5788640
  C        0.7664460    -0.1647250    -0.0115660
  H       -0.6171290     0.6221710    -1.4152790
  H       -0.5840790     2.1275670     0.5721320
  H       -2.2164450     1.4834670     0.3126690
  H       -1.1896280     0.7983240     1.5903720
  H       -2.3959300    -0.8708340    -0.5385770
  H       -1.2389410    -1.5925540     0.3789210
  H        2.5336290     0.4505910    -0.1523780
units angstrom
no_reorient  #important for SAPT in psi4, default
symmetry c1  #important for SAPT in psi4, default
}

set PROPERTIES_ORIGIN ["COM"]
properties('MP2/aug-cc-pvtz', properties = ['dipole'])
--------------------------------------------------------------------------

    Molecular point group: c1
  Charge       = 0
  Multiplicity = 1
  Basis Set: AUG-CC-PVTZ
    Blend: AUG-CC-PVTZ
  Basis Set: (AUG-CC-PVTZ AUX)
    Blend: AUG-CC-PVTZ-JKFIT

    Orbital Energies [Eh]
    ---------------------

    Doubly Occupied:

       1A    -20.621698     2A    -20.554803     3A    -15.550919
       4A    -11.389370     5A    -11.282544     6A    -11.241527
       7A     -1.467665     8A     -1.363564     9A     -1.199480
      10A     -1.024913    11A     -0.926536    12A     -0.791075
      13A     -0.729513    14A     -0.707385    15A     -0.650874
      16A     -0.630765    17A     -0.604096    18A     -0.589576
      19A     -0.565009    20A     -0.554029    21A     -0.514720
      22A     -0.484454    23A     -0.463286    24A     -0.394925

  @DF-RHF Final Energy:  -321.98491765512887

   => Energetics <=

    Nuclear Repulsion Energy =            250.1756038751584015
    One-Electron Energy =                -935.7155940485034762
    Two-Electron Energy =                 363.5550725182162637
    Total Energy =                       -321.9849176551288679
  Basis Set: (AUG-CC-PVTZ AUX)
    Blend: AUG-CC-PVTZ-RI
    Molecular point group: c1

    Geometry (in Angstrom), charge = 0, multiplicity = 1:

       Center              X                  Y                   Z               Mass
    ------------   -----------------  -----------------  -----------------  -----------------
         O            1.589398403170     0.761231634081    -0.508241716690    15.994914619570
         O            1.002684403170    -1.038575365919     0.739802283310    15.994914619570
         N           -1.473745596830    -1.032136365919    -0.475882716690    14.003074004430
         C           -0.639148096830     0.162626834081    -0.403697016690    12.000000000000
         C           -1.264201596830     1.257356634081     0.586692283310    12.000000000000
         C            0.691549403170    -0.123595365919    -0.003737716690    12.000000000000
         H           -0.692025596830     0.663300634081    -1.407450716690     1.007825032230
         H           -0.658975596830     2.168696634081     0.579960283310     1.007825032230
         H           -2.291341596830     1.524596634081     0.320497283310     1.007825032230
         H           -1.264524596830     0.839453634081     1.598200283310     1.007825032230
         H           -2.470826596830    -0.829704365919    -0.530748716690     1.007825032230
         H           -1.313837596830    -1.551424365919     0.386749283310     1.007825032230
         H            2.458732403170     0.491720634081    -0.144549716690     1.007825032230

  Basis Set: AUG-CC-PVTZ
    Blend: AUG-CC-PVTZ
  Basis Set: (AUG-CC-PVTZ AUX)
    Blend: AUG-CC-PVTZ-JKFIT
	 Reference Energy          =    -321.9849176551288679 [Eh]
	 Singles Energy            =      -0.0000000000000000 [Eh]
	 Same-Spin Energy          =      -0.3175299231577665 [Eh]
	 Opposite-Spin Energy      =      -1.0009287742135005 [Eh]
	 Correlation Energy        =      -1.3184586973712671 [Eh]
	 Total Energy              =    -323.3033763525001518 [Eh]

	 ================> DF-SCS-MP2 Energies <==================
	-----------------------------------------------------------
	 SCS Same-Spin Scale       =       0.3333333333333333 [-]
	 SCS Opposite-Spin Scale   =       1.2000000000000000 [-]
	 SCS Same-Spin Energy      =      -0.1058433077192555 [Eh]
	 SCS Opposite-Spin Energy  =      -1.2011145290562004 [Eh]
	 SCS Correlation Energy    =      -1.3069578367754560 [Eh]
	 SCS Total Energy          =    -323.2918754919043067 [Eh]
	-----------------------------------------------------------

  Dipole Moment: [D]
     X:    -0.8269      Y:     2.0449      Z:     0.2446     Total:     2.2193

*** Psi4 exiting successfully. Buy a developer a beer!
