                               Psi4 1.4a3.dev225

  ==> Input File <==

--------------------------------------------------------------------------
#psi4
#
memory 32 gb

molecule  {
0 1
  O        1.6642820     0.7200090    -0.5161230
  O        1.0775160    -1.0797240     0.7320070
  N       -1.3989360    -1.0731900    -0.4836900
  C       -0.6495540     0.1769830    -0.4155270
  C       -1.1891480     1.2162680     0.5789130
  C        0.7196052    -0.1534659    -0.0249375
  H       -0.6171430     0.6221670    -1.4153090
  H       -0.5838330     2.1275540     0.5722180
  H       -2.2162690     1.4836440     0.3127790
  H       -1.1894240     0.7982770     1.5903820
  H       -2.3959760    -0.8706470    -0.5387880
  H       -1.2392480    -1.5923700     0.3790470
  H        2.5336150     0.4505320    -0.1524310
units angstrom
no_reorient  #important for SAPT in psi4, default
symmetry c1  #important for SAPT in psi4, default
}

set PROPERTIES_ORIGIN ["COM"]
properties('MP2/aug-cc-pvtz', properties = ['dipole'])
--------------------------------------------------------------------------

    Molecular point group: c1
  Charge       = 0
  Multiplicity = 1
  Basis Set: AUG-CC-PVTZ
    Blend: AUG-CC-PVTZ
  Basis Set: (AUG-CC-PVTZ AUX)
    Blend: AUG-CC-PVTZ-JKFIT

    Orbital Energies [Eh]
    ---------------------

    Doubly Occupied:

       1A    -20.616986     2A    -20.553040     3A    -15.554185
       4A    -11.395641     5A    -11.284897     6A    -11.240562
       7A     -1.451534     8A     -1.343614     9A     -1.206134
      10A     -1.033138    11A     -0.923174    12A     -0.790961
      13A     -0.729303    14A     -0.698488    15A     -0.643679
      16A     -0.619950    17A     -0.614111    18A     -0.584445
      19A     -0.579340    20A     -0.545328    21A     -0.523619
      22A     -0.475365    23A     -0.456981    24A     -0.408462

  @DF-RHF Final Energy:  -321.98826325770784

   => Energetics <=

    Nuclear Repulsion Energy =            249.3501610967795727
    One-Electron Energy =                -934.1309738978660562
    Two-Electron Energy =                 362.7925495433786978
    Total Energy =                       -321.9882632577078425
  Basis Set: (AUG-CC-PVTZ AUX)
    Blend: AUG-CC-PVTZ-RI
    Molecular point group: c1

    Geometry (in Angstrom), charge = 0, multiplicity = 1:

       Center              X                  Y                   Z               Mass
    ------------   -----------------  -----------------  -----------------  -----------------
         O            1.607196699106     0.752141971365    -0.505960260139    15.994914619570
         O            1.020430699106    -1.047591028635     0.742169739861    15.994914619570
         N           -1.456021300894    -1.041057028635    -0.473527260139    14.003074004430
         C           -0.706639300894     0.209115971365    -0.405364260139    12.000000000000
         C           -1.246233300894     1.248400971365     0.589075739861    12.000000000000
         C            0.662519899106    -0.121332928635    -0.014774760139    12.000000000000
         H           -0.674228300894     0.654299971365    -1.405146260139     1.007825032230
         H           -0.640918300894     2.159686971365     0.582380739861     1.007825032230
         H           -2.273354300894     1.515776971365     0.322941739861     1.007825032230
         H           -1.246509300894     0.830409971365     1.600544739861     1.007825032230
         H           -2.453061300894    -0.838514028635    -0.528625260139     1.007825032230
         H           -1.296333300894    -1.560237028635     0.389209739861     1.007825032230
         H            2.476529699106     0.482664971365    -0.142268260139     1.007825032230

  Basis Set: AUG-CC-PVTZ
    Blend: AUG-CC-PVTZ
  Basis Set: (AUG-CC-PVTZ AUX)
    Blend: AUG-CC-PVTZ-JKFIT
	 Reference Energy          =    -321.9882632577078425 [Eh]
	 Singles Energy            =      -0.0000000000000000 [Eh]
	 Same-Spin Energy          =      -0.3180431770847241 [Eh]
	 Opposite-Spin Energy      =      -1.0021275568338135 [Eh]
	 Correlation Energy        =      -1.3201707339185376 [Eh]
	 Total Energy              =    -323.3084339916263730 [Eh]

	 ================> DF-SCS-MP2 Energies <==================
	-----------------------------------------------------------
	 SCS Same-Spin Scale       =       0.3333333333333333 [-]
	 SCS Opposite-Spin Scale   =       1.2000000000000000 [-]
	 SCS Same-Spin Energy      =      -0.1060143923615747 [Eh]
	 SCS Opposite-Spin Energy  =      -1.2025530682005761 [Eh]
	 SCS Correlation Energy    =      -1.3085674605621507 [Eh]
	 SCS Total Energy          =    -323.2968307182699732 [Eh]
	-----------------------------------------------------------

  Dipole Moment: [D]
     X:    -1.0392      Y:     2.0947      Z:     0.2494     Total:     2.3516

*** Psi4 exiting successfully. Buy a developer a beer!
