                               Psi4 1.3.2 release

  ==> Input File <==

--------------------------------------------------------------------------
#psi4
#
memory 32 gb

molecule  {
0 1
  O        1.6642950     0.7201020    -0.5160700
  O        1.0775810    -1.0797050     0.7319740
  N       -1.3988490    -1.0732660    -0.4837110
  C       -0.5724282     0.2469764    -0.4409792
  C       -1.1893050     1.2162270     0.5788640
  C        0.7664460    -0.1647250    -0.0115660
  H       -0.6171290     0.6221710    -1.4152790
  H       -0.5840790     2.1275670     0.5721320
  H       -2.2164450     1.4834670     0.3126690
  H       -1.1896280     0.7983240     1.5903720
  H       -2.3959300    -0.8708340    -0.5385770
  H       -1.2389410    -1.5925540     0.3789210
  H        2.5336290     0.4505910    -0.1523780
units angstrom
no_reorient  #important for SAPT in psi4, default
symmetry c1  #important for SAPT in psi4, default
}

set PROPERTIES_ORIGIN ["COM"]
properties('MP2/aug-cc-pvtz', properties = ['dipole'])
--------------------------------------------------------------------------

    Molecular point group: c1
  Charge       = 0
  Multiplicity = 1
  Basis Set: AUG-CC-PVTZ
    Blend: AUG-CC-PVTZ
  Basis Set: (AUG-CC-PVTZ AUX)
    Blend: AUG-CC-PVTZ-JKFIT

    Orbital Energies [Eh]
    ---------------------

    Doubly Occupied:

       1A    -20.621029     2A    -20.558652     3A    -15.547447
       4A    -11.393434     5A    -11.282158     6A    -11.240241
       7A     -1.467799     8A     -1.363850     9A     -1.175621
      10A     -1.030026    11A     -0.924679    12A     -0.794616
      13A     -0.728241    14A     -0.708275    15A     -0.648946
      16A     -0.625049    17A     -0.604081    18A     -0.584883
      19A     -0.563971    20A     -0.550196    21A     -0.521473
      22A     -0.486426    23A     -0.463263    24A     -0.398905

  @DF-RHF Final Energy:  -321.98349452721578

   => Energetics <=

    Nuclear Repulsion Energy =            249.2199371668915546
    One-Electron Energy =                -933.8403433183150355
    Two-Electron Energy =                 362.6369116242076984
    Total Energy =                       -321.9834945272157825
  Basis Set: (AUG-CC-PVTZ AUX)
    Blend: AUG-CC-PVTZ-RI
    Molecular point group: c1

    Geometry (in Angstrom), charge = 0, multiplicity = 1:

       Center              X                  Y                   Z               Mass
    ------------   -----------------  -----------------  -----------------  -----------------
         O            1.590500289280     0.744322148894    -0.504272530676    15.994914619570
         O            1.003786289280    -1.055484851106     0.743771469324    15.994914619570
         N           -1.472643710720    -1.049045851106    -0.471913530676    14.003074004430
         C           -0.646222910720     0.271196548894    -0.429181730676    12.000000000000
         C           -1.263099710720     1.240447148894     0.590661469324    12.000000000000
         C            0.692651289280    -0.140504851106     0.000231469324    12.000000000000
         H           -0.690923710720     0.646391148894    -1.403481530676     1.007825032230
         H           -0.657873710720     2.151787148894     0.583929469324     1.007825032230
         H           -2.290239710720     1.507687148894     0.324466469324     1.007825032230
         H           -1.263422710720     0.822544148894     1.602169469324     1.007825032230
         H           -2.469724710720    -0.846613851106    -0.526779530676     1.007825032230
         H           -1.312735710720    -1.568333851106     0.390718469324     1.007825032230
         H            2.459834289280     0.474811148894    -0.140580530676     1.007825032230

  Basis Set: AUG-CC-PVTZ
    Blend: AUG-CC-PVTZ
  Basis Set: (AUG-CC-PVTZ AUX)
    Blend: AUG-CC-PVTZ-JKFIT
	 Reference Energy          =    -321.9834945272157825 [Eh]
	 Singles Energy            =      -0.0000000000000000 [Eh]
	 Same-Spin Energy          =      -0.3172528262566431 [Eh]
	 Opposite-Spin Energy      =      -1.0014637037033143 [Eh]
	 Correlation Energy        =      -1.3187165299599575 [Eh]
	 Total Energy              =    -323.3022110571757253 [Eh]

	 ================> DF-SCS-MP2 Energies <==================
	-----------------------------------------------------------
	 SCS Same-Spin Scale       =       0.3333333333333333 [-]
	 SCS Opposite-Spin Scale   =       1.2000000000000000 [-]
	 SCS Same-Spin Energy      =      -0.1057509420855477 [Eh]
	 SCS Opposite-Spin Energy  =      -1.2017564444439770 [Eh]
	 SCS Correlation Energy    =      -1.3075073865295246 [Eh]
	 SCS Total Energy          =    -323.2910019137453332 [Eh]
	-----------------------------------------------------------

  Dipole Moment: [D]
     X:    -0.6584      Y:     2.2399      Z:     0.3143     Total:     2.3557

*** Psi4 exiting successfully. Buy a developer a beer!
