                               Psi4 1.3.2 release

  ==> Input File <==

--------------------------------------------------------------------------
#psi4
#
memory 32 gb

molecule  {
0 1
  O        1.6642950     0.7201020    -0.5160700
  O        1.0775810    -1.0797050     0.7319740
  N       -1.3988490    -1.0732660    -0.4837110
  C       -0.6495640     0.1769900    -0.4154850
  C       -1.1783481     1.1425675     0.6560146
  C        0.7664460    -0.1647250    -0.0115660
  H       -0.6171290     0.6221710    -1.4152790
  H       -0.5840790     2.1275670     0.5721320
  H       -2.2164450     1.4834670     0.3126690
  H       -1.1896280     0.7983240     1.5903720
  H       -2.3959300    -0.8708340    -0.5385770
  H       -1.2389410    -1.5925540     0.3789210
  H        2.5336290     0.4505910    -0.1523780
units angstrom
no_reorient  #important for SAPT in psi4, default
symmetry c1  #important for SAPT in psi4, default
}

set PROPERTIES_ORIGIN ["COM"]
properties('MP2/aug-cc-pvtz', properties = ['dipole'])
--------------------------------------------------------------------------

    Molecular point group: c1
  Charge       = 0
  Multiplicity = 1
  Basis Set: AUG-CC-PVTZ
    Blend: AUG-CC-PVTZ
  Basis Set: (AUG-CC-PVTZ AUX)
    Blend: AUG-CC-PVTZ-JKFIT

    Orbital Energies [Eh]
    ---------------------

    Doubly Occupied:

       1A    -20.621229     2A    -20.554723     3A    -15.549582
       4A    -11.390708     5A    -11.284297     6A    -11.238350
       7A     -1.464761     8A     -1.361689     9A     -1.200680
      10A     -1.023812    11A     -0.915040    12A     -0.794155
      13A     -0.726140    14A     -0.706838    15A     -0.646007
      16A     -0.628717    17A     -0.615675    18A     -0.584469
      19A     -0.579028    20A     -0.538995    21A     -0.521590
      22A     -0.484928    23A     -0.452154    24A     -0.402297

  @DF-RHF Final Energy:  -321.98199766158643

   => Energetics <=

    Nuclear Repulsion Energy =            249.6705643875678788
    One-Electron Energy =                -934.7333908073483144
    Two-Electron Energy =                 363.0808287581940021
    Total Energy =                       -321.9819976615864334
  Basis Set: (AUG-CC-PVTZ AUX)
    Blend: AUG-CC-PVTZ-RI
    Molecular point group: c1

    Geometry (in Angstrom), charge = 0, multiplicity = 1:

       Center              X                  Y                   Z               Mass
    ------------   -----------------  -----------------  -----------------  -----------------
         O            1.599418509425     0.763679765281    -0.518104868825    15.994914619570
         O            1.012704509425    -1.036127234719     0.729939131175    15.994914619570
         N           -1.463725490575    -1.029688234719    -0.485745868825    14.003074004430
         C           -0.714440490575     0.220567765281    -0.417519868825    12.000000000000
         C           -1.243224590575     1.186145265281     0.653979731175    12.000000000000
         C            0.701569509425    -0.121147234719    -0.013600868825    12.000000000000
         H           -0.682005490575     0.665748765281    -1.417313868825     1.007825032230
         H           -0.648955490575     2.171144765281     0.570097131175     1.007825032230
         H           -2.281321490575     1.527044765281     0.310634131175     1.007825032230
         H           -1.254504490575     0.841901765281     1.588337131175     1.007825032230
         H           -2.460806490575    -0.827256234719    -0.540611868825     1.007825032230
         H           -1.303817490575    -1.548976234719     0.376886131175     1.007825032230
         H            2.468752509425     0.494168765281    -0.154412868825     1.007825032230

  Basis Set: AUG-CC-PVTZ
    Blend: AUG-CC-PVTZ
  Basis Set: (AUG-CC-PVTZ AUX)
    Blend: AUG-CC-PVTZ-JKFIT
	 Reference Energy          =    -321.9819976615864334 [Eh]
	 Singles Energy            =      -0.0000000000000000 [Eh]
	 Same-Spin Energy          =      -0.3171389004701786 [Eh]
	 Opposite-Spin Energy      =      -1.0005250734252282 [Eh]
	 Correlation Energy        =      -1.3176639738954068 [Eh]
	 Total Energy              =    -323.2996616354818684 [Eh]

	 ================> DF-SCS-MP2 Energies <==================
	-----------------------------------------------------------
	 SCS Same-Spin Scale       =       0.3333333333333333 [-]
	 SCS Opposite-Spin Scale   =       1.2000000000000000 [-]
	 SCS Same-Spin Energy      =      -0.1057129668233929 [Eh]
	 SCS Opposite-Spin Energy  =      -1.2006300881102738 [Eh]
	 SCS Correlation Energy    =      -1.3063430549336668 [Eh]
	 SCS Total Energy          =    -323.2883407165201106 [Eh]
	-----------------------------------------------------------

  Dipole Moment: [D]
     X:    -0.7521      Y:     2.0336      Z:     0.2989     Total:     2.1888

*** Psi4 exiting successfully. Buy a developer a beer!
