                               Psi4 1.3.2 release

  ==> Input File <==

--------------------------------------------------------------------------
#psi4
#
memory 32 gb

molecule  {
0 1
  O        1.6642950     0.7201020    -0.5160700
  O        1.0775810    -1.0797050     0.7319740
  N       -1.4165098    -1.0452163    -0.6328067
  C       -0.6495640     0.1769900    -0.4154850
  C       -1.1893050     1.2162270     0.5788640
  C        0.7664460    -0.1647250    -0.0115660
  H       -0.6171290     0.6221710    -1.4152790
  H       -0.5840790     2.1275670     0.5721320
  H       -2.2164450     1.4834670     0.3126690
  H       -1.1896280     0.7983240     1.5903720
  H       -2.3959300    -0.8708340    -0.5385770
  H       -1.2389410    -1.5925540     0.3789210
  H        2.5336290     0.4505910    -0.1523780
units angstrom
no_reorient  #important for SAPT in psi4, default
symmetry c1  #important for SAPT in psi4, default
}

set PROPERTIES_ORIGIN ["COM"]
properties('MP2/aug-cc-pvtz', properties = ['dipole'])
--------------------------------------------------------------------------

    Molecular point group: c1
  Charge       = 0
  Multiplicity = 1
  Basis Set: AUG-CC-PVTZ
    Blend: AUG-CC-PVTZ
  Basis Set: (AUG-CC-PVTZ AUX)
    Blend: AUG-CC-PVTZ-JKFIT

    Orbital Energies [Eh]
    ---------------------

    Doubly Occupied:

       1A    -20.622727     2A    -20.556954     3A    -15.567943
       4A    -11.393154     5A    -11.282880     6A    -11.239534
       7A     -1.466090     8A     -1.363023     9A     -1.196358
      10A     -1.022547    11A     -0.914823    12A     -0.792424
      13A     -0.719062    14A     -0.703949    15A     -0.649342
      16A     -0.627027    17A     -0.601506    18A     -0.593075
      19A     -0.563194    20A     -0.543711    21A     -0.503648
      22A     -0.486870    23A     -0.455816    24A     -0.417758

  @DF-RHF Final Energy:  -321.97386594792329

   => Energetics <=

    Nuclear Repulsion Energy =            248.3238459046631306
    One-Electron Energy =                -932.0285925934106217
    Two-Electron Energy =                 361.7308807408242046
    Total Energy =                       -321.9738659479232865
  Basis Set: (AUG-CC-PVTZ AUX)
    Blend: AUG-CC-PVTZ-RI
    Molecular point group: c1

    Geometry (in Angstrom), charge = 0, multiplicity = 1:

       Center              X                  Y                   Z               Mass
    ------------   -----------------  -----------------  -----------------  -----------------
         O            1.603672278820     0.749342546762    -0.484262264811    15.994914619570
         O            1.016958278820    -1.050464453238     0.763781735189    15.994914619570
         N           -1.477132521180    -1.015975753238    -0.600998964811    14.003074004430
         C           -0.710186721180     0.206230546762    -0.383677264811    12.000000000000
         C           -1.249927721180     1.245467546762     0.610671735189    12.000000000000
         C            0.705823278820    -0.135484453238     0.020241735189    12.000000000000
         H           -0.677751721180     0.651411546762    -1.383471264811     1.007825032230
         H           -0.644701721180     2.156807546762     0.603939735189     1.007825032230
         H           -2.277067721180     1.512707546762     0.344476735189     1.007825032230
         H           -1.250250721180     0.827564546762     1.622179735189     1.007825032230
         H           -2.456552721180    -0.841593453238    -0.506769264811     1.007825032230
         H           -1.299563721180    -1.563313453238     0.410728735189     1.007825032230
         H            2.473006278820     0.479831546762    -0.120570264811     1.007825032230

  Basis Set: AUG-CC-PVTZ
    Blend: AUG-CC-PVTZ
  Basis Set: (AUG-CC-PVTZ AUX)
    Blend: AUG-CC-PVTZ-JKFIT
	 Reference Energy          =    -321.9738659479232865 [Eh]
	 Singles Energy            =      -0.0000000000000000 [Eh]
	 Same-Spin Energy          =      -0.3180273243810893 [Eh]
	 Opposite-Spin Energy      =      -1.0035518015355205 [Eh]
	 Correlation Energy        =      -1.3215791259166099 [Eh]
	 Total Energy              =    -323.2954450738399146 [Eh]

	 ================> DF-SCS-MP2 Energies <==================
	-----------------------------------------------------------
	 SCS Same-Spin Scale       =       0.3333333333333333 [-]
	 SCS Opposite-Spin Scale   =       1.2000000000000000 [-]
	 SCS Same-Spin Energy      =      -0.1060091081270298 [Eh]
	 SCS Opposite-Spin Energy  =      -1.2042621618426246 [Eh]
	 SCS Correlation Energy    =      -1.3102712699696544 [Eh]
	 SCS Total Energy          =    -323.2841372178929191 [Eh]
	-----------------------------------------------------------

  Dipole Moment: [D]
     X:    -0.7037      Y:     2.1083      Z:     0.5160     Total:     2.2817

*** Psi4 exiting successfully. Buy a developer a beer!
