                               Psi4 1.3.2 release

  ==> Input File <==

--------------------------------------------------------------------------
#psi4
#
memory 32 gb

molecule  {
0 1
  O        1.6642950     0.7201020    -0.5160700
  O        1.0775810    -1.0797050     0.7319740
  N       -1.3988490    -1.0732660    -0.4837110
  C       -0.6495640     0.1769900    -0.4154850
  C       -1.1841522     1.1800082     0.6180689
  C        0.7664460    -0.1647250    -0.0115660
  H       -0.6171290     0.6221710    -1.4152790
  H       -0.5840790     2.1275670     0.5721320
  H       -2.2164450     1.4834670     0.3126690
  H       -1.1896280     0.7983240     1.5903720
  H       -2.3959300    -0.8708340    -0.5385770
  H       -1.2389410    -1.5925540     0.3789210
  H        2.5336290     0.4505910    -0.1523780
units angstrom
no_reorient  #important for SAPT in psi4, default
symmetry c1  #important for SAPT in psi4, default
}

set PROPERTIES_ORIGIN ["COM"]
properties('MP2/aug-cc-pvtz', properties = ['dipole'])
--------------------------------------------------------------------------

    Molecular point group: c1
  Charge       = 0
  Multiplicity = 1
  Basis Set: AUG-CC-PVTZ
    Blend: AUG-CC-PVTZ
  Basis Set: (AUG-CC-PVTZ AUX)
    Blend: AUG-CC-PVTZ-JKFIT

    Orbital Energies [Eh]
    ---------------------

    Doubly Occupied:

       1A    -20.621300     2A    -20.554947     3A    -15.550223
       4A    -11.390925     5A    -11.283366     6A    -11.236954
       7A     -1.464802     8A     -1.361747     9A     -1.200215
      10A     -1.023594    11A     -0.913779    12A     -0.793129
      13A     -0.725041    14A     -0.706921    15A     -0.645469
      16A     -0.628876    17A     -0.611552    18A     -0.583979
      19A     -0.578030    20A     -0.539537    21A     -0.526183
      22A     -0.485115    23A     -0.453491    24A     -0.403561

  @DF-RHF Final Energy:  -321.99246065265953

   => Energetics <=

    Nuclear Repulsion Energy =            249.4877144304973626
    One-Electron Energy =                -934.3948818790080395
    Two-Electron Energy =                 362.9147067958511457
    Total Energy =                       -321.9924606526595312
  Basis Set: (AUG-CC-PVTZ AUX)
    Blend: AUG-CC-PVTZ-RI
    Molecular point group: c1

    Geometry (in Angstrom), charge = 0, multiplicity = 1:

       Center              X                  Y                   Z               Mass
    ------------   -----------------  -----------------  -----------------  -----------------
         O            1.600200665694     0.758634283942    -0.512991334056    15.994914619570
         O            1.013486665694    -1.041172716058     0.735052665944    15.994914619570
         N           -1.462943334306    -1.034733716058    -0.480632334056    14.003074004430
         C           -0.713658334306     0.215522283942    -0.412406334056    12.000000000000
         C           -1.248246534306     1.218540483942     0.621147565944    12.000000000000
         C            0.702351665694    -0.126192716058    -0.008487334056    12.000000000000
         H           -0.681223334306     0.660703283942    -1.412200334056     1.007825032230
         H           -0.648173334306     2.166099283942     0.575210665944     1.007825032230
         H           -2.280539334306     1.521999283942     0.315747665944     1.007825032230
         H           -1.253722334306     0.836856283942     1.593450665944     1.007825032230
         H           -2.460024334306    -0.832301716058    -0.535498334056     1.007825032230
         H           -1.303035334306    -1.554021716058     0.381999665944     1.007825032230
         H            2.469534665694     0.489123283942    -0.149299334056     1.007825032230

  Basis Set: AUG-CC-PVTZ
    Blend: AUG-CC-PVTZ
  Basis Set: (AUG-CC-PVTZ AUX)
    Blend: AUG-CC-PVTZ-JKFIT
	 Reference Energy          =    -321.9924606526595312 [Eh]
	 Singles Energy            =      -0.0000000000000000 [Eh]
	 Same-Spin Energy          =      -0.3169872303797769 [Eh]
	 Opposite-Spin Energy      =      -1.0000754883732768 [Eh]
	 Correlation Energy        =      -1.3170627187530537 [Eh]
	 Total Energy              =    -323.3095233714125811 [Eh]

	 ================> DF-SCS-MP2 Energies <==================
	-----------------------------------------------------------
	 SCS Same-Spin Scale       =       0.3333333333333333 [-]
	 SCS Opposite-Spin Scale   =       1.2000000000000000 [-]
	 SCS Same-Spin Energy      =      -0.1056624101265923 [Eh]
	 SCS Opposite-Spin Energy  =      -1.2000905860479321 [Eh]
	 SCS Correlation Energy    =      -1.3057529961745244 [Eh]
	 SCS Total Energy          =    -323.2982136488340643 [Eh]
	-----------------------------------------------------------

  Dipole Moment: [D]
     X:    -0.7557      Y:     2.0399      Z:     0.2970     Total:     2.1956

*** Psi4 exiting successfully. Buy a developer a beer!
