                               Psi4 1.3.2 release

  ==> Input File <==

--------------------------------------------------------------------------
#psi4
#
memory 32 gb

molecule  {
0 1
  O        1.6642950     0.7201020    -0.5160700
  O        1.0775810    -1.0797050     0.7319740
  N       -1.3988490    -1.0732660    -0.4837110
  C       -0.6495640     0.1769900    -0.4154850
  C       -1.2125699     1.2165471     0.5655395
  C        0.7664460    -0.1647250    -0.0115660
  H       -0.6171290     0.6221710    -1.4152790
  H       -0.5840790     2.1275670     0.5721320
  H       -2.2164450     1.4834670     0.3126690
  H       -1.1896280     0.7983240     1.5903720
  H       -2.3959300    -0.8708340    -0.5385770
  H       -1.2389410    -1.5925540     0.3789210
  H        2.5336290     0.4505910    -0.1523780
units angstrom
no_reorient  #important for SAPT in psi4, default
symmetry c1  #important for SAPT in psi4, default
}

set PROPERTIES_ORIGIN ["COM"]
properties('MP2/aug-cc-pvtz', properties = ['dipole'])
--------------------------------------------------------------------------

    Molecular point group: c1
  Charge       = 0
  Multiplicity = 1
  Basis Set: AUG-CC-PVTZ
    Blend: AUG-CC-PVTZ
  Basis Set: (AUG-CC-PVTZ AUX)
    Blend: AUG-CC-PVTZ-JKFIT

    Orbital Energies [Eh]
    ---------------------

    Doubly Occupied:

       1A    -20.621714     2A    -20.555775     3A    -15.550530
       4A    -11.391896     5A    -11.282857     6A    -11.236432
       7A     -1.465205     8A     -1.362239     9A     -1.199927
      10A     -1.023087    11A     -0.914364    12A     -0.792683
      13A     -0.724196    14A     -0.707420    15A     -0.647090
      16A     -0.629143    17A     -0.607852    18A     -0.586453
      19A     -0.575837    20A     -0.549602    21A     -0.516368
      22A     -0.485628    23A     -0.455640    24A     -0.403763

  @DF-RHF Final Energy:  -321.99487107393071

   => Energetics <=

    Nuclear Repulsion Energy =            249.2184240250914797
    One-Electron Energy =                -933.8551915846461497
    Two-Electron Energy =                 362.6418964856239313
    Total Energy =                       -321.9948710739307103
  Basis Set: (AUG-CC-PVTZ AUX)
    Blend: AUG-CC-PVTZ-RI
    Molecular point group: c1

    Geometry (in Angstrom), charge = 0, multiplicity = 1:

       Center              X                  Y                   Z               Mass
    ------------   -----------------  -----------------  -----------------  -----------------
         O            1.604030214155     0.753710328512    -0.505912510544    15.994914619570
         O            1.017316214155    -1.046096671488     0.742131489456    15.994914619570
         N           -1.459113785845    -1.039657671488    -0.473553510544    14.003074004430
         C           -0.709828785845     0.210598328512    -0.405327510544    12.000000000000
         C           -1.272834685845     1.250155428512     0.575696989456    12.000000000000
         C            0.706181214155    -0.131116671488    -0.001408510544    12.000000000000
         H           -0.677393785845     0.655779328512    -1.405121510544     1.007825032230
         H           -0.644343785845     2.161175328512     0.582289489456     1.007825032230
         H           -2.276709785845     1.517075328512     0.322826489456     1.007825032230
         H           -1.249892785845     0.831932328512     1.600529489456     1.007825032230
         H           -2.456194785845    -0.837225671488    -0.528419510544     1.007825032230
         H           -1.299205785845    -1.558945671488     0.389078489456     1.007825032230
         H            2.473364214155     0.484199328512    -0.142220510544     1.007825032230

  Basis Set: AUG-CC-PVTZ
    Blend: AUG-CC-PVTZ
  Basis Set: (AUG-CC-PVTZ AUX)
    Blend: AUG-CC-PVTZ-JKFIT
	 Reference Energy          =    -321.9948710739307103 [Eh]
	 Singles Energy            =      -0.0000000000000000 [Eh]
	 Same-Spin Energy          =      -0.3169134674062308 [Eh]
	 Opposite-Spin Energy      =      -0.9999701699664627 [Eh]
	 Correlation Energy        =      -1.3168836373726935 [Eh]
	 Total Energy              =    -323.3117547113034220 [Eh]

	 ================> DF-SCS-MP2 Energies <==================
	-----------------------------------------------------------
	 SCS Same-Spin Scale       =       0.3333333333333333 [-]
	 SCS Opposite-Spin Scale   =       1.2000000000000000 [-]
	 SCS Same-Spin Energy      =      -0.1056378224687436 [Eh]
	 SCS Opposite-Spin Energy  =      -1.1999642039597551 [Eh]
	 SCS Correlation Energy    =      -1.3056020264284987 [Eh]
	 SCS Total Energy          =    -323.3004731003592269 [Eh]
	-----------------------------------------------------------

  Dipole Moment: [D]
     X:    -0.7524      Y:     2.0420      Z:     0.2830     Total:     2.1946

*** Psi4 exiting successfully. Buy a developer a beer!
