                               Psi4 1.3.2 release

  ==> Input File <==

--------------------------------------------------------------------------
#psi4
#
memory 32 gb

molecule  {
0 1
  O        1.6642950     0.7201020    -0.5160700
  O        1.0775810    -1.0797050     0.7319740
  N       -1.4401785    -1.0467243    -0.4971849
  C       -0.6495640     0.1769900    -0.4154850
  C       -1.1893050     1.2162270     0.5788640
  C        0.7664460    -0.1647250    -0.0115660
  H       -0.6171290     0.6221710    -1.4152790
  H       -0.5840790     2.1275670     0.5721320
  H       -2.2164450     1.4834670     0.3126690
  H       -1.1896280     0.7983240     1.5903720
  H       -2.3959300    -0.8708340    -0.5385770
  H       -1.2389410    -1.5925540     0.3789210
  H        2.5336290     0.4505910    -0.1523780
units angstrom
no_reorient  #important for SAPT in psi4, default
symmetry c1  #important for SAPT in psi4, default
}

set PROPERTIES_ORIGIN ["COM"]
properties('MP2/aug-cc-pvtz', properties = ['dipole'])
--------------------------------------------------------------------------

    Molecular point group: c1
  Charge       = 0
  Multiplicity = 1
  Basis Set: AUG-CC-PVTZ
    Blend: AUG-CC-PVTZ
  Basis Set: (AUG-CC-PVTZ AUX)
    Blend: AUG-CC-PVTZ-JKFIT

    Orbital Energies [Eh]
    ---------------------

    Doubly Occupied:

       1A    -20.622500     2A    -20.556376     3A    -15.548282
       4A    -11.392863     5A    -11.283067     6A    -11.235831
       7A     -1.465870     8A     -1.362784     9A     -1.200851
      10A     -1.024859    11A     -0.914105    12A     -0.794114
      13A     -0.724432    14A     -0.707003    15A     -0.649116
      16A     -0.635125    17A     -0.607647    18A     -0.589794
      19A     -0.572253    20A     -0.546269    21A     -0.518285
      22A     -0.486401    23A     -0.455510    24A     -0.402159

  @DF-RHF Final Energy:  -321.99323807994392

   => Energetics <=

    Nuclear Repulsion Energy =            249.1216602036578536
    One-Electron Energy =                -933.6388076244176091
    Two-Electron Energy =                 362.5239093408158624
    Total Energy =                       -321.9932380799439215
  Basis Set: (AUG-CC-PVTZ AUX)
    Blend: AUG-CC-PVTZ-RI
    Molecular point group: c1

    Geometry (in Angstrom), charge = 0, multiplicity = 1:

       Center              X                  Y                   Z               Mass
    ------------   -----------------  -----------------  -----------------  -----------------
         O            1.607394268695     0.749579685292    -0.505589290227    15.994914619570
         O            1.020680268695    -1.050227314708     0.742454709773    15.994914619570
         N           -1.497079231305    -1.017246614708    -0.486704190227    14.003074004430
         C           -0.706464731305     0.206467685292    -0.405004290227    12.000000000000
         C           -1.246205731305     1.245704685292     0.589344709773    12.000000000000
         C            0.709545268695    -0.135247314708    -0.001085290227    12.000000000000
         H           -0.674029731305     0.651648685292    -1.404798290227     1.007825032230
         H           -0.640979731305     2.157044685292     0.582612709773     1.007825032230
         H           -2.273345731305     1.512944685292     0.323149709773     1.007825032230
         H           -1.246528731305     0.827801685292     1.600852709773     1.007825032230
         H           -2.452830731305    -0.841356314708    -0.528096290227     1.007825032230
         H           -1.295841731305    -1.563076314708     0.389401709773     1.007825032230
         H            2.476728268695     0.480068685292    -0.141897290227     1.007825032230

  Basis Set: AUG-CC-PVTZ
    Blend: AUG-CC-PVTZ
  Basis Set: (AUG-CC-PVTZ AUX)
    Blend: AUG-CC-PVTZ-JKFIT
	 Reference Energy          =    -321.9932380799439215 [Eh]
	 Singles Energy            =      -0.0000000000000000 [Eh]
	 Same-Spin Energy          =      -0.3168394875677302 [Eh]
	 Opposite-Spin Energy      =      -0.9996951621199464 [Eh]
	 Correlation Energy        =      -1.3165346496876764 [Eh]
	 Total Energy              =    -323.3097727296316179 [Eh]

	 ================> DF-SCS-MP2 Energies <==================
	-----------------------------------------------------------
	 SCS Same-Spin Scale       =       0.3333333333333333 [-]
	 SCS Opposite-Spin Scale   =       1.2000000000000000 [-]
	 SCS Same-Spin Energy      =      -0.1056131625225767 [Eh]
	 SCS Opposite-Spin Energy  =      -1.1996341945439355 [Eh]
	 SCS Correlation Energy    =      -1.3052473570665122 [Eh]
	 SCS Total Energy          =    -323.2984854370104131 [Eh]
	-----------------------------------------------------------

  Dipole Moment: [D]
     X:    -0.6854      Y:     2.0040      Z:     0.2922     Total:     2.1380

*** Psi4 exiting successfully. Buy a developer a beer!
