                               Psi4 1.3.2 release

  ==> Input File <==

--------------------------------------------------------------------------
#psi4
#
memory 32 gb

molecule  {
0 1
  O        1.6642950     0.7201020    -0.5160700
  O        1.0775810    -1.0797050     0.7319740
  N       -1.3988490    -1.0732660    -0.4837110
  C       -0.7009135     0.0913082    -0.4201606
  C       -1.1893050     1.2162270     0.5788640
  C        0.7664460    -0.1647250    -0.0115660
  H       -0.6171290     0.6221710    -1.4152790
  H       -0.5840790     2.1275670     0.5721320
  H       -2.2164450     1.4834670     0.3126690
  H       -1.1896280     0.7983240     1.5903720
  H       -2.3959300    -0.8708340    -0.5385770
  H       -1.2389410    -1.5925540     0.3789210
  H        2.5336290     0.4505910    -0.1523780
units angstrom
no_reorient  #important for SAPT in psi4, default
symmetry c1  #important for SAPT in psi4, default
}

set PROPERTIES_ORIGIN ["COM"]
properties('MP2/aug-cc-pvtz', properties = ['dipole'])
--------------------------------------------------------------------------

    Molecular point group: c1
  Charge       = 0
  Multiplicity = 1
  Basis Set: AUG-CC-PVTZ
    Blend: AUG-CC-PVTZ
  Basis Set: (AUG-CC-PVTZ AUX)
    Blend: AUG-CC-PVTZ-JKFIT

    Orbital Energies [Eh]
    ---------------------

    Doubly Occupied:

       1A    -20.621598     2A    -20.552086     3A    -15.553321
       4A    -11.389466     5A    -11.285954     6A    -11.234672
       7A     -1.462900     8A     -1.360412     9A     -1.232383
      10A     -1.011958    11A     -0.904873    12A     -0.794664
      13A     -0.727500    14A     -0.706953    15A     -0.647511
      16A     -0.634836    17A     -0.617623    18A     -0.594159
      19A     -0.576160    20A     -0.538498    21A     -0.519620
      22A     -0.483802    23A     -0.446158    24A     -0.398078

  @DF-RHF Final Energy:  -321.98526664380461

   => Energetics <=

    Nuclear Repulsion Energy =            249.4766411945903712
    One-Electron Energy =                -934.3334426813904656
    Two-Electron Energy =                 362.8715348429955156
    Total Energy =                       -321.9852666438046072
  Basis Set: (AUG-CC-PVTZ AUX)
    Blend: AUG-CC-PVTZ-RI
    Molecular point group: c1

    Geometry (in Angstrom), charge = 0, multiplicity = 1:

       Center              X                  Y                   Z               Mass
    ------------   -----------------  -----------------  -----------------  -----------------
         O            1.607814874303     0.765299881633    -0.507078029980    15.994914619570
         O            1.021100874303    -1.034507118367     0.740965970020    15.994914619570
         N           -1.455329125697    -1.028068118367    -0.474719029980    14.003074004430
         C           -0.757393625697     0.136506081633    -0.411168629980    12.000000000000
         C           -1.245785125697     1.261424881633     0.587855970020    12.000000000000
         C            0.709965874303    -0.119527118367    -0.002574029980    12.000000000000
         H           -0.673609125697     0.667368881633    -1.406287029980     1.007825032230
         H           -0.640559125697     2.172764881633     0.581123970020     1.007825032230
         H           -2.272925125697     1.528664881633     0.321660970020     1.007825032230
         H           -1.246108125697     0.843521881633     1.599363970020     1.007825032230
         H           -2.452410125697    -0.825636118367    -0.529585029980     1.007825032230
         H           -1.295421125697    -1.547356118367     0.387912970020     1.007825032230
         H            2.477148874303     0.495788881633    -0.143386029980     1.007825032230

  Basis Set: AUG-CC-PVTZ
    Blend: AUG-CC-PVTZ
  Basis Set: (AUG-CC-PVTZ AUX)
    Blend: AUG-CC-PVTZ-JKFIT
	 Reference Energy          =    -321.9852666438046072 [Eh]
	 Singles Energy            =      -0.0000000000000000 [Eh]
	 Same-Spin Energy          =      -0.3174035878878916 [Eh]
	 Opposite-Spin Energy      =      -0.9998347406776903 [Eh]
	 Correlation Energy        =      -1.3172383285655820 [Eh]
	 Total Energy              =    -323.3025049723701727 [Eh]

	 ================> DF-SCS-MP2 Energies <==================
	-----------------------------------------------------------
	 SCS Same-Spin Scale       =       0.3333333333333333 [-]
	 SCS Opposite-Spin Scale   =       1.2000000000000000 [-]
	 SCS Same-Spin Energy      =      -0.1058011959626305 [Eh]
	 SCS Opposite-Spin Energy  =      -1.1998016888132284 [Eh]
	 SCS Correlation Energy    =      -1.3056028847758590 [Eh]
	 SCS Total Energy          =    -323.2908695285804583 [Eh]
	-----------------------------------------------------------

  Dipole Moment: [D]
     X:    -0.8779      Y:     1.7845      Z:     0.2117     Total:     1.9999

*** Psi4 exiting successfully. Buy a developer a beer!
