                               Psi4 1.3.2 release

  ==> Input File <==

--------------------------------------------------------------------------
#psi4
#
memory 32 gb

molecule  {
0 1
  O        1.6642950     0.7201020    -0.5160700
  O        1.0775810    -1.0797050     0.7319740
  N       -1.3988490    -1.0732660    -0.4837110
  C       -0.7441960     0.1814337    -0.4657147
  C       -1.1893050     1.2162270     0.5788640
  C        0.7664460    -0.1647250    -0.0115660
  H       -0.6171290     0.6221710    -1.4152790
  H       -0.5840790     2.1275670     0.5721320
  H       -2.2164450     1.4834670     0.3126690
  H       -1.1896280     0.7983240     1.5903720
  H       -2.3959300    -0.8708340    -0.5385770
  H       -1.2389410    -1.5925540     0.3789210
  H        2.5336290     0.4505910    -0.1523780
units angstrom
no_reorient  #important for SAPT in psi4, default
symmetry c1  #important for SAPT in psi4, default
}

set PROPERTIES_ORIGIN ["COM"]
properties('MP2/aug-cc-pvtz', properties = ['dipole'])
--------------------------------------------------------------------------

    Molecular point group: c1
  Charge       = 0
  Multiplicity = 1
  Basis Set: AUG-CC-PVTZ
    Blend: AUG-CC-PVTZ
  Basis Set: (AUG-CC-PVTZ AUX)
    Blend: AUG-CC-PVTZ-JKFIT

    Orbital Energies [Eh]
    ---------------------

    Doubly Occupied:

       1A    -20.619454     2A    -20.553064     3A    -15.552404
       4A    -11.388861     5A    -11.285732     6A    -11.234560
       7A     -1.460526     8A     -1.358443     9A     -1.212975
      10A     -1.017843    11A     -0.897994    12A     -0.798105
      13A     -0.720428    14A     -0.705739    15A     -0.639004
      16A     -0.628889    17A     -0.623496    18A     -0.591402
      19A     -0.577474    20A     -0.534167    21A     -0.529765
      22A     -0.483655    23A     -0.439513    24A     -0.405456

  @DF-RHF Final Energy:  -321.98516951384300

   => Energetics <=

    Nuclear Repulsion Energy =            248.3569178694712321
    One-Electron Energy =                -932.1662771373518126
    Two-Electron Energy =                 361.8241897540376044
    Total Energy =                       -321.9851695138430046
  Basis Set: (AUG-CC-PVTZ AUX)
    Blend: AUG-CC-PVTZ-RI
    Molecular point group: c1

    Geometry (in Angstrom), charge = 0, multiplicity = 1:

       Center              X                  Y                   Z               Mass
    ------------   -----------------  -----------------  -----------------  -----------------
         O            1.613647592336     0.753154635193    -0.500939192793    15.994914619570
         O            1.026933592336    -1.046652364807     0.747104807207    15.994914619570
         N           -1.449496407664    -1.040213364807    -0.468580192793    14.003074004430
         C           -0.794843407664     0.214486335193    -0.450583892793    12.000000000000
         C           -1.239952407664     1.249279635193     0.593994807207    12.000000000000
         C            0.715798592336    -0.131672364807     0.003564807207    12.000000000000
         H           -0.667776407664     0.655223635193    -1.400148192793     1.007825032230
         H           -0.634726407664     2.160619635193     0.587262807207     1.007825032230
         H           -2.267092407664     1.516519635193     0.327799807207     1.007825032230
         H           -1.240275407664     0.831376635193     1.605502807207     1.007825032230
         H           -2.446577407664    -0.837781364807    -0.523446192793     1.007825032230
         H           -1.289588407664    -1.559501364807     0.394051807207     1.007825032230
         H            2.482981592336     0.483643635193    -0.137247192793     1.007825032230

  Basis Set: AUG-CC-PVTZ
    Blend: AUG-CC-PVTZ
  Basis Set: (AUG-CC-PVTZ AUX)
    Blend: AUG-CC-PVTZ-JKFIT
	 Reference Energy          =    -321.9851695138430046 [Eh]
	 Singles Energy            =      -0.0000000000000000 [Eh]
	 Same-Spin Energy          =      -0.3171384608673304 [Eh]
	 Opposite-Spin Energy      =      -1.0000563094797577 [Eh]
	 Correlation Energy        =      -1.3171947703470881 [Eh]
	 Total Energy              =    -323.3023642841901051 [Eh]

	 ================> DF-SCS-MP2 Energies <==================
	-----------------------------------------------------------
	 SCS Same-Spin Scale       =       0.3333333333333333 [-]
	 SCS Opposite-Spin Scale   =       1.2000000000000000 [-]
	 SCS Same-Spin Energy      =      -0.1057128202891101 [Eh]
	 SCS Opposite-Spin Energy  =      -1.2000675713757092 [Eh]
	 SCS Correlation Energy    =      -1.3057803916648194 [Eh]
	 SCS Total Energy          =    -323.2909499055078300 [Eh]
	-----------------------------------------------------------

  Dipole Moment: [D]
     X:    -0.7932      Y:     1.9394      Z:     0.2443     Total:     2.1096

*** Psi4 exiting successfully. Buy a developer a beer!
