                               Psi4 1.3.2 release

  ==> Input File <==

--------------------------------------------------------------------------
#psi4
#
memory 32 gb

molecule  {
0 1
  O        1.6642950     0.7201020    -0.5160700
  O        1.0775810    -1.0797050     0.7319740
  N       -1.3661449    -1.0899007    -0.5190360
  C       -0.6495640     0.1769900    -0.4154850
  C       -1.1893050     1.2162270     0.5788640
  C        0.7664460    -0.1647250    -0.0115660
  H       -0.6171290     0.6221710    -1.4152790
  H       -0.5840790     2.1275670     0.5721320
  H       -2.2164450     1.4834670     0.3126690
  H       -1.1896280     0.7983240     1.5903720
  H       -2.3959300    -0.8708340    -0.5385770
  H       -1.2389410    -1.5925540     0.3789210
  H        2.5336290     0.4505910    -0.1523780
units angstrom
no_reorient  #important for SAPT in psi4, default
symmetry c1  #important for SAPT in psi4, default
}

set PROPERTIES_ORIGIN ["COM"]
properties('MP2/aug-cc-pvtz', properties = ['dipole'])
--------------------------------------------------------------------------

    Molecular point group: c1
  Charge       = 0
  Multiplicity = 1
  Basis Set: AUG-CC-PVTZ
    Blend: AUG-CC-PVTZ
  Basis Set: (AUG-CC-PVTZ AUX)
    Blend: AUG-CC-PVTZ-JKFIT

    Orbital Energies [Eh]
    ---------------------

    Doubly Occupied:

       1A    -20.620930     2A    -20.554788     3A    -15.558870
       4A    -11.390496     5A    -11.282736     6A    -11.238059
       7A     -1.464484     8A     -1.361489     9A     -1.197933
      10A     -1.022487    11A     -0.913262    12A     -0.791273
      13A     -0.721612    14A     -0.706173    15A     -0.645621
      16A     -0.623023    17A     -0.608278    18A     -0.582614
      19A     -0.576981    20A     -0.542226    21A     -0.519311
      22A     -0.484877    23A     -0.454059    24A     -0.411228

  @DF-RHF Final Energy:  -321.99181994994473

   => Energetics <=

    Nuclear Repulsion Energy =            249.1853387276839840
    One-Electron Energy =                -933.8086971421003000
    Two-Electron Energy =                 362.6315384644715891
    Total Energy =                       -321.9918199499447269
  Basis Set: (AUG-CC-PVTZ AUX)
    Blend: AUG-CC-PVTZ-RI
    Molecular point group: c1

    Geometry (in Angstrom), charge = 0, multiplicity = 1:

       Center              X                  Y                   Z               Mass
    ------------   -----------------  -----------------  -----------------  -----------------
         O            1.595752213591     0.756369332533    -0.502153124618    15.994914619570
         O            1.009038213591    -1.043437667467     0.745890875382    15.994914619570
         N           -1.434687686409    -1.053633367467    -0.505119124618    14.003074004430
         C           -0.718106786409     0.213257332533    -0.401568124618    12.000000000000
         C           -1.257847786409     1.252494332533     0.592780875382    12.000000000000
         C            0.697903213591    -0.128457667467     0.002350875382    12.000000000000
         H           -0.685671786409     0.658438332533    -1.401362124618     1.007825032230
         H           -0.652621786409     2.163834332533     0.586048875382     1.007825032230
         H           -2.284987786409     1.519734332533     0.326585875382     1.007825032230
         H           -1.258170786409     0.834591332533     1.604288875382     1.007825032230
         H           -2.464472786409    -0.834566667467    -0.524660124618     1.007825032230
         H           -1.307483786409    -1.556286667467     0.392837875382     1.007825032230
         H            2.465086213591     0.486858332533    -0.138461124618     1.007825032230

  Basis Set: AUG-CC-PVTZ
    Blend: AUG-CC-PVTZ
  Basis Set: (AUG-CC-PVTZ AUX)
    Blend: AUG-CC-PVTZ-JKFIT
	 Reference Energy          =    -321.9918199499447269 [Eh]
	 Singles Energy            =      -0.0000000000000000 [Eh]
	 Same-Spin Energy          =      -0.3173453389396089 [Eh]
	 Opposite-Spin Energy      =      -1.0012312741927585 [Eh]
	 Correlation Energy        =      -1.3185766131323673 [Eh]
	 Total Energy              =    -323.3103965630771199 [Eh]

	 ================> DF-SCS-MP2 Energies <==================
	-----------------------------------------------------------
	 SCS Same-Spin Scale       =       0.3333333333333333 [-]
	 SCS Opposite-Spin Scale   =       1.2000000000000000 [-]
	 SCS Same-Spin Energy      =      -0.1057817796465363 [Eh]
	 SCS Opposite-Spin Energy  =      -1.2014775290313102 [Eh]
	 SCS Correlation Energy    =      -1.3072593086778466 [Eh]
	 SCS Total Energy          =    -323.2990792586225552 [Eh]
	-----------------------------------------------------------

  Dipole Moment: [D]
     X:    -0.8002      Y:     2.0955      Z:     0.3604     Total:     2.2718

*** Psi4 exiting successfully. Buy a developer a beer!
