                               Psi4 1.4a3.dev225

  ==> Input File <==

--------------------------------------------------------------------------
#psi4
#
memory 32 gb

molecule  {
0 1
  O        1.6642820     0.7200090    -0.5161230
  O        1.0775160    -1.0797240     0.7320070
  N       -1.3989360    -1.0731900    -0.4836900
  C       -0.6598254     0.1598475    -0.4164613
  C       -1.1891480     1.2162680     0.5789130
  C        0.7664420    -0.1647700    -0.0115760
  H       -0.6171430     0.6221670    -1.4153090
  H       -0.5838330     2.1275540     0.5722180
  H       -2.2162690     1.4836440     0.3127790
  H       -1.1894240     0.7982770     1.5903820
  H       -2.3959760    -0.8706470    -0.5387880
  H       -1.2392480    -1.5923700     0.3790470
  H        2.5336150     0.4505320    -0.1524310
units angstrom
no_reorient  #important for SAPT in psi4, default
symmetry c1  #important for SAPT in psi4, default
}

set PROPERTIES_ORIGIN ["COM"]
properties('MP2/aug-cc-pvtz', properties = ['dipole'])
--------------------------------------------------------------------------

    Molecular point group: c1
  Charge       = 0
  Multiplicity = 1
  Basis Set: AUG-CC-PVTZ
    Blend: AUG-CC-PVTZ
  Basis Set: (AUG-CC-PVTZ AUX)
    Blend: AUG-CC-PVTZ-JKFIT

    Orbital Energies [Eh]
    ---------------------

    Doubly Occupied:

       1A    -20.621482     2A    -20.554595     3A    -15.551458
       4A    -11.390876     5A    -11.283336     6A    -11.236170
       7A     -1.464515     8A     -1.361581     9A     -1.205656
      10A     -1.021609    11A     -0.911719    12A     -0.792964
      13A     -0.724421    14A     -0.707106    15A     -0.645709
      16A     -0.630070    17A     -0.611737    18A     -0.585546
      19A     -0.578284    20A     -0.543330    21A     -0.520815
      22A     -0.485012    23A     -0.453048    24A     -0.403992

  @DF-RHF Final Energy:  -321.99544677507589

   => Energetics <=

    Nuclear Repulsion Energy =            249.3457384345037156
    One-Electron Energy =                -934.1123087080703726
    Two-Electron Energy =                 362.7711234984907946
    Total Energy =                       -321.9954467750758909
  Basis Set: (AUG-CC-PVTZ AUX)
    Blend: AUG-CC-PVTZ-RI
    Molecular point group: c1

    Geometry (in Angstrom), charge = 0, multiplicity = 1:

       Center              X                  Y                   Z               Mass
    ------------   -----------------  -----------------  -----------------  -----------------
         O            1.602269172555     0.755974471053    -0.507634940519    15.994914619570
         O            1.015503172555    -1.043758528947     0.740495059481    15.994914619570
         N           -1.460948827445    -1.037224528947    -0.475201940519    14.003074004430
         C           -0.721838227445     0.195812971053    -0.407973240519    12.000000000000
         C           -1.251160827445     1.252233471053     0.587401059481    12.000000000000
         C            0.704429172555    -0.128804528947    -0.003087940519    12.000000000000
         H           -0.679155827445     0.658132471053    -1.406820940519     1.007825032230
         H           -0.645845827445     2.163519471053     0.580706059481     1.007825032230
         H           -2.278281827445     1.519609471053     0.321267059481     1.007825032230
         H           -1.251436827445     0.834242471053     1.598870059481     1.007825032230
         H           -2.457988827445    -0.834681528947    -0.530299940519     1.007825032230
         H           -1.301260827445    -1.556404528947     0.387535059481     1.007825032230
         H            2.471602172555     0.486497471053    -0.143942940519     1.007825032230

  Basis Set: AUG-CC-PVTZ
    Blend: AUG-CC-PVTZ
  Basis Set: (AUG-CC-PVTZ AUX)
    Blend: AUG-CC-PVTZ-JKFIT
	 Reference Energy          =    -321.9954467750758909 [Eh]
	 Singles Energy            =      -0.0000000000000000 [Eh]
	 Same-Spin Energy          =      -0.3169561065356408 [Eh]
	 Opposite-Spin Energy      =      -0.9997941117772905 [Eh]
	 Correlation Energy        =      -1.3167502183129314 [Eh]
	 Total Energy              =    -323.3121969933887954 [Eh]

	 ================> DF-SCS-MP2 Energies <==================
	-----------------------------------------------------------
	 SCS Same-Spin Scale       =       0.3333333333333333 [-]
	 SCS Opposite-Spin Scale   =       1.2000000000000000 [-]
	 SCS Same-Spin Energy      =      -0.1056520355118803 [Eh]
	 SCS Opposite-Spin Energy  =      -1.1997529341327486 [Eh]
	 SCS Correlation Energy    =      -1.3054049696446288 [Eh]
	 SCS Total Energy          =    -323.3008517447205463 [Eh]
	-----------------------------------------------------------

  Dipole Moment: [D]
     X:    -0.7792      Y:     1.9967      Z:     0.2703     Total:     2.1603

*** Psi4 exiting successfully. Buy a developer a beer!
