                               Psi4 1.3.2 release

  ==> Input File <==

--------------------------------------------------------------------------
#psi4
#
memory 32 gb

molecule  {
0 1
  O        1.6642950     0.7201020    -0.5160700
  O        1.0775810    -1.0797050     0.7319740
  N       -1.3826086    -1.0817750    -0.5013866
  C       -0.6495640     0.1769900    -0.4154850
  C       -1.1893050     1.2162270     0.5788640
  C        0.7664460    -0.1647250    -0.0115660
  H       -0.6171290     0.6221710    -1.4152790
  H       -0.5840790     2.1275670     0.5721320
  H       -2.2164450     1.4834670     0.3126690
  H       -1.1896280     0.7983240     1.5903720
  H       -2.3959300    -0.8708340    -0.5385770
  H       -1.2389410    -1.5925540     0.3789210
  H        2.5336290     0.4505910    -0.1523780
units angstrom
no_reorient  #important for SAPT in psi4, default
symmetry c1  #important for SAPT in psi4, default
}

set PROPERTIES_ORIGIN ["COM"]
properties('MP2/aug-cc-pvtz', properties = ['dipole'])
--------------------------------------------------------------------------

    Molecular point group: c1
  Charge       = 0
  Multiplicity = 1
  Basis Set: AUG-CC-PVTZ
    Blend: AUG-CC-PVTZ
  Basis Set: (AUG-CC-PVTZ AUX)
    Blend: AUG-CC-PVTZ-JKFIT

    Orbital Energies [Eh]
    ---------------------

    Doubly Occupied:

       1A    -20.621184     2A    -20.555009     3A    -15.554864
       4A    -11.390879     5A    -11.282828     6A    -11.237272
       7A     -1.464700     8A     -1.361683     9A     -1.198952
      10A     -1.023173    11A     -0.913374    12A     -0.792004
      13A     -0.722804    14A     -0.706660    15A     -0.645764
      16A     -0.625912    17A     -0.609406    18A     -0.582859
      19A     -0.577980    20A     -0.543457    21A     -0.520154
      22A     -0.485104    23A     -0.454267    24A     -0.407930

  @DF-RHF Final Energy:  -321.99415490361446

   => Energetics <=

    Nuclear Repulsion Energy =            249.2516652448830143
    One-Electron Energy =                -933.9352010409095328
    Two-Electron Energy =                 362.6893808924120322
    Total Energy =                       -321.9941549036144579
  Basis Set: (AUG-CC-PVTZ AUX)
    Blend: AUG-CC-PVTZ-RI
    Molecular point group: c1

    Geometry (in Angstrom), charge = 0, multiplicity = 1:

       Center              X                  Y                   Z               Mass
    ------------   -----------------  -----------------  -----------------  -----------------
         O            1.598341190794     0.755091536408    -0.504928557493    15.994914619570
         O            1.011627190794    -1.044715463592     0.743115442507    15.994914619570
         N           -1.448562409206    -1.046785463592    -0.490245157493    14.003074004430
         C           -0.715517809206     0.211979536408    -0.404343557493    12.000000000000
         C           -1.255258809206     1.251216536408     0.590005442507    12.000000000000
         C            0.700492190794    -0.129735463592    -0.000424557493    12.000000000000
         H           -0.683082809206     0.657160536408    -1.404137557493     1.007825032230
         H           -0.650032809206     2.162556536409     0.583273442507     1.007825032230
         H           -2.282398809206     1.518456536408     0.323810442507     1.007825032230
         H           -1.255581809206     0.833313536408     1.601513442507     1.007825032230
         H           -2.461883809206    -0.835844463592    -0.527435557493     1.007825032230
         H           -1.304894809206    -1.557564463592     0.390062442507     1.007825032230
         H            2.467675190794     0.485580536408    -0.141236557493     1.007825032230

  Basis Set: AUG-CC-PVTZ
    Blend: AUG-CC-PVTZ
  Basis Set: (AUG-CC-PVTZ AUX)
    Blend: AUG-CC-PVTZ-JKFIT
	 Reference Energy          =    -321.9941549036144579 [Eh]
	 Singles Energy            =      -0.0000000000000000 [Eh]
	 Same-Spin Energy          =      -0.3171254089404851 [Eh]
	 Opposite-Spin Energy      =      -1.0005493010892230 [Eh]
	 Correlation Energy        =      -1.3176747100297082 [Eh]
	 Total Energy              =    -323.3118296136441927 [Eh]

	 ================> DF-SCS-MP2 Energies <==================
	-----------------------------------------------------------
	 SCS Same-Spin Scale       =       0.3333333333333333 [-]
	 SCS Opposite-Spin Scale   =       1.2000000000000000 [-]
	 SCS Same-Spin Energy      =      -0.1057084696468284 [Eh]
	 SCS Opposite-Spin Energy  =      -1.2006591613070676 [Eh]
	 SCS Correlation Energy    =      -1.3063676309538961 [Eh]
	 SCS Total Energy          =    -323.3005225345683584 [Eh]
	-----------------------------------------------------------

  Dipole Moment: [D]
     X:    -0.7794      Y:     2.0701      Z:     0.3237     Total:     2.2355

*** Psi4 exiting successfully. Buy a developer a beer!
