                               Psi4 1.3.2 release

  ==> Input File <==

--------------------------------------------------------------------------
#psi4
#
memory 32 gb

molecule  {
0 1
  O        1.6642950     0.7201020    -0.5160700
  O        1.0775810    -1.0797050     0.7319740
  N       -1.3566067    -1.0982844    -0.4701540
  C       -0.6495640     0.1769900    -0.4154850
  C       -1.1893050     1.2162270     0.5788640
  C        0.7664460    -0.1647250    -0.0115660
  H       -0.6171290     0.6221710    -1.4152790
  H       -0.5840790     2.1275670     0.5721320
  H       -2.2164450     1.4834670     0.3126690
  H       -1.1896280     0.7983240     1.5903720
  H       -2.3959300    -0.8708340    -0.5385770
  H       -1.2389410    -1.5925540     0.3789210
  H        2.5336290     0.4505910    -0.1523780
units angstrom
no_reorient  #important for SAPT in psi4, default
symmetry c1  #important for SAPT in psi4, default
}

set PROPERTIES_ORIGIN ["COM"]
properties('MP2/aug-cc-pvtz', properties = ['dipole'])
--------------------------------------------------------------------------

    Molecular point group: c1
  Charge       = 0
  Multiplicity = 1
  Basis Set: AUG-CC-PVTZ
    Blend: AUG-CC-PVTZ
  Basis Set: (AUG-CC-PVTZ AUX)
    Blend: AUG-CC-PVTZ-JKFIT

    Orbital Energies [Eh]
    ---------------------

    Doubly Occupied:

       1A    -20.620486     2A    -20.554192     3A    -15.553804
       4A    -11.389840     5A    -11.283231     6A    -11.237230
       7A     -1.464096     8A     -1.361122     9A     -1.200024
      10A     -1.023718    11A     -0.913068    12A     -0.792642
      13A     -0.723311    14A     -0.707207    15A     -0.644664
      16A     -0.623441    17A     -0.613907    18A     -0.581994
      19A     -0.577644    20A     -0.541280    21A     -0.523086
      22A     -0.484314    23A     -0.453450    24A     -0.407457

  @DF-RHF Final Energy:  -321.99181511099545

   => Energetics <=

    Nuclear Repulsion Energy =            249.5489365722780235
    One-Electron Energy =                -934.5310856275834794
    Two-Electron Energy =                 362.9903339443099526
    Total Energy =                       -321.9918151109954465
  Basis Set: (AUG-CC-PVTZ AUX)
    Blend: AUG-CC-PVTZ-RI
    Molecular point group: c1

    Geometry (in Angstrom), charge = 0, multiplicity = 1:

       Center              X                  Y                   Z               Mass
    ------------   -----------------  -----------------  -----------------  -----------------
         O            1.594252296662     0.757687700104    -0.509839998383    15.994914619570
         O            1.007538296662    -1.042119299896     0.738204001617    15.994914619570
         N           -1.426649403338    -1.060698699896    -0.463923998383    14.003074004430
         C           -0.719606703338     0.214575700104    -0.409254998383    12.000000000000
         C           -1.259347703338     1.253812700104     0.585094001617    12.000000000000
         C            0.696403296662    -0.127139299896    -0.005335998383    12.000000000000
         H           -0.687171703338     0.659756700104    -1.409048998383     1.007825032230
         H           -0.654121703338     2.165152700104     0.578362001617     1.007825032230
         H           -2.286487703338     1.521052700104     0.318899001617     1.007825032230
         H           -1.259670703338     0.835909700104     1.596602001617     1.007825032230
         H           -2.465972703338    -0.833248299896    -0.532346998383     1.007825032230
         H           -1.308983703338    -1.554968299896     0.385151001617     1.007825032230
         H            2.463586296662     0.488176700104    -0.146147998383     1.007825032230

  Basis Set: AUG-CC-PVTZ
    Blend: AUG-CC-PVTZ
  Basis Set: (AUG-CC-PVTZ AUX)
    Blend: AUG-CC-PVTZ-JKFIT
	 Reference Energy          =    -321.9918151109954465 [Eh]
	 Singles Energy            =      -0.0000000000000000 [Eh]
	 Same-Spin Energy          =      -0.3171060536455164 [Eh]
	 Opposite-Spin Energy      =      -1.0004604925604774 [Eh]
	 Correlation Energy        =      -1.3175665462059938 [Eh]
	 Total Energy              =    -323.3093816572014134 [Eh]

	 ================> DF-SCS-MP2 Energies <==================
	-----------------------------------------------------------
	 SCS Same-Spin Scale       =       0.3333333333333333 [-]
	 SCS Opposite-Spin Scale   =       1.2000000000000000 [-]
	 SCS Same-Spin Energy      =      -0.1057020178818388 [Eh]
	 SCS Opposite-Spin Energy  =      -1.2005525910725729 [Eh]
	 SCS Correlation Energy    =      -1.3062546089544118 [Eh]
	 SCS Total Energy          =    -323.2980697199498650 [Eh]
	-----------------------------------------------------------

  Dipole Moment: [D]
     X:    -0.8179      Y:     2.0836      Z:     0.2795     Total:     2.2558

*** Psi4 exiting successfully. Buy a developer a beer!
