                               Psi4 1.3.2 release

  ==> Input File <==

--------------------------------------------------------------------------
#psi4
#
memory 32 gb

molecule  {
0 1
  O        1.6642950     0.7201020    -0.5160700
  O        1.0980457    -1.0743047     0.7297514
  N       -1.3988490    -1.0732660    -0.4837110
  C       -0.6495640     0.1769900    -0.4154850
  C       -1.1893050     1.2162270     0.5788640
  C        0.7664460    -0.1647250    -0.0115660
  H       -0.6171290     0.6221710    -1.4152790
  H       -0.5840790     2.1275670     0.5721320
  H       -2.2164450     1.4834670     0.3126690
  H       -1.1896280     0.7983240     1.5903720
  H       -2.3959300    -0.8708340    -0.5385770
  H       -1.2389410    -1.5925540     0.3789210
  H        2.5336290     0.4505910    -0.1523780
units angstrom
no_reorient  #important for SAPT in psi4, default
symmetry c1  #important for SAPT in psi4, default
}

set PROPERTIES_ORIGIN ["COM"]
properties('MP2/aug-cc-pvtz', properties = ['dipole'])
--------------------------------------------------------------------------

    Molecular point group: c1
  Charge       = 0
  Multiplicity = 1
  Basis Set: AUG-CC-PVTZ
    Blend: AUG-CC-PVTZ
  Basis Set: (AUG-CC-PVTZ AUX)
    Blend: AUG-CC-PVTZ-JKFIT

    Orbital Energies [Eh]
    ---------------------

    Doubly Occupied:

       1A    -20.619690     2A    -20.554869     3A    -15.551808
       4A    -11.391097     5A    -11.284031     6A    -11.236996
       7A     -1.464811     8A     -1.360189     9A     -1.200938
      10A     -1.024475    11A     -0.913773    12A     -0.792424
      13A     -0.724349    14A     -0.706424    15A     -0.645805
      16A     -0.628855    17A     -0.611016    18A     -0.584551
      19A     -0.578014    20A     -0.544460    21A     -0.521476
      22A     -0.484536    23A     -0.454699    24A     -0.405393

  @DF-RHF Final Energy:  -321.99575617821642

   => Energetics <=

    Nuclear Repulsion Energy =            249.2322277606410807
    One-Electron Energy =                -933.8866047912966906
    Two-Electron Energy =                 362.6586208524391850
    Total Energy =                       -321.9957561782164248
  Basis Set: (AUG-CC-PVTZ AUX)
    Blend: AUG-CC-PVTZ-RI
    Molecular point group: c1

    Geometry (in Angstrom), charge = 0, multiplicity = 1:

       Center              X                  Y                   Z               Mass
    ------------   -----------------  -----------------  -----------------  -----------------
         O            1.597219144628     0.752783452721    -0.507308882745    15.994914619570
         O            1.030969844628    -1.041623247279     0.738512517255    15.994914619570
         N           -1.465924855372    -1.040584547279    -0.474949882745    14.003074004430
         C           -0.716639855372     0.209671452721    -0.406723882745    12.000000000000
         C           -1.256380855372     1.248908452721     0.587625117255    12.000000000000
         C            0.699370144628    -0.132043547279    -0.002804882745    12.000000000000
         H           -0.684204855372     0.654852452721    -1.406517882745     1.007825032230
         H           -0.651154855372     2.160248452721     0.580893117255     1.007825032230
         H           -2.283520855372     1.516148452721     0.321430117255     1.007825032230
         H           -1.256703855372     0.831005452721     1.599133117255     1.007825032230
         H           -2.463005855372    -0.838152547279    -0.529815882745     1.007825032230
         H           -1.306016855372    -1.559872547279     0.387682117255     1.007825032230
         H            2.466553144628     0.483272452721    -0.143616882745     1.007825032230

  Basis Set: AUG-CC-PVTZ
    Blend: AUG-CC-PVTZ
  Basis Set: (AUG-CC-PVTZ AUX)
    Blend: AUG-CC-PVTZ-JKFIT
	 Reference Energy          =    -321.9957561782164248 [Eh]
	 Singles Energy            =      -0.0000000000000000 [Eh]
	 Same-Spin Energy          =      -0.3168701451485469 [Eh]
	 Opposite-Spin Energy      =      -0.9998222156468239 [Eh]
	 Correlation Energy        =      -1.3166923607953709 [Eh]
	 Total Energy              =    -323.3124485390117684 [Eh]

	 ================> DF-SCS-MP2 Energies <==================
	-----------------------------------------------------------
	 SCS Same-Spin Scale       =       0.3333333333333333 [-]
	 SCS Opposite-Spin Scale   =       1.2000000000000000 [-]
	 SCS Same-Spin Energy      =      -0.1056233817161823 [Eh]
	 SCS Opposite-Spin Energy  =      -1.1997866587761887 [Eh]
	 SCS Correlation Energy    =      -1.3054100404923710 [Eh]
	 SCS Total Energy          =    -323.3011662187087722 [Eh]
	-----------------------------------------------------------

  Dipole Moment: [D]
     X:    -0.8250      Y:     2.0348      Z:     0.2854     Total:     2.2142

*** Psi4 exiting successfully. Buy a developer a beer!
