                               Psi4 1.3.2 release

  ==> Input File <==

--------------------------------------------------------------------------
#psi4
#
memory 32 gb

molecule  {
0 1
  O        1.6642950     0.7201020    -0.5160700
  O        1.0775810    -1.0797050     0.7319740
  N       -1.4023689    -1.0695359    -0.5086565
  C       -0.6495640     0.1769900    -0.4154850
  C       -1.1893050     1.2162270     0.5788640
  C        0.7664460    -0.1647250    -0.0115660
  H       -0.6171290     0.6221710    -1.4152790
  H       -0.5840790     2.1275670     0.5721320
  H       -2.2164450     1.4834670     0.3126690
  H       -1.1896280     0.7983240     1.5903720
  H       -2.3959300    -0.8708340    -0.5385770
  H       -1.2389410    -1.5925540     0.3789210
  H        2.5336290     0.4505910    -0.1523780
units angstrom
no_reorient  #important for SAPT in psi4, default
symmetry c1  #important for SAPT in psi4, default
}

set PROPERTIES_ORIGIN ["COM"]
properties('MP2/aug-cc-pvtz', properties = ['dipole'])
--------------------------------------------------------------------------

    Molecular point group: c1
  Charge       = 0
  Multiplicity = 1
  Basis Set: AUG-CC-PVTZ
    Blend: AUG-CC-PVTZ
  Basis Set: (AUG-CC-PVTZ AUX)
    Blend: AUG-CC-PVTZ-JKFIT

    Orbital Energies [Eh]
    ---------------------

    Doubly Occupied:

       1A    -20.621663     2A    -20.555531     3A    -15.553633
       4A    -11.391599     5A    -11.282800     6A    -11.236968
       7A     -1.465123     8A     -1.362078     9A     -1.199159
      10A     -1.023473    11A     -0.913658    12A     -0.792414
      13A     -0.722985    14A     -0.706591    15A     -0.646645
      16A     -0.628784    17A     -0.607957    18A     -0.585672
      19A     -0.575718    20A     -0.544657    21A     -0.518879
      22A     -0.485604    23A     -0.454757    24A     -0.406770

  @DF-RHF Final Energy:  -321.99435799323771

   => Energetics <=

    Nuclear Repulsion Energy =            249.1458335786694249
    One-Electron Energy =                -933.7141451892830446
    Two-Electron Energy =                 362.5739536173758779
    Total Energy =                       -321.9943579932377133
  Basis Set: (AUG-CC-PVTZ AUX)
    Blend: AUG-CC-PVTZ-RI
    Molecular point group: c1

    Geometry (in Angstrom), charge = 0, multiplicity = 1:

       Center              X                  Y                   Z               Mass
    ------------   -----------------  -----------------  -----------------  -----------------
         O            1.601448570436     0.753166893049    -0.503785339058    15.994914619570
         O            1.014734570436    -1.046640106951     0.744258660942    15.994914619570
         N           -1.465215329564    -1.036471006951    -0.496371839058    14.003074004430
         C           -0.712410429564     0.210054893049    -0.403200339058    12.000000000000
         C           -1.252151429564     1.249291893049     0.591148660942    12.000000000000
         C            0.703599570436    -0.131660106951     0.000718660942    12.000000000000
         H           -0.679975429564     0.655235893049    -1.402994339058     1.007825032230
         H           -0.646925429564     2.160631893049     0.584416660942     1.007825032230
         H           -2.279291429564     1.516531893049     0.324953660942     1.007825032230
         H           -1.252474429564     0.831388893049     1.602656660942     1.007825032230
         H           -2.458776429564    -0.837769106951    -0.526292339058     1.007825032230
         H           -1.301787429564    -1.559489106951     0.391205660942     1.007825032230
         H            2.470782570436     0.483655893049    -0.140093339058     1.007825032230

  Basis Set: AUG-CC-PVTZ
    Blend: AUG-CC-PVTZ
  Basis Set: (AUG-CC-PVTZ AUX)
    Blend: AUG-CC-PVTZ-JKFIT
	 Reference Energy          =    -321.9943579932377133 [Eh]
	 Singles Energy            =      -0.0000000000000000 [Eh]
	 Same-Spin Energy          =      -0.3170628631110907 [Eh]
	 Opposite-Spin Energy      =      -1.0003809168520847 [Eh]
	 Correlation Energy        =      -1.3174437799631755 [Eh]
	 Total Energy              =    -323.3118017732008980 [Eh]

	 ================> DF-SCS-MP2 Energies <==================
	-----------------------------------------------------------
	 SCS Same-Spin Scale       =       0.3333333333333333 [-]
	 SCS Opposite-Spin Scale   =       1.2000000000000000 [-]
	 SCS Same-Spin Energy      =      -0.1056876210370302 [Eh]
	 SCS Opposite-Spin Energy  =      -1.2004571002225017 [Eh]
	 SCS Correlation Energy    =      -1.3061447212595321 [Eh]
	 SCS Total Energy          =    -323.3005027144972701 [Eh]
	-----------------------------------------------------------

  Dipole Moment: [D]
     X:    -0.7486      Y:     2.0530      Z:     0.3286     Total:     2.2098

*** Psi4 exiting successfully. Buy a developer a beer!
