                               Psi4 1.3.2 release

  ==> Input File <==

--------------------------------------------------------------------------
#psi4
#
memory 32 gb

molecule  {
0 1
  O        1.7649475     0.6435152    -0.4512460
  O        1.0775810    -1.0797050     0.7319740
  N       -1.3988490    -1.0732660    -0.4837110
  C       -0.6495640     0.1769900    -0.4154850
  C       -1.1893050     1.2162270     0.5788640
  C        0.7664460    -0.1647250    -0.0115660
  H       -0.6171290     0.6221710    -1.4152790
  H       -0.5840790     2.1275670     0.5721320
  H       -2.2164450     1.4834670     0.3126690
  H       -1.1896280     0.7983240     1.5903720
  H       -2.3959300    -0.8708340    -0.5385770
  H       -1.2389410    -1.5925540     0.3789210
  H        2.5336290     0.4505910    -0.1523780
units angstrom
no_reorient  #important for SAPT in psi4, default
symmetry c1  #important for SAPT in psi4, default
}

set PROPERTIES_ORIGIN ["COM"]
properties('MP2/aug-cc-pvtz', properties = ['dipole'])
--------------------------------------------------------------------------

    Molecular point group: c1
  Charge       = 0
  Multiplicity = 1
  Basis Set: AUG-CC-PVTZ
    Blend: AUG-CC-PVTZ
  Basis Set: (AUG-CC-PVTZ AUX)
    Blend: AUG-CC-PVTZ-JKFIT

    Orbital Energies [Eh]
    ---------------------

    Doubly Occupied:

       1A    -20.600286     2A    -20.548948     3A    -15.554585
       4A    -11.392538     5A    -11.290191     6A    -11.239558
       7A     -1.481583     8A     -1.363999     9A     -1.203807
      10A     -1.029647    11A     -0.928194    12A     -0.826395
      13A     -0.731413    14A     -0.702057    15A     -0.646420
      16A     -0.625488    17A     -0.616646    18A     -0.587339
      19A     -0.580191    20A     -0.545236    21A     -0.523677
      22A     -0.479920    23A     -0.453955    24A     -0.408249

  @DF-RHF Final Energy:  -321.98064439835969

   => Energetics <=

    Nuclear Repulsion Energy =            249.5848927353112572
    One-Electron Energy =                -934.4104277924794815
    Two-Electron Energy =                 362.8448906588085947
    Total Energy =                       -321.9806443983596864
  Basis Set: (AUG-CC-PVTZ AUX)
    Blend: AUG-CC-PVTZ-RI
    Molecular point group: c1

    Geometry (in Angstrom), charge = 0, multiplicity = 1:

       Center              X                  Y                   Z               Mass
    ------------   -----------------  -----------------  -----------------  -----------------
         O            1.683468158355     0.690923332708    -0.454527921496    15.994914619570
         O            0.996101658355    -1.032296867292     0.728692078504    15.994914619570
         N           -1.480328341645    -1.025857867292    -0.486992921496    14.003074004430
         C           -0.731043341645     0.224398132708    -0.418766921496    12.000000000000
         C           -1.270784341645     1.263635132708     0.575582078504    12.000000000000
         C            0.684966658355    -0.117316867292    -0.014847921496    12.000000000000
         H           -0.698608341645     0.669579132708    -1.418560921496     1.007825032230
         H           -0.665558341645     2.174975132708     0.568850078504     1.007825032230
         H           -2.297924341645     1.530875132708     0.309387078504     1.007825032230
         H           -1.271107341645     0.845732132708     1.587090078504     1.007825032230
         H           -2.477409341645    -0.823425867292    -0.541858921496     1.007825032230
         H           -1.320420341645    -1.545145867292     0.375639078504     1.007825032230
         H            2.452149658355     0.497999132708    -0.155659921496     1.007825032230

  Basis Set: AUG-CC-PVTZ
    Blend: AUG-CC-PVTZ
  Basis Set: (AUG-CC-PVTZ AUX)
    Blend: AUG-CC-PVTZ-JKFIT
	 Reference Energy          =    -321.9806443983596864 [Eh]
	 Singles Energy            =      -0.0000000000000000 [Eh]
	 Same-Spin Energy          =      -0.3146138032290787 [Eh]
	 Opposite-Spin Energy      =      -0.9950717473457270 [Eh]
	 Correlation Energy        =      -1.3096855505748057 [Eh]
	 Total Energy              =    -323.2903299489344704 [Eh]

	 ================> DF-SCS-MP2 Energies <==================
	-----------------------------------------------------------
	 SCS Same-Spin Scale       =       0.3333333333333333 [-]
	 SCS Opposite-Spin Scale   =       1.2000000000000000 [-]
	 SCS Same-Spin Energy      =      -0.1048712677430262 [Eh]
	 SCS Opposite-Spin Energy  =      -1.1940860968148723 [Eh]
	 SCS Correlation Energy    =      -1.2989573645578987 [Eh]
	 SCS Total Energy          =    -323.2796017629175935 [Eh]
	-----------------------------------------------------------

  Dipole Moment: [D]
     X:    -1.0717      Y:     2.0993      Z:     0.2342     Total:     2.3687

*** Psi4 exiting successfully. Buy a developer a beer!
