                               Psi4 1.3.2 release

  ==> Input File <==

--------------------------------------------------------------------------
#psi4
#
memory 32 gb

molecule  {
0 1
  O        1.6642950     0.7201020    -0.5160700
  O        1.0775810    -1.0797050     0.7319740
  N       -1.4148612    -1.0643761    -0.4660146
  C       -0.6495640     0.1769900    -0.4154850
  C       -1.1893050     1.2162270     0.5788640
  C        0.7664460    -0.1647250    -0.0115660
  H       -0.6171290     0.6221710    -1.4152790
  H       -0.5840790     2.1275670     0.5721320
  H       -2.2164450     1.4834670     0.3126690
  H       -1.1896280     0.7983240     1.5903720
  H       -2.3959300    -0.8708340    -0.5385770
  H       -1.2389410    -1.5925540     0.3789210
  H        2.5336290     0.4505910    -0.1523780
units angstrom
no_reorient  #important for SAPT in psi4, default
symmetry c1  #important for SAPT in psi4, default
}

set PROPERTIES_ORIGIN ["COM"]
properties('MP2/aug-cc-pvtz', properties = ['dipole'])
--------------------------------------------------------------------------

    Molecular point group: c1
  Charge       = 0
  Multiplicity = 1
  Basis Set: AUG-CC-PVTZ
    Blend: AUG-CC-PVTZ
  Basis Set: (AUG-CC-PVTZ AUX)
    Blend: AUG-CC-PVTZ-JKFIT

    Orbital Energies [Eh]
    ---------------------

    Doubly Occupied:

       1A    -20.621703     2A    -20.555467     3A    -15.547258
       4A    -11.391665     5A    -11.283083     6A    -11.235689
       7A     -1.465151     8A     -1.362091     9A     -1.201004
      10A     -1.024494    11A     -0.913482    12A     -0.793367
      13A     -0.725716    14A     -0.707611    15A     -0.646583
      16A     -0.632285    17A     -0.611676    18A     -0.586086
      19A     -0.576147    20A     -0.545067    21A     -0.521535
      22A     -0.485538    23A     -0.454690    24A     -0.401411

  @DF-RHF Final Energy:  -321.99634565972576

   => Energetics <=

    Nuclear Repulsion Energy =            249.3886377386266702
    One-Electron Energy =                -934.1923734644250317
    Two-Electron Energy =                 362.8073900660725712
    Total Energy =                       -321.9963456597257618
  Basis Set: (AUG-CC-PVTZ AUX)
    Blend: AUG-CC-PVTZ-RI
    Molecular point group: c1

    Geometry (in Angstrom), charge = 0, multiplicity = 1:

       Center              X                  Y                   Z               Mass
    ------------   -----------------  -----------------  -----------------  -----------------
         O            1.603413030424     0.752355495576    -0.510490934213    15.994914619570
         O            1.016699030424    -1.047451504424     0.737553065787    15.994914619570
         N           -1.475743169576    -1.032122604424    -0.460435534213    14.003074004430
         C           -0.710445969576     0.209243495576    -0.409905934213    12.000000000000
         C           -1.250186969576     1.248480495576     0.584443065787    12.000000000000
         C            0.705564030424    -0.132471504424    -0.005986934213    12.000000000000
         H           -0.678010969576     0.654424495576    -1.409699934213     1.007825032230
         H           -0.644960969576     2.159820495576     0.577711065787     1.007825032230
         H           -2.277326969576     1.515720495576     0.318248065787     1.007825032230
         H           -1.250509969576     0.830577495576     1.595951065787     1.007825032230
         H           -2.456811969576    -0.838580504424    -0.532997934213     1.007825032230
         H           -1.299822969576    -1.560300504424     0.384500065787     1.007825032230
         H            2.472747030424     0.482844495576    -0.146798934213     1.007825032230

  Basis Set: AUG-CC-PVTZ
    Blend: AUG-CC-PVTZ
  Basis Set: (AUG-CC-PVTZ AUX)
    Blend: AUG-CC-PVTZ-JKFIT
	 Reference Energy          =    -321.9963456597257618 [Eh]
	 Singles Energy            =      -0.0000000000000000 [Eh]
	 Same-Spin Energy          =      -0.3167787706734507 [Eh]
	 Opposite-Spin Energy      =      -0.9994107096342977 [Eh]
	 Correlation Energy        =      -1.3161894803077483 [Eh]
	 Total Energy              =    -323.3125351400335035 [Eh]

	 ================> DF-SCS-MP2 Energies <==================
	-----------------------------------------------------------
	 SCS Same-Spin Scale       =       0.3333333333333333 [-]
	 SCS Opposite-Spin Scale   =       1.2000000000000000 [-]
	 SCS Same-Spin Energy      =      -0.1055929235578169 [Eh]
	 SCS Opposite-Spin Energy  =      -1.1992928515611572 [Eh]
	 SCS Correlation Energy    =      -1.3048857751189740 [Eh]
	 SCS Total Energy          =    -323.3012314348447376 [Eh]
	-----------------------------------------------------------

  Dipole Moment: [D]
     X:    -0.7326      Y:     2.0127      Z:     0.2431     Total:     2.1556

*** Psi4 exiting successfully. Buy a developer a beer!
