                               Psi4 1.3.2 release

  ==> Input File <==

--------------------------------------------------------------------------
#psi4
#
memory 32 gb

molecule  {
0 1
  O        1.6642950     0.7201020    -0.5160700
  O        1.0775810    -1.0797050     0.7319740
  N       -1.3988490    -1.0732660    -0.4837110
  C       -0.5349643     0.2837627    -0.4518699
  C       -1.1893050     1.2162270     0.5788640
  C        0.7664460    -0.1647250    -0.0115660
  H       -0.6171290     0.6221710    -1.4152790
  H       -0.5840790     2.1275670     0.5721320
  H       -2.2164450     1.4834670     0.3126690
  H       -1.1896280     0.7983240     1.5903720
  H       -2.3959300    -0.8708340    -0.5385770
  H       -1.2389410    -1.5925540     0.3789210
  H        2.5336290     0.4505910    -0.1523780
units angstrom
no_reorient  #important for SAPT in psi4, default
symmetry c1  #important for SAPT in psi4, default
}

set PROPERTIES_ORIGIN ["COM"]
properties('MP2/aug-cc-pvtz', properties = ['dipole'])
--------------------------------------------------------------------------

    Molecular point group: c1
  Charge       = 0
  Multiplicity = 1
  Basis Set: AUG-CC-PVTZ
    Blend: AUG-CC-PVTZ
  Basis Set: (AUG-CC-PVTZ AUX)
    Blend: AUG-CC-PVTZ-JKFIT

    Orbital Energies [Eh]
    ---------------------

    Doubly Occupied:

       1A    -20.620866     2A    -20.560374     3A    -15.545354
       4A    -11.394635     5A    -11.283129     6A    -11.242482
       7A     -1.469419     8A     -1.364894     9A     -1.166201
      10A     -1.032938    11A     -0.929886    12A     -0.796499
      13A     -0.730822    14A     -0.709332    15A     -0.650939
      16A     -0.623722    17A     -0.602532    18A     -0.584713
      19A     -0.562081    20A     -0.552819    21A     -0.515380
      22A     -0.486484    23A     -0.466301    24A     -0.394477

  @DF-RHF Final Energy:  -321.96973432613612

   => Energetics <=

    Nuclear Repulsion Energy =            249.1749809371047775
    One-Electron Energy =                -933.7168666012998983
    Two-Electron Energy =                 362.5721513380589727
    Total Energy =                       -321.9697343261361198
  Basis Set: (AUG-CC-PVTZ AUX)
    Blend: AUG-CC-PVTZ-RI
    Molecular point group: c1

    Geometry (in Angstrom), charge = 0, multiplicity = 1:

       Center              X                  Y                   Z               Mass
    ------------   -----------------  -----------------  -----------------  -----------------
         O            1.585451681525     0.739364854020    -0.502804907912    15.994914619570
         O            0.998737681525    -1.060442145980     0.745239092088    15.994914619570
         N           -1.477692318475    -1.054003145980    -0.470445907912    14.003074004430
         C           -0.613807618475     0.303025554020    -0.438604807912    12.000000000000
         C           -1.268148318475     1.235489854020     0.592129092088    12.000000000000
         C            0.687602681525    -0.145462145980     0.001699092088    12.000000000000
         H           -0.695972318475     0.641433854020    -1.402013907912     1.007825032230
         H           -0.662922318475     2.146829854020     0.585397092088     1.007825032230
         H           -2.295288318475     1.502729854020     0.325934092088     1.007825032230
         H           -1.268471318475     0.817586854020     1.603637092088     1.007825032230
         H           -2.474773318475    -0.851571145980    -0.525311907912     1.007825032230
         H           -1.317784318475    -1.573291145980     0.392186092088     1.007825032230
         H            2.454785681525     0.469853854020    -0.139112907912     1.007825032230

  Basis Set: AUG-CC-PVTZ
    Blend: AUG-CC-PVTZ
  Basis Set: (AUG-CC-PVTZ AUX)
    Blend: AUG-CC-PVTZ-JKFIT
	 Reference Energy          =    -321.9697343261361198 [Eh]
	 Singles Energy            =      -0.0000000000000000 [Eh]
	 Same-Spin Energy          =      -0.3177430577500087 [Eh]
	 Opposite-Spin Energy      =      -1.0028766734371874 [Eh]
	 Correlation Energy        =      -1.3206197311871961 [Eh]
	 Total Energy              =    -323.2903540573233272 [Eh]

	 ================> DF-SCS-MP2 Energies <==================
	-----------------------------------------------------------
	 SCS Same-Spin Scale       =       0.3333333333333333 [-]
	 SCS Opposite-Spin Scale   =       1.2000000000000000 [-]
	 SCS Same-Spin Energy      =      -0.1059143525833362 [Eh]
	 SCS Opposite-Spin Energy  =      -1.2034520081246249 [Eh]
	 SCS Correlation Energy    =      -1.3093663607079611 [Eh]
	 SCS Total Energy          =    -323.2791006868440604 [Eh]
	-----------------------------------------------------------

  Dipole Moment: [D]
     X:    -0.6130      Y:     2.3289      Z:     0.3341     Total:     2.4313

*** Psi4 exiting successfully. Buy a developer a beer!
