                               Psi4 1.3.2 release

  ==> Input File <==

--------------------------------------------------------------------------
#psi4
#
memory 32 gb

molecule  {
0 1
  O        1.6642950     0.7201020    -0.5160700
  O        1.0363735    -1.0896678     0.7357392
  N       -1.3988490    -1.0732660    -0.4837110
  C       -0.6495640     0.1769900    -0.4154850
  C       -1.1893050     1.2162270     0.5788640
  C        0.7664460    -0.1647250    -0.0115660
  H       -0.6171290     0.6221710    -1.4152790
  H       -0.5840790     2.1275670     0.5721320
  H       -2.2164450     1.4834670     0.3126690
  H       -1.1896280     0.7983240     1.5903720
  H       -2.3959300    -0.8708340    -0.5385770
  H       -1.2389410    -1.5925540     0.3789210
  H        2.5336290     0.4505910    -0.1523780
units angstrom
no_reorient  #important for SAPT in psi4, default
symmetry c1  #important for SAPT in psi4, default
}

set PROPERTIES_ORIGIN ["COM"]
properties('MP2/aug-cc-pvtz', properties = ['dipole'])
--------------------------------------------------------------------------

    Molecular point group: c1
  Charge       = 0
  Multiplicity = 1
  Basis Set: AUG-CC-PVTZ
    Blend: AUG-CC-PVTZ
  Basis Set: (AUG-CC-PVTZ AUX)
    Blend: AUG-CC-PVTZ-JKFIT

    Orbital Energies [Eh]
    ---------------------

    Doubly Occupied:

       1A    -20.624879     2A    -20.555913     3A    -15.549312
       4A    -11.391632     5A    -11.280762     6A    -11.235443
       7A     -1.465243     8A     -1.365176     9A     -1.198021
      10A     -1.022569    11A     -0.912804    12A     -0.793249
      13A     -0.723787    14A     -0.708560    15A     -0.646608
      16A     -0.629550    17A     -0.609584    18A     -0.583809
      19A     -0.576180    20A     -0.544175    21A     -0.519713
      22A     -0.486802    23A     -0.453792    24A     -0.403139

  @DF-RHF Final Energy:  -321.99492615117936

   => Energetics <=

    Nuclear Repulsion Energy =            249.5121843396477459
    One-Electron Energy =                -934.4528135713544543
    Two-Electron Energy =                 362.9457030805273234
    Total Energy =                       -321.9949261511793566
  Basis Set: (AUG-CC-PVTZ AUX)
    Blend: AUG-CC-PVTZ-RI
    Molecular point group: c1

    Geometry (in Angstrom), charge = 0, multiplicity = 1:

       Center              X                  Y                   Z               Mass
    ------------   -----------------  -----------------  -----------------  -----------------
         O            1.608296823355     0.755543002178    -0.508384422853    15.994914619570
         O            0.980375323355    -1.054226797822     0.743424777147    15.994914619570
         N           -1.454847176645    -1.037824997822    -0.476025422853    14.003074004430
         C           -0.705562176645     0.212431002178    -0.407799422853    12.000000000000
         C           -1.245303176645     1.251668002178     0.586549577147    12.000000000000
         C            0.710447823355    -0.129283997822    -0.003880422853    12.000000000000
         H           -0.673127176645     0.657612002178    -1.407593422853     1.007825032230
         H           -0.640077176645     2.163008002178     0.579817577147     1.007825032230
         H           -2.272443176645     1.518908002178     0.320354577147     1.007825032230
         H           -1.245626176645     0.833765002178     1.598057577147     1.007825032230
         H           -2.451928176645    -0.835392997822    -0.530891422853     1.007825032230
         H           -1.294939176645    -1.557112997822     0.386606577147     1.007825032230
         H            2.477630823355     0.486032002178    -0.144692422853     1.007825032230

  Basis Set: AUG-CC-PVTZ
    Blend: AUG-CC-PVTZ
  Basis Set: (AUG-CC-PVTZ AUX)
    Blend: AUG-CC-PVTZ-JKFIT
	 Reference Energy          =    -321.9949261511793566 [Eh]
	 Singles Energy            =      -0.0000000000000000 [Eh]
	 Same-Spin Energy          =      -0.3170913566964425 [Eh]
	 Opposite-Spin Energy      =      -1.0002238522147953 [Eh]
	 Correlation Energy        =      -1.3173152089112377 [Eh]
	 Total Energy              =    -323.3122413600905816 [Eh]

	 ================> DF-SCS-MP2 Energies <==================
	-----------------------------------------------------------
	 SCS Same-Spin Scale       =       0.3333333333333333 [-]
	 SCS Opposite-Spin Scale   =       1.2000000000000000 [-]
	 SCS Same-Spin Energy      =      -0.1056971188988141 [Eh]
	 SCS Opposite-Spin Energy  =      -1.2002686226577544 [Eh]
	 SCS Correlation Energy    =      -1.3059657415565684 [Eh]
	 SCS Total Energy          =    -323.3008918927359332 [Eh]
	-----------------------------------------------------------

  Dipole Moment: [D]
     X:    -0.6200      Y:     2.0558      Z:     0.2852     Total:     2.1661

*** Psi4 exiting successfully. Buy a developer a beer!
