                               Psi4 1.3.2 release

  ==> Input File <==

--------------------------------------------------------------------------
#psi4
#
memory 32 gb

molecule  {
0 1
  O        1.6642950     0.7201020    -0.5160700
  O        1.0775810    -1.0797050     0.7319740
  N       -1.3988490    -1.0732660    -0.4837110
  C       -0.6495640     0.1769900    -0.4154850
  C       -1.0946730     1.2117833     0.6290937
  C        0.7664460    -0.1647250    -0.0115660
  H       -0.6171290     0.6221710    -1.4152790
  H       -0.5840790     2.1275670     0.5721320
  H       -2.2164450     1.4834670     0.3126690
  H       -1.1896280     0.7983240     1.5903720
  H       -2.3959300    -0.8708340    -0.5385770
  H       -1.2389410    -1.5925540     0.3789210
  H        2.5336290     0.4505910    -0.1523780
units angstrom
no_reorient  #important for SAPT in psi4, default
symmetry c1  #important for SAPT in psi4, default
}

set PROPERTIES_ORIGIN ["COM"]
properties('MP2/aug-cc-pvtz', properties = ['dipole'])
--------------------------------------------------------------------------

    Molecular point group: c1
  Charge       = 0
  Multiplicity = 1
  Basis Set: AUG-CC-PVTZ
    Blend: AUG-CC-PVTZ
  Basis Set: (AUG-CC-PVTZ AUX)
    Blend: AUG-CC-PVTZ-JKFIT

    Orbital Energies [Eh]
    ---------------------

    Doubly Occupied:

       1A    -20.620654     2A    -20.553400     3A    -15.553062
       4A    -11.389291     5A    -11.284443     6A    -11.239084
       7A     -1.464162     8A     -1.360807     9A     -1.200682
      10A     -1.027895    11A     -0.911634    12A     -0.793529
      13A     -0.724437    14A     -0.706295    15A     -0.645162
      16A     -0.631494    17A     -0.622828    18A     -0.585926
      19A     -0.575967    20A     -0.535529    21A     -0.518983
      22A     -0.484015    23A     -0.448398    24A     -0.407954

  @DF-RHF Final Energy:  -321.98437395710891

   => Energetics <=

    Nuclear Repulsion Energy =            249.7641529154433613
    One-Electron Energy =                -934.9257873199688902
    Two-Electron Energy =                 363.1772604474166428
    Total Energy =                       -321.9843739571089145
  Basis Set: (AUG-CC-PVTZ AUX)
    Blend: AUG-CC-PVTZ-RI
    Molecular point group: c1

    Geometry (in Angstrom), charge = 0, multiplicity = 1:

       Center              X                  Y                   Z               Mass
    ------------   -----------------  -----------------  -----------------  -----------------
         O            1.588142514168     0.754352294714    -0.514477028037    15.994914619570
         O            1.001428514168    -1.045454705286     0.733566971963    15.994914619570
         N           -1.475001485832    -1.039015705286    -0.482118028037    14.003074004430
         C           -0.725716485832     0.211240294714    -0.413892028037    12.000000000000
         C           -1.170825485832     1.246033594714     0.630686671963    12.000000000000
         C            0.690293514168    -0.130474705286    -0.009973028037    12.000000000000
         H           -0.693281485832     0.656421294714    -1.413686028037     1.007825032230
         H           -0.660231485832     2.161817294714     0.573724971963     1.007825032230
         H           -2.292597485832     1.517717294714     0.314261971963     1.007825032230
         H           -1.265780485832     0.832574294714     1.591964971963     1.007825032230
         H           -2.472082485832    -0.836583705286    -0.536984028037     1.007825032230
         H           -1.315093485832    -1.558303705286     0.380513971963     1.007825032230
         H            2.457476514168     0.484841294714    -0.150785028037     1.007825032230

  Basis Set: AUG-CC-PVTZ
    Blend: AUG-CC-PVTZ
  Basis Set: (AUG-CC-PVTZ AUX)
    Blend: AUG-CC-PVTZ-JKFIT
	 Reference Energy          =    -321.9843739571089145 [Eh]
	 Singles Energy            =      -0.0000000000000000 [Eh]
	 Same-Spin Energy          =      -0.3172901866832640 [Eh]
	 Opposite-Spin Energy      =      -1.0005737465006042 [Eh]
	 Correlation Energy        =      -1.3178639331838682 [Eh]
	 Total Energy              =    -323.3022378902927585 [Eh]

	 ================> DF-SCS-MP2 Energies <==================
	-----------------------------------------------------------
	 SCS Same-Spin Scale       =       0.3333333333333333 [-]
	 SCS Opposite-Spin Scale   =       1.2000000000000000 [-]
	 SCS Same-Spin Energy      =      -0.1057633955610880 [Eh]
	 SCS Opposite-Spin Energy  =      -1.2006884958007249 [Eh]
	 SCS Correlation Energy    =      -1.3064518913618128 [Eh]
	 SCS Total Energy          =    -323.2908258484707176 [Eh]
	-----------------------------------------------------------

  Dipole Moment: [D]
     X:    -0.7565      Y:     2.0299      Z:     0.2853     Total:     2.1850

*** Psi4 exiting successfully. Buy a developer a beer!
