                               Psi4 1.3.2 release

  ==> Input File <==

--------------------------------------------------------------------------
#psi4
#
memory 32 gb

molecule  {
0 1
  O        1.6642950     0.7201020    -0.5160700
  O        1.0775810    -1.0797050     0.7319740
  N       -1.3988490    -1.0732660    -0.4837110
  C       -0.6495640     0.1769900    -0.4154850
  C       -1.1541713     1.1485793     0.5141383
  C        0.7664460    -0.1647250    -0.0115660
  H       -0.6171290     0.6221710    -1.4152790
  H       -0.5840790     2.1275670     0.5721320
  H       -2.2164450     1.4834670     0.3126690
  H       -1.1896280     0.7983240     1.5903720
  H       -2.3959300    -0.8708340    -0.5385770
  H       -1.2389410    -1.5925540     0.3789210
  H        2.5336290     0.4505910    -0.1523780
units angstrom
no_reorient  #important for SAPT in psi4, default
symmetry c1  #important for SAPT in psi4, default
}

set PROPERTIES_ORIGIN ["COM"]
properties('MP2/aug-cc-pvtz', properties = ['dipole'])
--------------------------------------------------------------------------

    Molecular point group: c1
  Charge       = 0
  Multiplicity = 1
  Basis Set: AUG-CC-PVTZ
    Blend: AUG-CC-PVTZ
  Basis Set: (AUG-CC-PVTZ AUX)
    Blend: AUG-CC-PVTZ-JKFIT

    Orbital Energies [Eh]
    ---------------------

    Doubly Occupied:

       1A    -20.622092     2A    -20.556296     3A    -15.550461
       4A    -11.392312     5A    -11.278946     6A    -11.241446
       7A     -1.465861     8A     -1.362763     9A     -1.206426
      10A     -1.036787    11A     -0.908024    12A     -0.793543
      13A     -0.727761    14A     -0.708343    15A     -0.652524
      16A     -0.630585    17A     -0.611019    18A     -0.594972
      19A     -0.579941    20A     -0.532599    21A     -0.504956
      22A     -0.485948    23A     -0.452107    24A     -0.410026

  @DF-RHF Final Energy:  -321.98441981630367

   => Energetics <=

    Nuclear Repulsion Energy =            250.9313248541061228
    One-Electron Energy =                -937.2200113698803534
    Two-Electron Energy =                 364.3042666994705314
    Total Energy =                       -321.9844198163036708
  Basis Set: (AUG-CC-PVTZ AUX)
    Blend: AUG-CC-PVTZ-RI
    Molecular point group: c1

    Geometry (in Angstrom), charge = 0, multiplicity = 1:

       Center              X                  Y                   Z               Mass
    ------------   -----------------  -----------------  -----------------  -----------------
         O            1.596160461545     0.762869619512    -0.498985722439    15.994914619570
         O            1.009446461545    -1.036937380488     0.749058277561    15.994914619570
         N           -1.466983538455    -1.030498380488    -0.466626722439    14.003074004430
         C           -0.717698538455     0.219757619512    -0.398400722439    12.000000000000
         C           -1.222305838455     1.191346919512     0.531222577561    12.000000000000
         C            0.698311461545    -0.121957380488     0.005518277561    12.000000000000
         H           -0.685263538455     0.664938619512    -1.398194722439     1.007825032230
         H           -0.652213538455     2.170334619512     0.589216277561     1.007825032230
         H           -2.284579538455     1.526234619512     0.329753277561     1.007825032230
         H           -1.257762538455     0.841091619512     1.607456277561     1.007825032230
         H           -2.464064538455    -0.828066380488    -0.521492722439     1.007825032230
         H           -1.307075538455    -1.549786380488     0.396005277561     1.007825032230
         H            2.465494461545     0.493358619512    -0.135293722439     1.007825032230

  Basis Set: AUG-CC-PVTZ
    Blend: AUG-CC-PVTZ
  Basis Set: (AUG-CC-PVTZ AUX)
    Blend: AUG-CC-PVTZ-JKFIT
	 Reference Energy          =    -321.9844198163036708 [Eh]
	 Singles Energy            =      -0.0000000000000000 [Eh]
	 Same-Spin Energy          =      -0.3179227769765914 [Eh]
	 Opposite-Spin Energy      =      -1.0011360418745261 [Eh]
	 Correlation Energy        =      -1.3190588188511174 [Eh]
	 Total Energy              =    -323.3034786351547609 [Eh]

	 ================> DF-SCS-MP2 Energies <==================
	-----------------------------------------------------------
	 SCS Same-Spin Scale       =       0.3333333333333333 [-]
	 SCS Opposite-Spin Scale   =       1.2000000000000000 [-]
	 SCS Same-Spin Energy      =      -0.1059742589921971 [Eh]
	 SCS Opposite-Spin Energy  =      -1.2013632502494314 [Eh]
	 SCS Correlation Energy    =      -1.3073375092416284 [Eh]
	 SCS Total Energy          =    -323.2917573255452908 [Eh]
	-----------------------------------------------------------

  Dipole Moment: [D]
     X:    -0.7175      Y:     2.0698      Z:     0.3066     Total:     2.2120

*** Psi4 exiting successfully. Buy a developer a beer!
