                               Psi4 1.3.2 release

  ==> Input File <==

--------------------------------------------------------------------------
#psi4
#
memory 32 gb

molecule  {
0 1
  O        1.6642950     0.7201020    -0.5160700
  O        1.0775810    -1.0797050     0.7319740
  N       -1.3988490    -1.0732660    -0.4837110
  C       -0.6495640     0.1769900    -0.4154850
  C       -1.1938002     1.2511796     0.5384476
  C        0.7664460    -0.1647250    -0.0115660
  H       -0.6171290     0.6221710    -1.4152790
  H       -0.5840790     2.1275670     0.5721320
  H       -2.2164450     1.4834670     0.3126690
  H       -1.1896280     0.7983240     1.5903720
  H       -2.3959300    -0.8708340    -0.5385770
  H       -1.2389410    -1.5925540     0.3789210
  H        2.5336290     0.4505910    -0.1523780
units angstrom
no_reorient  #important for SAPT in psi4, default
symmetry c1  #important for SAPT in psi4, default
}

set PROPERTIES_ORIGIN ["COM"]
properties('MP2/aug-cc-pvtz', properties = ['dipole'])
--------------------------------------------------------------------------

    Molecular point group: c1
  Charge       = 0
  Multiplicity = 1
  Basis Set: AUG-CC-PVTZ
    Blend: AUG-CC-PVTZ
  Basis Set: (AUG-CC-PVTZ AUX)
    Blend: AUG-CC-PVTZ-JKFIT

    Orbital Energies [Eh]
    ---------------------

    Doubly Occupied:

       1A    -20.621652     2A    -20.555586     3A    -15.551866
       4A    -11.391735     5A    -11.283009     6A    -11.236964
       7A     -1.465120     8A     -1.362092     9A     -1.199960
      10A     -1.024519    11A     -0.913824    12A     -0.792776
      13A     -0.723624    14A     -0.707502    15A     -0.647136
      16A     -0.629309    17A     -0.613259    18A     -0.584848
      19A     -0.577752    20A     -0.549846    21A     -0.509523
      22A     -0.485553    23A     -0.455135    24A     -0.405563

  @DF-RHF Final Energy:  -321.99257532414026

   => Energetics <=

    Nuclear Repulsion Energy =            249.1629115614383352
    One-Electron Energy =                -933.7346717346414380
    Two-Electron Energy =                 362.5791848490628126
    Total Energy =                       -321.9925753241402617
  Basis Set: (AUG-CC-PVTZ AUX)
    Blend: AUG-CC-PVTZ-RI
    Molecular point group: c1

    Geometry (in Angstrom), charge = 0, multiplicity = 1:

       Center              X                  Y                   Z               Mass
    ------------   -----------------  -----------------  -----------------  -----------------
         O            1.601500823115     0.749043278150    -0.502261625921    15.994914619570
         O            1.014786823115    -1.050763721850     0.745782374079    15.994914619570
         N           -1.461643176885    -1.044324721850    -0.469902625921    14.003074004430
         C           -0.712358176885     0.205931278150    -0.401676625921    12.000000000000
         C           -1.256594376885     1.280120878150     0.552255974079    12.000000000000
         C            0.703651823115    -0.135783721850     0.002242374079    12.000000000000
         H           -0.679923176885     0.651112278150    -1.401470625921     1.007825032230
         H           -0.646873176885     2.156508278150     0.585940374079     1.007825032230
         H           -2.279239176885     1.512408278150     0.326477374079     1.007825032230
         H           -1.252422176885     0.827265278150     1.604180374079     1.007825032230
         H           -2.458724176885    -0.841892721850    -0.524768625921     1.007825032230
         H           -1.301735176885    -1.563612721850     0.392729374079     1.007825032230
         H            2.470834823115     0.479532278150    -0.138569625921     1.007825032230

  Basis Set: AUG-CC-PVTZ
    Blend: AUG-CC-PVTZ
  Basis Set: (AUG-CC-PVTZ AUX)
    Blend: AUG-CC-PVTZ-JKFIT
	 Reference Energy          =    -321.9925753241402617 [Eh]
	 Singles Energy            =      -0.0000000000000000 [Eh]
	 Same-Spin Energy          =      -0.3169819863273605 [Eh]
	 Opposite-Spin Energy      =      -1.0001028920429837 [Eh]
	 Correlation Energy        =      -1.3170848783703444 [Eh]
	 Total Energy              =    -323.3096602025105994 [Eh]

	 ================> DF-SCS-MP2 Energies <==================
	-----------------------------------------------------------
	 SCS Same-Spin Scale       =       0.3333333333333333 [-]
	 SCS Opposite-Spin Scale   =       1.2000000000000000 [-]
	 SCS Same-Spin Energy      =      -0.1056606621091202 [Eh]
	 SCS Opposite-Spin Energy  =      -1.2001234704515804 [Eh]
	 SCS Correlation Energy    =      -1.3057841325607007 [Eh]
	 SCS Total Energy          =    -323.2983594567009504 [Eh]
	-----------------------------------------------------------

  Dipole Moment: [D]
     X:    -0.7557      Y:     2.0420      Z:     0.2626     Total:     2.1931

*** Psi4 exiting successfully. Buy a developer a beer!
