                               Psi4 1.3.2 release

  ==> Input File <==

--------------------------------------------------------------------------
#psi4
#
memory 32 gb

molecule  {
0 1
  O        1.6642950     0.7201020    -0.5160700
  O        1.0775810    -1.0797050     0.7319740
  N       -1.3988490    -1.0732660    -0.4837110
  C       -0.6495640     0.1769900    -0.4154850
  C       -1.1868104     1.1982732     0.5986209
  C        0.7664460    -0.1647250    -0.0115660
  H       -0.6171290     0.6221710    -1.4152790
  H       -0.5840790     2.1275670     0.5721320
  H       -2.2164450     1.4834670     0.3126690
  H       -1.1896280     0.7983240     1.5903720
  H       -2.3959300    -0.8708340    -0.5385770
  H       -1.2389410    -1.5925540     0.3789210
  H        2.5336290     0.4505910    -0.1523780
units angstrom
no_reorient  #important for SAPT in psi4, default
symmetry c1  #important for SAPT in psi4, default
}

set PROPERTIES_ORIGIN ["COM"]
properties('MP2/aug-cc-pvtz', properties = ['dipole'])
--------------------------------------------------------------------------

    Molecular point group: c1
  Charge       = 0
  Multiplicity = 1
  Basis Set: AUG-CC-PVTZ
    Blend: AUG-CC-PVTZ
  Basis Set: (AUG-CC-PVTZ AUX)
    Blend: AUG-CC-PVTZ-JKFIT

    Orbital Energies [Eh]
    ---------------------

    Doubly Occupied:

       1A    -20.621362     2A    -20.555083     3A    -15.550591
       4A    -11.391082     5A    -11.283093     6A    -11.236601
       7A     -1.464853     8A     -1.361806     9A     -1.200069
      10A     -1.023663    11A     -0.913511    12A     -0.792846
      13A     -0.724570    14A     -0.707013    15A     -0.645674
      16A     -0.628961    17A     -0.610585    18A     -0.584111
      19A     -0.577587    20A     -0.541584    21A     -0.524654
      22A     -0.485217    23A     -0.454024    24A     -0.404127

  @DF-RHF Final Energy:  -321.99490784240305

   => Energetics <=

    Nuclear Repulsion Energy =            249.4019794081447401
    One-Electron Energy =                -934.2284454945533980
    Two-Electron Energy =                 362.8315582440056346
    Total Energy =                       -321.9949078424030517
  Basis Set: (AUG-CC-PVTZ AUX)
    Blend: AUG-CC-PVTZ-RI
    Molecular point group: c1

    Geometry (in Angstrom), charge = 0, multiplicity = 1:

       Center              X                  Y                   Z               Mass
    ------------   -----------------  -----------------  -----------------  -----------------
         O            1.600558882781     0.756172905906    -0.510370535804    15.994914619570
         O            1.013844882781    -1.043634094094     0.737673464196    15.994914619570
         N           -1.462585117219    -1.037195094094    -0.478011535804    14.003074004430
         C           -0.713300117219     0.213060905906    -0.409785535804    12.000000000000
         C           -1.250546517219     1.234344105906     0.604320364196    12.000000000000
         C            0.702709882781    -0.128654094094    -0.005866535804    12.000000000000
         H           -0.680865117219     0.658241905906    -1.409579535804     1.007825032230
         H           -0.647815117219     2.163637905906     0.577831464196     1.007825032230
         H           -2.280181117219     1.519537905906     0.318368464196     1.007825032230
         H           -1.253364117219     0.834394905906     1.596071464196     1.007825032230
         H           -2.459666117219    -0.834763094094    -0.532877535804     1.007825032230
         H           -1.302677117219    -1.556483094094     0.384620464196     1.007825032230
         H            2.469892882781     0.486661905906    -0.146678535804     1.007825032230

  Basis Set: AUG-CC-PVTZ
    Blend: AUG-CC-PVTZ
  Basis Set: (AUG-CC-PVTZ AUX)
    Blend: AUG-CC-PVTZ-JKFIT
	 Reference Energy          =    -321.9949078424030517 [Eh]
	 Singles Energy            =      -0.0000000000000000 [Eh]
	 Same-Spin Energy          =      -0.3169496784230185 [Eh]
	 Opposite-Spin Energy      =      -0.9999712720720916 [Eh]
	 Correlation Energy        =      -1.3169209504951100 [Eh]
	 Total Energy              =    -323.3118287928981545 [Eh]

	 ================> DF-SCS-MP2 Energies <==================
	-----------------------------------------------------------
	 SCS Same-Spin Scale       =       0.3333333333333333 [-]
	 SCS Opposite-Spin Scale   =       1.2000000000000000 [-]
	 SCS Same-Spin Energy      =      -0.1056498928076728 [Eh]
	 SCS Opposite-Spin Energy  =      -1.1999655264865099 [Eh]
	 SCS Correlation Energy    =      -1.3056154192941827 [Eh]
	 SCS Total Energy          =    -323.3005232616972080 [Eh]
	-----------------------------------------------------------

  Dipole Moment: [D]
     X:    -0.7566      Y:     2.0416      Z:     0.2921     Total:     2.1968

*** Psi4 exiting successfully. Buy a developer a beer!
