                               Psi4 1.3.2 release

  ==> Input File <==

--------------------------------------------------------------------------
#psi4
#
memory 32 gb

molecule  {
0 1
  O        1.6642950     0.7201020    -0.5160700
  O        1.0775810    -1.0797050     0.7319740
  N       -1.2695902    -1.1436315    -0.4428568
  C       -0.6495640     0.1769900    -0.4154850
  C       -1.1893050     1.2162270     0.5788640
  C        0.7664460    -0.1647250    -0.0115660
  H       -0.6171290     0.6221710    -1.4152790
  H       -0.5840790     2.1275670     0.5721320
  H       -2.2164450     1.4834670     0.3126690
  H       -1.1896280     0.7983240     1.5903720
  H       -2.3959300    -0.8708340    -0.5385770
  H       -1.2389410    -1.5925540     0.3789210
  H        2.5336290     0.4505910    -0.1523780
units angstrom
no_reorient  #important for SAPT in psi4, default
symmetry c1  #important for SAPT in psi4, default
}

set PROPERTIES_ORIGIN ["COM"]
properties('MP2/aug-cc-pvtz', properties = ['dipole'])
--------------------------------------------------------------------------

    Molecular point group: c1
  Charge       = 0
  Multiplicity = 1
  Basis Set: AUG-CC-PVTZ
    Blend: AUG-CC-PVTZ
  Basis Set: (AUG-CC-PVTZ AUX)
    Blend: AUG-CC-PVTZ-JKFIT

    Orbital Energies [Eh]
    ---------------------

    Doubly Occupied:

       1A    -20.618912     2A    -20.552458     3A    -15.559954
       4A    -11.387538     5A    -11.284898     6A    -11.238986
       7A     -1.462855     8A     -1.360100     9A     -1.202490
      10A     -1.025608    11A     -0.913357    12A     -0.795319
      13A     -0.720232    14A     -0.707355    15A     -0.644429
      16A     -0.624497    17A     -0.613056    18A     -0.589114
      19A     -0.565624    20A     -0.528162    21A     -0.526561
      22A     -0.482444    23A     -0.451439    24A     -0.413979

  @DF-RHF Final Energy:  -321.96877694719382

   => Energetics <=

    Nuclear Repulsion Energy =            250.0955187650457674
    One-Electron Energy =                -935.5898577809813332
    Two-Electron Energy =                 363.5255620687417490
    Total Energy =                       -321.9687769471938168
  Basis Set: (AUG-CC-PVTZ AUX)
    Blend: AUG-CC-PVTZ-RI
    Molecular point group: c1

    Geometry (in Angstrom), charge = 0, multiplicity = 1:

       Center              X                  Y                   Z               Mass
    ------------   -----------------  -----------------  -----------------  -----------------
         O            1.580568632920     0.764818697880    -0.514132583190    15.994914619570
         O            0.993854632920    -1.034988302120     0.733911416810    15.994914619570
         N           -1.353316567080    -1.098914802120    -0.440919383190    14.003074004430
         C           -0.733290367080     0.221706697880    -0.413547583190    12.000000000000
         C           -1.273031367080     1.260943697880     0.580801416810    12.000000000000
         C            0.682719632920    -0.120008302120    -0.009628583190    12.000000000000
         H           -0.700855367080     0.666887697880    -1.413341583190     1.007825032230
         H           -0.667805367080     2.172283697880     0.574069416810     1.007825032230
         H           -2.300171367080     1.528183697880     0.314606416810     1.007825032230
         H           -1.273354367080     0.843040697880     1.592309416810     1.007825032230
         H           -2.479656367080    -0.826117302120    -0.536639583190     1.007825032230
         H           -1.322667367080    -1.547837302120     0.380858416810     1.007825032230
         H            2.449902632920     0.495307697880    -0.150440583190     1.007825032230

  Basis Set: AUG-CC-PVTZ
    Blend: AUG-CC-PVTZ
  Basis Set: (AUG-CC-PVTZ AUX)
    Blend: AUG-CC-PVTZ-JKFIT
	 Reference Energy          =    -321.9687769471938168 [Eh]
	 Singles Energy            =      -0.0000000000000000 [Eh]
	 Same-Spin Energy          =      -0.3176502811446942 [Eh]
	 Opposite-Spin Energy      =      -1.0022756802196504 [Eh]
	 Correlation Energy        =      -1.3199259613643446 [Eh]
	 Total Energy              =    -323.2887029085581503 [Eh]

	 ================> DF-SCS-MP2 Energies <==================
	-----------------------------------------------------------
	 SCS Same-Spin Scale       =       0.3333333333333333 [-]
	 SCS Opposite-Spin Scale   =       1.2000000000000000 [-]
	 SCS Same-Spin Energy      =      -0.1058834270482314 [Eh]
	 SCS Opposite-Spin Energy  =      -1.2027308162635804 [Eh]
	 SCS Correlation Energy    =      -1.3086142433118118 [Eh]
	 SCS Total Energy          =    -323.2773911905056252 [Eh]
	-----------------------------------------------------------

  Dipole Moment: [D]
     X:    -0.9075      Y:     2.1702      Z:     0.2772     Total:     2.3685

*** Psi4 exiting successfully. Buy a developer a beer!
