                               Psi4 1.3.2 release

  ==> Input File <==

--------------------------------------------------------------------------
#psi4
#
memory 32 gb

molecule  {
0 1
  O        1.6642950     0.7201020    -0.5160700
  O        1.0775810    -1.0797050     0.7319740
  N       -1.4614799    -1.0354491    -0.4128547
  C       -0.6495640     0.1769900    -0.4154850
  C       -1.1893050     1.2162270     0.5788640
  C        0.7664460    -0.1647250    -0.0115660
  H       -0.6171290     0.6221710    -1.4152790
  H       -0.5840790     2.1275670     0.5721320
  H       -2.2164450     1.4834670     0.3126690
  H       -1.1896280     0.7983240     1.5903720
  H       -2.3959300    -0.8708340    -0.5385770
  H       -1.2389410    -1.5925540     0.3789210
  H        2.5336290     0.4505910    -0.1523780
units angstrom
no_reorient  #important for SAPT in psi4, default
symmetry c1  #important for SAPT in psi4, default
}

set PROPERTIES_ORIGIN ["COM"]
properties('MP2/aug-cc-pvtz', properties = ['dipole'])
--------------------------------------------------------------------------

    Molecular point group: c1
  Charge       = 0
  Multiplicity = 1
  Basis Set: AUG-CC-PVTZ
    Blend: AUG-CC-PVTZ
  Basis Set: (AUG-CC-PVTZ AUX)
    Blend: AUG-CC-PVTZ-JKFIT

    Orbital Energies [Eh]
    ---------------------

    Doubly Occupied:

       1A    -20.622495     2A    -20.556178     3A    -15.537090
       4A    -11.392870     5A    -11.283586     6A    -11.233286
       7A     -1.465854     8A     -1.362742     9A     -1.203995
      10A     -1.026272    11A     -0.913373    12A     -0.795195
      13A     -0.731406    14A     -0.708908    15A     -0.651128
      16A     -0.639697    17A     -0.615002    18A     -0.590435
      19A     -0.571093    20A     -0.546148    21A     -0.522926
      22A     -0.486159    23A     -0.455315    24A     -0.392145

  @DF-RHF Final Energy:  -321.99375932469638

   => Energetics <=

    Nuclear Repulsion Energy =            249.5996634115315658
    One-Electron Energy =                -934.5802473416407565
    Two-Electron Energy =                 362.9868246054128349
    Total Energy =                       -321.9937593246963843
  Basis Set: (AUG-CC-PVTZ AUX)
    Blend: AUG-CC-PVTZ-RI
    Molecular point group: c1

    Geometry (in Angstrom), charge = 0, multiplicity = 1:

       Center              X                  Y                   Z               Mass
    ------------   -----------------  -----------------  -----------------  -----------------
         O            1.610743991964     0.747806618742    -0.518850523442    15.994914619570
         O            1.024029991964    -1.052000381258     0.729193476558    15.994914619570
         N           -1.515030908036    -1.007744481258    -0.415635223442    14.003074004430
         C           -0.703115008036     0.204694618742    -0.418265523442    12.000000000000
         C           -1.242856008036     1.243931618742     0.576083476558    12.000000000000
         C            0.712894991964    -0.137020381258    -0.014346523442    12.000000000000
         H           -0.670680008036     0.649875618742    -1.418059523442     1.007825032230
         H           -0.637630008036     2.155271618742     0.569351476558     1.007825032230
         H           -2.269996008036     1.511171618742     0.309888476558     1.007825032230
         H           -1.243179008036     0.826028618742     1.587591476558     1.007825032230
         H           -2.449481008036    -0.843129381258    -0.541357523442     1.007825032230
         H           -1.292492008036    -1.564849381258     0.376140476558     1.007825032230
         H            2.480077991964     0.478295618742    -0.155158523442     1.007825032230

  Basis Set: AUG-CC-PVTZ
    Blend: AUG-CC-PVTZ
  Basis Set: (AUG-CC-PVTZ AUX)
    Blend: AUG-CC-PVTZ-JKFIT
	 Reference Energy          =    -321.9937593246963843 [Eh]
	 Singles Energy            =      -0.0000000000000000 [Eh]
	 Same-Spin Energy          =      -0.3164799593529859 [Eh]
	 Opposite-Spin Energy      =      -0.9982323241014409 [Eh]
	 Correlation Energy        =      -1.3147122834544267 [Eh]
	 Total Energy              =    -323.3084716081507963 [Eh]

	 ================> DF-SCS-MP2 Energies <==================
	-----------------------------------------------------------
	 SCS Same-Spin Scale       =       0.3333333333333333 [-]
	 SCS Opposite-Spin Scale   =       1.2000000000000000 [-]
	 SCS Same-Spin Energy      =      -0.1054933197843286 [Eh]
	 SCS Opposite-Spin Energy  =      -1.1978787889217291 [Eh]
	 SCS Correlation Energy    =      -1.3033721087060577 [Eh]
	 SCS Total Energy          =    -323.2971314334024555 [Eh]
	-----------------------------------------------------------

  Dipole Moment: [D]
     X:    -0.6503      Y:     1.9079      Z:     0.1024     Total:     2.0183

*** Psi4 exiting successfully. Buy a developer a beer!
