                               Psi4 1.3.2 release

  ==> Input File <==

--------------------------------------------------------------------------
#psi4
#
memory 32 gb

molecule  {
0 1
  O        1.6642950     0.7201020    -0.5160700
  O        1.0775810    -1.0797050     0.7319740
  N       -1.3988490    -1.0732660    -0.4837110
  C       -0.6936159     0.2024680    -0.4175907
  C       -1.1893050     1.2162270     0.5788640
  C        0.7664460    -0.1647250    -0.0115660
  H       -0.6171290     0.6221710    -1.4152790
  H       -0.5840790     2.1275670     0.5721320
  H       -2.2164450     1.4834670     0.3126690
  H       -1.1896280     0.7983240     1.5903720
  H       -2.3959300    -0.8708340    -0.5385770
  H       -1.2389410    -1.5925540     0.3789210
  H        2.5336290     0.4505910    -0.1523780
units angstrom
no_reorient  #important for SAPT in psi4, default
symmetry c1  #important for SAPT in psi4, default
}

set PROPERTIES_ORIGIN ["COM"]
properties('MP2/aug-cc-pvtz', properties = ['dipole'])
--------------------------------------------------------------------------

    Molecular point group: c1
  Charge       = 0
  Multiplicity = 1
  Basis Set: AUG-CC-PVTZ
    Blend: AUG-CC-PVTZ
  Basis Set: (AUG-CC-PVTZ AUX)
    Blend: AUG-CC-PVTZ-JKFIT

    Orbital Energies [Eh]
    ---------------------

    Doubly Occupied:

       1A    -20.620767     2A    -20.554745     3A    -15.551553
       4A    -11.390816     5A    -11.283944     6A    -11.234864
       7A     -1.463157     8A     -1.360562     9A     -1.200796
      10A     -1.026105    11A     -0.906288    12A     -0.793485
      13A     -0.720896    14A     -0.706542    15A     -0.643741
      16A     -0.628348    17A     -0.615168    18A     -0.585248
      19A     -0.581723    20A     -0.538314    21A     -0.523221
      22A     -0.484988    23A     -0.447440    24A     -0.408936

  @DF-RHF Final Energy:  -321.99301540725747

   => Energetics <=

    Nuclear Repulsion Energy =            248.9098661341591310
    One-Electron Energy =                -933.2624692341325954
    Two-Electron Energy =                 362.3595876927160475
    Total Energy =                       -321.9930154072574737
  Basis Set: (AUG-CC-PVTZ AUX)
    Blend: AUG-CC-PVTZ-RI
    Molecular point group: c1

    Geometry (in Angstrom), charge = 0, multiplicity = 1:

       Center              X                  Y                   Z               Mass
    ------------   -----------------  -----------------  -----------------  -----------------
         O            1.606831455066     0.750320068314    -0.507424347824    15.994914619570
         O            1.020117455066    -1.049486931686     0.740619652176    15.994914619570
         N           -1.456312544934    -1.043047931686    -0.475065347824    14.003074004430
         C           -0.751079444934     0.232686068314    -0.408945047824    12.000000000000
         C           -1.246768544934     1.246445068314     0.587509652176    12.000000000000
         C            0.708982455066    -0.134506931686    -0.002920347824    12.000000000000
         H           -0.674592544934     0.652389068314    -1.406633347824     1.007825032230
         H           -0.641542544934     2.157785068314     0.580777652176     1.007825032230
         H           -2.273908544934     1.513685068314     0.321314652176     1.007825032230
         H           -1.247091544934     0.828542068314     1.599017652176     1.007825032230
         H           -2.453393544934    -0.840615931686    -0.529931347824     1.007825032230
         H           -1.296404544934    -1.562335931686     0.387566652176     1.007825032230
         H            2.476165455066     0.480809068314    -0.143732347824     1.007825032230

  Basis Set: AUG-CC-PVTZ
    Blend: AUG-CC-PVTZ
  Basis Set: (AUG-CC-PVTZ AUX)
    Blend: AUG-CC-PVTZ-JKFIT
	 Reference Energy          =    -321.9930154072574737 [Eh]
	 Singles Energy            =      -0.0000000000000000 [Eh]
	 Same-Spin Energy          =      -0.3170077553741711 [Eh]
	 Opposite-Spin Energy      =      -1.0001025931106324 [Eh]
	 Correlation Energy        =      -1.3171103484848035 [Eh]
	 Total Energy              =    -323.3101257557422628 [Eh]

	 ================> DF-SCS-MP2 Energies <==================
	-----------------------------------------------------------
	 SCS Same-Spin Scale       =       0.3333333333333333 [-]
	 SCS Opposite-Spin Scale   =       1.2000000000000000 [-]
	 SCS Same-Spin Energy      =      -0.1056692517913904 [Eh]
	 SCS Opposite-Spin Energy  =      -1.2001231117327589 [Eh]
	 SCS Correlation Energy    =      -1.3057923635241493 [Eh]
	 SCS Total Energy          =    -323.2988077707816501 [Eh]
	-----------------------------------------------------------

  Dipole Moment: [D]
     X:    -0.7507      Y:     2.0481      Z:     0.3064     Total:     2.2027

*** Psi4 exiting successfully. Buy a developer a beer!
