                               Psi4 1.3.2 release

  ==> Input File <==

--------------------------------------------------------------------------
#psi4
#
memory 32 gb

molecule  {
0 1
  O        1.6642950     0.7201020    -0.5160700
  O        1.0775810    -1.0797050     0.7319740
  N       -1.3988490    -1.0732660    -0.4837110
  C       -0.6495640     0.1769900    -0.4154850
  C       -1.0465145     1.2076686     0.6523145
  C        0.7664460    -0.1647250    -0.0115660
  H       -0.6171290     0.6221710    -1.4152790
  H       -0.5840790     2.1275670     0.5721320
  H       -2.2164450     1.4834670     0.3126690
  H       -1.1896280     0.7983240     1.5903720
  H       -2.3959300    -0.8708340    -0.5385770
  H       -1.2389410    -1.5925540     0.3789210
  H        2.5336290     0.4505910    -0.1523780
units angstrom
no_reorient  #important for SAPT in psi4, default
symmetry c1  #important for SAPT in psi4, default
}

set PROPERTIES_ORIGIN ["COM"]
properties('MP2/aug-cc-pvtz', properties = ['dipole'])
--------------------------------------------------------------------------

    Molecular point group: c1
  Charge       = 0
  Multiplicity = 1
  Basis Set: AUG-CC-PVTZ
    Blend: AUG-CC-PVTZ
  Basis Set: (AUG-CC-PVTZ AUX)
    Blend: AUG-CC-PVTZ-JKFIT

    Orbital Energies [Eh]
    ---------------------

    Doubly Occupied:

       1A    -20.620427     2A    -20.552658     3A    -15.554216
       4A    -11.388614     5A    -11.285804     6A    -11.241838
       7A     -1.463993     8A     -1.360466     9A     -1.201305
      10A     -1.030443    11A     -0.911557    12A     -0.794195
      13A     -0.724884    14A     -0.706037    15A     -0.646040
      16A     -0.637193    17A     -0.625840    18A     -0.588603
      19A     -0.574087    20A     -0.540868    21A     -0.506946
      22A     -0.483048    23A     -0.443783    24A     -0.409377

  @DF-RHF Final Energy:  -321.97189159321340

   => Energetics <=

    Nuclear Repulsion Energy =            250.0054228342327178
    One-Electron Energy =                -935.3701850767085944
    Two-Electron Energy =                 363.3928706492624769
    Total Energy =                       -321.9718915932133996
  Basis Set: (AUG-CC-PVTZ AUX)
    Blend: AUG-CC-PVTZ-RI
    Molecular point group: c1

    Geometry (in Angstrom), charge = 0, multiplicity = 1:

       Center              X                  Y                   Z               Mass
    ------------   -----------------  -----------------  -----------------  -----------------
         O            1.581652709943     0.754906788676    -0.517606246056    15.994914619570
         O            0.994938709943    -1.044900211324     0.730437753944    15.994914619570
         N           -1.481491290057    -1.038461211324    -0.485247246056    14.003074004430
         C           -0.732206290057     0.211794788676    -0.417021246056    12.000000000000
         C           -1.129156790057     1.242473388676     0.650778253944    12.000000000000
         C            0.683803709943    -0.129920211324    -0.013102246056    12.000000000000
         H           -0.699771290057     0.656975788676    -1.416815246056     1.007825032230
         H           -0.666721290057     2.162371788676     0.570595753944     1.007825032230
         H           -2.299087290057     1.518271788676     0.311132753944     1.007825032230
         H           -1.272270290057     0.833128788676     1.588835753944     1.007825032230
         H           -2.478572290057    -0.836029211324    -0.540113246056     1.007825032230
         H           -1.321583290057    -1.557749211324     0.377384753944     1.007825032230
         H            2.450986709943     0.485395788676    -0.153914246056     1.007825032230

  Basis Set: AUG-CC-PVTZ
    Blend: AUG-CC-PVTZ
  Basis Set: (AUG-CC-PVTZ AUX)
    Blend: AUG-CC-PVTZ-JKFIT
	 Reference Energy          =    -321.9718915932133996 [Eh]
	 Singles Energy            =      -0.0000000000000000 [Eh]
	 Same-Spin Energy          =      -0.3176199226621478 [Eh]
	 Opposite-Spin Energy      =      -1.0013055431150208 [Eh]
	 Correlation Energy        =      -1.3189254657771685 [Eh]
	 Total Energy              =    -323.2908170589905694 [Eh]

	 ================> DF-SCS-MP2 Energies <==================
	-----------------------------------------------------------
	 SCS Same-Spin Scale       =       0.3333333333333333 [-]
	 SCS Opposite-Spin Scale   =       1.2000000000000000 [-]
	 SCS Same-Spin Energy      =      -0.1058733075540493 [Eh]
	 SCS Opposite-Spin Energy  =      -1.2015666517380250 [Eh]
	 SCS Correlation Energy    =      -1.3074399592920742 [Eh]
	 SCS Total Energy          =    -323.2793315525054823 [Eh]
	-----------------------------------------------------------

  Dipole Moment: [D]
     X:    -0.7487      Y:     2.0170      Z:     0.2823     Total:     2.1699

*** Psi4 exiting successfully. Buy a developer a beer!
