                               Psi4 1.3.2 release

  ==> Input File <==

--------------------------------------------------------------------------
#psi4
#
memory 32 gb

molecule  {
0 1
  O        1.6642950     0.7201020    -0.5160700
  O        1.0775810    -1.0797050     0.7319740
  N       -1.4306403    -1.0551081    -0.4483029
  C       -0.6495640     0.1769900    -0.4154850
  C       -1.1893050     1.2162270     0.5788640
  C        0.7664460    -0.1647250    -0.0115660
  H       -0.6171290     0.6221710    -1.4152790
  H       -0.5840790     2.1275670     0.5721320
  H       -2.2164450     1.4834670     0.3126690
  H       -1.1896280     0.7983240     1.5903720
  H       -2.3959300    -0.8708340    -0.5385770
  H       -1.2389410    -1.5925540     0.3789210
  H        2.5336290     0.4505910    -0.1523780
units angstrom
no_reorient  #important for SAPT in psi4, default
symmetry c1  #important for SAPT in psi4, default
}

set PROPERTIES_ORIGIN ["COM"]
properties('MP2/aug-cc-pvtz', properties = ['dipole'])
--------------------------------------------------------------------------

    Molecular point group: c1
  Charge       = 0
  Multiplicity = 1
  Basis Set: AUG-CC-PVTZ
    Blend: AUG-CC-PVTZ
  Basis Set: (AUG-CC-PVTZ AUX)
    Blend: AUG-CC-PVTZ-JKFIT

    Orbital Energies [Eh]
    ---------------------

    Doubly Occupied:

       1A    -20.621966     2A    -20.555702     3A    -15.543689
       4A    -11.392065     5A    -11.283239     6A    -11.234891
       7A     -1.465383     8A     -1.362303     9A     -1.202020
      10A     -1.025118    11A     -0.913480    12A     -0.794003
      13A     -0.727445    14A     -0.708064    15A     -0.647491
      16A     -0.635324    17A     -0.612801    18A     -0.587746
      19A     -0.574600    20A     -0.545566    21A     -0.522085
      22A     -0.485749    23A     -0.454901    24A     -0.398233

  @DF-RHF Final Energy:  -321.99623486930125

   => Energetics <=

    Nuclear Repulsion Energy =            249.4586005362029084
    One-Electron Energy =                -934.3219429996726149
    Two-Electron Energy =                 362.8671075941684876
    Total Energy =                       -321.9962348693012473
  Basis Set: (AUG-CC-PVTZ AUX)
    Blend: AUG-CC-PVTZ-RI
    Molecular point group: c1

    Geometry (in Angstrom), charge = 0, multiplicity = 1:

       Center              X                  Y                   Z               Mass
    ------------   -----------------  -----------------  -----------------  -----------------
         O            1.605894351766     0.750898068588    -0.513276163993    15.994914619570
         O            1.019180351766    -1.048908931412     0.734767836007    15.994914619570
         N           -1.489040948234    -1.024312031412    -0.445509063993    14.003074004430
         C           -0.707964648234     0.207786068588    -0.412691163993    12.000000000000
         C           -1.247705648234     1.247023068588     0.581657836007    12.000000000000
         C            0.708045351766    -0.133928931412    -0.008772163993    12.000000000000
         H           -0.675529648234     0.652967068588    -1.412485163993     1.007825032230
         H           -0.642479648234     2.158363068588     0.574925836007     1.007825032230
         H           -2.274845648234     1.514263068588     0.315462836007     1.007825032230
         H           -1.248028648234     0.829120068588     1.593165836007     1.007825032230
         H           -2.454330648234    -0.840037931412    -0.535783163993     1.007825032230
         H           -1.297341648234    -1.561757931412     0.381714836007     1.007825032230
         H            2.475228351766     0.481387068588    -0.149584163993     1.007825032230

  Basis Set: AUG-CC-PVTZ
    Blend: AUG-CC-PVTZ
  Basis Set: (AUG-CC-PVTZ AUX)
    Blend: AUG-CC-PVTZ-JKFIT
	 Reference Energy          =    -321.9962348693012473 [Eh]
	 Singles Energy            =      -0.0000000000000000 [Eh]
	 Same-Spin Energy          =      -0.3166507164702554 [Eh]
	 Opposite-Spin Energy      =      -0.9989499790126289 [Eh]
	 Correlation Energy        =      -1.3156006954828845 [Eh]
	 Total Energy              =    -323.3118355647841327 [Eh]

	 ================> DF-SCS-MP2 Energies <==================
	-----------------------------------------------------------
	 SCS Same-Spin Scale       =       0.3333333333333333 [-]
	 SCS Opposite-Spin Scale   =       1.2000000000000000 [-]
	 SCS Same-Spin Energy      =      -0.1055502388234185 [Eh]
	 SCS Opposite-Spin Energy  =      -1.1987399748151546 [Eh]
	 SCS Correlation Energy    =      -1.3042902136385730 [Eh]
	 SCS Total Energy          =    -323.3005250829398278 [Eh]
	-----------------------------------------------------------

  Dipole Moment: [D]
     X:    -0.7066      Y:     1.9804      Z:     0.1989     Total:     2.1121

*** Psi4 exiting successfully. Buy a developer a beer!
