                               Psi4 1.3.2 release

  ==> Input File <==

--------------------------------------------------------------------------
#psi4
#
memory 32 gb

molecule  {
0 1
  O        1.6642950     0.7201020    -0.5160700
  O        1.0775810    -1.0797050     0.7319740
  N       -1.3911256    -1.0795828    -0.4337653
  C       -0.6495640     0.1769900    -0.4154850
  C       -1.1893050     1.2162270     0.5788640
  C        0.7664460    -0.1647250    -0.0115660
  H       -0.6171290     0.6221710    -1.4152790
  H       -0.5840790     2.1275670     0.5721320
  H       -2.2164450     1.4834670     0.3126690
  H       -1.1896280     0.7983240     1.5903720
  H       -2.3959300    -0.8708340    -0.5385770
  H       -1.2389410    -1.5925540     0.3789210
  H        2.5336290     0.4505910    -0.1523780
units angstrom
no_reorient  #important for SAPT in psi4, default
symmetry c1  #important for SAPT in psi4, default
}

set PROPERTIES_ORIGIN ["COM"]
properties('MP2/aug-cc-pvtz', properties = ['dipole'])
--------------------------------------------------------------------------

    Molecular point group: c1
  Charge       = 0
  Multiplicity = 1
  Basis Set: AUG-CC-PVTZ
    Blend: AUG-CC-PVTZ
  Basis Set: (AUG-CC-PVTZ AUX)
    Blend: AUG-CC-PVTZ-JKFIT

    Orbital Energies [Eh]
    ---------------------

    Doubly Occupied:

       1A    -20.620998     2A    -20.554644     3A    -15.545925
       4A    -11.390608     5A    -11.283425     6A    -11.235546
       7A     -1.464526     8A     -1.361498     9A     -1.201950
      10A     -1.024897    11A     -0.913083    12A     -0.793826
      13A     -0.726773    14A     -0.708159    15A     -0.644948
      16A     -0.630235    17A     -0.616221    18A     -0.583124
      19A     -0.577816    20A     -0.543510    21A     -0.524158
      22A     -0.484749    23A     -0.453902    24A     -0.400566

  @DF-RHF Final Energy:  -321.99449203888275

   => Energetics <=

    Nuclear Repulsion Energy =            249.6778859055512498
    One-Electron Energy =                -934.7745847769548391
    Two-Electron Energy =                 363.1022068325207783
    Total Energy =                       -321.9944920388827541
  Basis Set: (AUG-CC-PVTZ AUX)
    Blend: AUG-CC-PVTZ-RI
    Molecular point group: c1

    Geometry (in Angstrom), charge = 0, multiplicity = 1:

       Center              X                  Y                   Z               Mass
    ------------   -----------------  -----------------  -----------------  -----------------
         O            1.599680520278     0.754746804919    -0.515562254907    15.994914619570
         O            1.012966520278    -1.045060195081     0.732481745093    15.994914619570
         N           -1.455740079722    -1.044937995081    -0.433257554907    14.003074004430
         C           -0.714178479722     0.211634804919    -0.414977254907    12.000000000000
         C           -1.253919479722     1.250871804919     0.579371745093    12.000000000000
         C            0.701831520278    -0.130080195081    -0.011058254907    12.000000000000
         H           -0.681743479722     0.656815804919    -1.414771254907     1.007825032230
         H           -0.648693479722     2.162211804919     0.572639745093     1.007825032230
         H           -2.281059479722     1.518111804919     0.313176745093     1.007825032230
         H           -1.254242479722     0.832968804919     1.590879745093     1.007825032230
         H           -2.460544479722    -0.836189195081    -0.538069254907     1.007825032230
         H           -1.303555479722    -1.557909195081     0.379428745093     1.007825032230
         H            2.469014520278     0.485235804919    -0.151870254907     1.007825032230

  Basis Set: AUG-CC-PVTZ
    Blend: AUG-CC-PVTZ
  Basis Set: (AUG-CC-PVTZ AUX)
    Blend: AUG-CC-PVTZ-JKFIT
	 Reference Energy          =    -321.9944920388827541 [Eh]
	 Singles Energy            =      -0.0000000000000000 [Eh]
	 Same-Spin Energy          =      -0.3167552597944860 [Eh]
	 Opposite-Spin Energy      =      -0.9992769756220293 [Eh]
	 Correlation Energy        =      -1.3160322354165155 [Eh]
	 Total Energy              =    -323.3105242742992687 [Eh]

	 ================> DF-SCS-MP2 Energies <==================
	-----------------------------------------------------------
	 SCS Same-Spin Scale       =       0.3333333333333333 [-]
	 SCS Opposite-Spin Scale   =       1.2000000000000000 [-]
	 SCS Same-Spin Energy      =      -0.1055850865981620 [Eh]
	 SCS Opposite-Spin Energy  =      -1.1991323707464352 [Eh]
	 SCS Correlation Energy    =      -1.3047174573445972 [Eh]
	 SCS Total Energy          =    -323.2992094962273768 [Eh]
	-----------------------------------------------------------

  Dipole Moment: [D]
     X:    -0.7720      Y:     2.0224      Z:     0.1905     Total:     2.1731

*** Psi4 exiting successfully. Buy a developer a beer!
