                               Psi4 1.3.2 release

  ==> Input File <==

--------------------------------------------------------------------------
#psi4
#
memory 32 gb

molecule  {
0 1
  O        1.6642950     0.7201020    -0.5160700
  O        1.0775810    -1.0797050     0.7319740
  N       -1.3988490    -1.0732660    -0.4837110
  C       -0.6495640     0.1769900    -0.4154850
  C       -1.2813075     1.2156077     0.5237899
  C        0.7664460    -0.1647250    -0.0115660
  H       -0.6171290     0.6221710    -1.4152790
  H       -0.5840790     2.1275670     0.5721320
  H       -2.2164450     1.4834670     0.3126690
  H       -1.1896280     0.7983240     1.5903720
  H       -2.3959300    -0.8708340    -0.5385770
  H       -1.2389410    -1.5925540     0.3789210
  H        2.5336290     0.4505910    -0.1523780
units angstrom
no_reorient  #important for SAPT in psi4, default
symmetry c1  #important for SAPT in psi4, default
}

set PROPERTIES_ORIGIN ["COM"]
properties('MP2/aug-cc-pvtz', properties = ['dipole'])
--------------------------------------------------------------------------

    Molecular point group: c1
  Charge       = 0
  Multiplicity = 1
  Basis Set: AUG-CC-PVTZ
    Blend: AUG-CC-PVTZ
  Basis Set: (AUG-CC-PVTZ AUX)
    Blend: AUG-CC-PVTZ-JKFIT

    Orbital Energies [Eh]
    ---------------------

    Doubly Occupied:

       1A    -20.622715     2A    -20.557594     3A    -15.549322
       4A    -11.394089     5A    -11.283343     6A    -11.237677
       7A     -1.466269     8A     -1.363514     9A     -1.200093
      10A     -1.021543    11A     -0.918523    12A     -0.793384
      13A     -0.724390    14A     -0.708397    15A     -0.653256
      16A     -0.630013    17A     -0.603797    18A     -0.593805
      19A     -0.570067    20A     -0.559804    21A     -0.501180
      22A     -0.486478    23A     -0.458707    24A     -0.400991

  @DF-RHF Final Energy:  -321.98182216162871

   => Energetics <=

    Nuclear Repulsion Energy =            248.9445281559790999
    One-Electron Energy =                -933.2547967303686391
    Two-Electron Energy =                 362.3284464127607976
    Total Energy =                       -321.9818221616287133
  Basis Set: (AUG-CC-PVTZ AUX)
    Blend: AUG-CC-PVTZ-RI
    Molecular point group: c1

    Geometry (in Angstrom), charge = 0, multiplicity = 1:

       Center              X                  Y                   Z               Mass
    ------------   -----------------  -----------------  -----------------  -----------------
         O            1.613293242840     0.753836921368    -0.500286364994    15.994914619570
         O            1.026579242840    -1.045970078632     0.747757635006    15.994914619570
         N           -1.449850757160    -1.039531078632    -0.467927364994    14.003074004430
         C           -0.700565757160     0.210724921368    -0.399701364994    12.000000000000
         C           -1.332309257160     1.249342621368     0.539573535006    12.000000000000
         C            0.715444242840    -0.130990078632     0.004217635006    12.000000000000
         H           -0.668130757160     0.655905921368    -1.399495364994     1.007825032230
         H           -0.635080757160     2.161301921368     0.587915635006     1.007825032230
         H           -2.267446757160     1.517201921368     0.328452635006     1.007825032230
         H           -1.240629757160     0.832058921368     1.606155635006     1.007825032230
         H           -2.446931757160    -0.837099078632    -0.522793364994     1.007825032230
         H           -1.289942757160    -1.558819078632     0.394704635006     1.007825032230
         H            2.482627242840     0.484325921368    -0.136594364994     1.007825032230

  Basis Set: AUG-CC-PVTZ
    Blend: AUG-CC-PVTZ
  Basis Set: (AUG-CC-PVTZ AUX)
    Blend: AUG-CC-PVTZ-JKFIT
	 Reference Energy          =    -321.9818221616287133 [Eh]
	 Singles Energy            =      -0.0000000000000000 [Eh]
	 Same-Spin Energy          =      -0.3170065277641039 [Eh]
	 Opposite-Spin Energy      =      -1.0005423770397575 [Eh]
	 Correlation Energy        =      -1.3175489048038613 [Eh]
	 Total Energy              =    -323.2993710664325704 [Eh]

	 ================> DF-SCS-MP2 Energies <==================
	-----------------------------------------------------------
	 SCS Same-Spin Scale       =       0.3333333333333333 [-]
	 SCS Opposite-Spin Scale   =       1.2000000000000000 [-]
	 SCS Same-Spin Energy      =      -0.1056688425880346 [Eh]
	 SCS Opposite-Spin Energy  =      -1.2006508524477089 [Eh]
	 SCS Correlation Energy    =      -1.3063196950357434 [Eh]
	 SCS Total Energy          =    -323.2881418566644811 [Eh]
	-----------------------------------------------------------

  Dipole Moment: [D]
     X:    -0.7263      Y:     2.0300      Z:     0.2738     Total:     2.1733

*** Psi4 exiting successfully. Buy a developer a beer!
