                               Psi4 1.3.2 release

  ==> Input File <==

--------------------------------------------------------------------------
#psi4
#
memory 32 gb

molecule  {
0 1
  O        1.6817847     0.7079894    -0.5056314
  O        1.0775810    -1.0797050     0.7319740
  N       -1.3988490    -1.0732660    -0.4837110
  C       -0.6495640     0.1769900    -0.4154850
  C       -1.1893050     1.2162270     0.5788640
  C        0.7664460    -0.1647250    -0.0115660
  H       -0.6171290     0.6221710    -1.4152790
  H       -0.5840790     2.1275670     0.5721320
  H       -2.2164450     1.4834670     0.3126690
  H       -1.1896280     0.7983240     1.5903720
  H       -2.3959300    -0.8708340    -0.5385770
  H       -1.2389410    -1.5925540     0.3789210
  H        2.5336290     0.4505910    -0.1523780
units angstrom
no_reorient  #important for SAPT in psi4, default
symmetry c1  #important for SAPT in psi4, default
}

set PROPERTIES_ORIGIN ["COM"]
properties('MP2/aug-cc-pvtz', properties = ['dipole'])
--------------------------------------------------------------------------

    Molecular point group: c1
  Charge       = 0
  Multiplicity = 1
  Basis Set: AUG-CC-PVTZ
    Blend: AUG-CC-PVTZ
  Basis Set: (AUG-CC-PVTZ AUX)
    Blend: AUG-CC-PVTZ-JKFIT

    Orbital Energies [Eh]
    ---------------------

    Doubly Occupied:

       1A    -20.618272     2A    -20.554160     3A    -15.551577
       4A    -11.391311     5A    -11.284116     6A    -11.236982
       7A     -1.467179     8A     -1.362018     9A     -1.200613
      10A     -1.024753    11A     -0.915440    12A     -0.797747
      13A     -0.725599    14A     -0.706639    15A     -0.646064
      16A     -0.628297    17A     -0.611771    18A     -0.585022
      19A     -0.577904    20A     -0.544593    21A     -0.521425
      22A     -0.484427    23A     -0.454550    24A     -0.405243

  @DF-RHF Final Energy:  -321.99694048610064

   => Energetics <=

    Nuclear Repulsion Energy =            249.3394105569504973
    One-Electron Energy =                -934.0812961763699604
    Two-Electron Energy =                 362.7449451333188222
    Total Energy =                       -321.9969404861006410
  Basis Set: (AUG-CC-PVTZ AUX)
    Blend: AUG-CC-PVTZ-RI
    Molecular point group: c1

    Geometry (in Angstrom), charge = 0, multiplicity = 1:

       Center              X                  Y                   Z               Mass
    ------------   -----------------  -----------------  -----------------  -----------------
         O            1.615243219828     0.743816553373    -0.499144511747    15.994914619570
         O            1.011039519828    -1.043877846627     0.738460888253    15.994914619570
         N           -1.465390480172    -1.037438846627    -0.477224111747    14.003074004430
         C           -0.716105480172     0.212817153373    -0.408998111747    12.000000000000
         C           -1.255846480172     1.252054153373     0.585350888253    12.000000000000
         C            0.699904519828    -0.128897846627    -0.005079111747    12.000000000000
         H           -0.683670480172     0.657998153373    -1.408792111747     1.007825032230
         H           -0.650620480172     2.163394153373     0.578618888253     1.007825032230
         H           -2.282986480172     1.519294153373     0.319155888253     1.007825032230
         H           -1.256169480172     0.834151153373     1.596858888253     1.007825032230
         H           -2.462471480172    -0.835006846627    -0.532090111747     1.007825032230
         H           -1.305482480172    -1.556726846627     0.385407888253     1.007825032230
         H            2.467087519828     0.486418153373    -0.145891111747     1.007825032230

  Basis Set: AUG-CC-PVTZ
    Blend: AUG-CC-PVTZ
  Basis Set: (AUG-CC-PVTZ AUX)
    Blend: AUG-CC-PVTZ-JKFIT
	 Reference Energy          =    -321.9969404861006410 [Eh]
	 Singles Energy            =      -0.0000000000000000 [Eh]
	 Same-Spin Energy          =      -0.3164960609113507 [Eh]
	 Opposite-Spin Energy      =      -0.9989941711519251 [Eh]
	 Correlation Energy        =      -1.3154902320632758 [Eh]
	 Total Energy              =    -323.3124307181639097 [Eh]

	 ================> DF-SCS-MP2 Energies <==================
	-----------------------------------------------------------
	 SCS Same-Spin Scale       =       0.3333333333333333 [-]
	 SCS Opposite-Spin Scale   =       1.2000000000000000 [-]
	 SCS Same-Spin Energy      =      -0.1054986869704502 [Eh]
	 SCS Opposite-Spin Energy  =      -1.1987930053823102 [Eh]
	 SCS Correlation Energy    =      -1.3042916923527603 [Eh]
	 SCS Total Energy          =    -323.3012321784534038 [Eh]
	-----------------------------------------------------------

  Dipole Moment: [D]
     X:    -0.8056      Y:     2.0518      Z:     0.2767     Total:     2.2216

*** Psi4 exiting successfully. Buy a developer a beer!
