                               Psi4 1.3.2 release

  ==> Input File <==

--------------------------------------------------------------------------
#psi4
#
memory 32 gb

molecule  {
0 1
  O        1.6642950     0.7201020    -0.5160700
  O        1.0775810    -1.0797050     0.7319740
  N       -1.3988490    -1.0732660    -0.4837110
  C       -0.5230948     0.0915500    -0.4096763
  C       -1.1893050     1.2162270     0.5788640
  C        0.7664460    -0.1647250    -0.0115660
  H       -0.6171290     0.6221710    -1.4152790
  H       -0.5840790     2.1275670     0.5721320
  H       -2.2164450     1.4834670     0.3126690
  H       -1.1896280     0.7983240     1.5903720
  H       -2.3959300    -0.8708340    -0.5385770
  H       -1.2389410    -1.5925540     0.3789210
  H        2.5336290     0.4505910    -0.1523780
units angstrom
no_reorient  #important for SAPT in psi4, default
symmetry c1  #important for SAPT in psi4, default
}

set PROPERTIES_ORIGIN ["COM"]
properties('MP2/aug-cc-pvtz', properties = ['dipole'])
--------------------------------------------------------------------------

    Molecular point group: c1
  Charge       = 0
  Multiplicity = 1
  Basis Set: AUG-CC-PVTZ
    Blend: AUG-CC-PVTZ
  Basis Set: (AUG-CC-PVTZ AUX)
    Blend: AUG-CC-PVTZ-JKFIT

    Orbital Energies [Eh]
    ---------------------

    Doubly Occupied:

       1A    -20.621200     2A    -20.553733     3A    -15.551362
       4A    -11.386957     5A    -11.282923     6A    -11.245078
       7A     -1.468574     8A     -1.363859     9A     -1.199711
      10A     -1.028762    11A     -0.931883    12A     -0.790331
      13A     -0.731249    14A     -0.706951    15A     -0.653301
      16A     -0.632099    17A     -0.604500    18A     -0.590340
      19A     -0.561862    20A     -0.555253    21A     -0.511300
      22A     -0.483018    23A     -0.465174    24A     -0.389561

  @DF-RHF Final Energy:  -321.97062411451543

   => Energetics <=

    Nuclear Repulsion Energy =            250.6251685694905689
    One-Electron Energy =                -936.5736269527482136
    Two-Electron Energy =                 363.9778342687421855
    Total Energy =                       -321.9706241145154308
  Basis Set: (AUG-CC-PVTZ AUX)
    Blend: AUG-CC-PVTZ-RI
    Molecular point group: c1

    Geometry (in Angstrom), charge = 0, multiplicity = 1:

       Center              X                  Y                   Z               Mass
    ------------   -----------------  -----------------  -----------------  -----------------
         O            1.583852156390     0.765267296842    -0.508490886577    15.994914619570
         O            0.997138156390    -1.034539703158     0.739553113423    15.994914619570
         N           -1.479291843610    -1.028100703158    -0.476131886577    14.003074004430
         C           -0.603537643610     0.136715296842    -0.402097186577    12.000000000000
         C           -1.269747843610     1.261392296842     0.586443113423    12.000000000000
         C            0.686003156390    -0.119559703158    -0.003986886577    12.000000000000
         H           -0.697571843610     0.667336296842    -1.407699886577     1.007825032230
         H           -0.664521843610     2.172732296842     0.579711113423     1.007825032230
         H           -2.296887843610     1.528632296842     0.320248113423     1.007825032230
         H           -1.270070843610     0.843489296842     1.597951113423     1.007825032230
         H           -2.476372843610    -0.825668703158    -0.530997886577     1.007825032230
         H           -1.319383843610    -1.547388703158     0.386500113423     1.007825032230
         H            2.453186156390     0.495756296842    -0.144798886577     1.007825032230

  Basis Set: AUG-CC-PVTZ
    Blend: AUG-CC-PVTZ
  Basis Set: (AUG-CC-PVTZ AUX)
    Blend: AUG-CC-PVTZ-JKFIT
	 Reference Energy          =    -321.9706241145154308 [Eh]
	 Singles Energy            =      -0.0000000000000000 [Eh]
	 Same-Spin Energy          =      -0.3182122748683751 [Eh]
	 Opposite-Spin Energy      =      -1.0020991937655590 [Eh]
	 Correlation Energy        =      -1.3203114686339341 [Eh]
	 Total Energy              =    -323.2909355831493485 [Eh]

	 ================> DF-SCS-MP2 Energies <==================
	-----------------------------------------------------------
	 SCS Same-Spin Scale       =       0.3333333333333333 [-]
	 SCS Opposite-Spin Scale   =       1.2000000000000000 [-]
	 SCS Same-Spin Energy      =      -0.1060707582894584 [Eh]
	 SCS Opposite-Spin Energy  =      -1.2025190325186708 [Eh]
	 SCS Correlation Energy    =      -1.3085897908081292 [Eh]
	 SCS Total Energy          =    -323.2792139053235587 [Eh]
	-----------------------------------------------------------

  Dipole Moment: [D]
     X:    -0.8956      Y:     2.0562      Z:     0.2284     Total:     2.2544

*** Psi4 exiting successfully. Buy a developer a beer!
