                               Psi4 1.3.2 release

  ==> Input File <==

--------------------------------------------------------------------------
#psi4
#
memory 32 gb

molecule  {
0 1
  O        1.6642950     0.7201020    -0.5160700
  O        1.0570215    -1.0848265     0.7339701
  N       -1.3988490    -1.0732660    -0.4837110
  C       -0.6495640     0.1769900    -0.4154850
  C       -1.1893050     1.2162270     0.5788640
  C        0.7664460    -0.1647250    -0.0115660
  H       -0.6171290     0.6221710    -1.4152790
  H       -0.5840790     2.1275670     0.5721320
  H       -2.2164450     1.4834670     0.3126690
  H       -1.1896280     0.7983240     1.5903720
  H       -2.3959300    -0.8708340    -0.5385770
  H       -1.2389410    -1.5925540     0.3789210
  H        2.5336290     0.4505910    -0.1523780
units angstrom
no_reorient  #important for SAPT in psi4, default
symmetry c1  #important for SAPT in psi4, default
}

set PROPERTIES_ORIGIN ["COM"]
properties('MP2/aug-cc-pvtz', properties = ['dipole'])
--------------------------------------------------------------------------

    Molecular point group: c1
  Charge       = 0
  Multiplicity = 1
  Basis Set: AUG-CC-PVTZ
    Blend: AUG-CC-PVTZ
  Basis Set: (AUG-CC-PVTZ AUX)
    Blend: AUG-CC-PVTZ-JKFIT

    Orbital Energies [Eh]
    ---------------------

    Doubly Occupied:

       1A    -20.623171     2A    -20.555584     3A    -15.550156
       4A    -11.391448     5A    -11.281855     6A    -11.235965
       7A     -1.465067     8A     -1.363545     9A     -1.199006
      10A     -1.023208    11A     -0.913124    12A     -0.792977
      13A     -0.723982    14A     -0.707853    15A     -0.646324
      16A     -0.629290    17A     -0.610065    18A     -0.584065
      19A     -0.576808    20A     -0.544287    21A     -0.520305
      22A     -0.486079    23A     -0.454175    24A     -0.403899

  @DF-RHF Final Energy:  -321.99538282968621

   => Energetics <=

    Nuclear Repulsion Energy =            249.4128564942247408
    One-Electron Energy =                -934.2520024612656471
    Two-Electron Energy =                 362.8437631373546424
    Total Energy =                       -321.9953828296862071
  Basis Set: (AUG-CC-PVTZ AUX)
    Blend: AUG-CC-PVTZ-RI
    Molecular point group: c1

    Geometry (in Angstrom), charge = 0, multiplicity = 1:

       Center              X                  Y                   Z               Mass
    ------------   -----------------  -----------------  -----------------  -----------------
         O            1.604587990034     0.754673398596    -0.508066653722    15.994914619570
         O            0.997314490034    -1.050255101404     0.741973446278    15.994914619570
         N           -1.458556009966    -1.038694601404    -0.475707653722    14.003074004430
         C           -0.709271009966     0.211561398596    -0.407481653722    12.000000000000
         C           -1.249012009966     1.250798398596     0.586867346278    12.000000000000
         C            0.706738990034    -0.130153601404    -0.003562653722    12.000000000000
         H           -0.676836009966     0.656742398596    -1.407275653722     1.007825032230
         H           -0.643786009966     2.162138398596     0.580135346278     1.007825032230
         H           -2.276152009966     1.518038398596     0.320672346278     1.007825032230
         H           -1.249335009966     0.832895398596     1.598375346278     1.007825032230
         H           -2.455637009966    -0.836262601404    -0.530573653722     1.007825032230
         H           -1.298648009966    -1.557982601404     0.386924346278     1.007825032230
         H            2.473921990034     0.485162398596    -0.144374653722     1.007825032230

  Basis Set: AUG-CC-PVTZ
    Blend: AUG-CC-PVTZ
  Basis Set: (AUG-CC-PVTZ AUX)
    Blend: AUG-CC-PVTZ-JKFIT
	 Reference Energy          =    -321.9953828296862071 [Eh]
	 Singles Energy            =      -0.0000000000000000 [Eh]
	 Same-Spin Energy          =      -0.3170104533834307 [Eh]
	 Opposite-Spin Energy      =      -1.0000769391005091 [Eh]
	 Correlation Energy        =      -1.3170873924839399 [Eh]
	 Total Energy              =    -323.3124702221701341 [Eh]

	 ================> DF-SCS-MP2 Energies <==================
	-----------------------------------------------------------
	 SCS Same-Spin Scale       =       0.3333333333333333 [-]
	 SCS Opposite-Spin Scale   =       1.2000000000000000 [-]
	 SCS Same-Spin Energy      =      -0.1056701511278102 [Eh]
	 SCS Opposite-Spin Energy  =      -1.2000923269206110 [Eh]
	 SCS Correlation Energy    =      -1.3057624780484212 [Eh]
	 SCS Total Energy          =    -323.3011453077346005 [Eh]
	-----------------------------------------------------------

  Dipole Moment: [D]
     X:    -0.6885      Y:     2.0495      Z:     0.2846     Total:     2.1807

*** Psi4 exiting successfully. Buy a developer a beer!
