                               Psi4 1.3.2 release

  ==> Input File <==

--------------------------------------------------------------------------
#psi4
#
memory 32 gb

molecule  {
0 1
  O        1.6642950     0.7201020    -0.5160700
  O        1.0775810    -1.0797050     0.7319740
  N       -1.2981583    -1.1185210    -0.5892647
  C       -0.6495640     0.1769900    -0.4154850
  C       -1.1893050     1.2162270     0.5788640
  C        0.7664460    -0.1647250    -0.0115660
  H       -0.6171290     0.6221710    -1.4152790
  H       -0.5840790     2.1275670     0.5721320
  H       -2.2164450     1.4834670     0.3126690
  H       -1.1896280     0.7983240     1.5903720
  H       -2.3959300    -0.8708340    -0.5385770
  H       -1.2389410    -1.5925540     0.3789210
  H        2.5336290     0.4505910    -0.1523780
units angstrom
no_reorient  #important for SAPT in psi4, default
symmetry c1  #important for SAPT in psi4, default
}

set PROPERTIES_ORIGIN ["COM"]
properties('MP2/aug-cc-pvtz', properties = ['dipole'])
--------------------------------------------------------------------------

    Molecular point group: c1
  Charge       = 0
  Multiplicity = 1
  Basis Set: AUG-CC-PVTZ
    Blend: AUG-CC-PVTZ
  Basis Set: (AUG-CC-PVTZ AUX)
    Blend: AUG-CC-PVTZ-JKFIT

    Orbital Energies [Eh]
    ---------------------

    Doubly Occupied:

       1A    -20.619975     2A    -20.553972     3A    -15.575876
       4A    -11.389053     5A    -11.282671     6A    -11.241182
       7A     -1.463700     8A     -1.360805     9A     -1.194123
      10A     -1.019727    11A     -0.912396    12A     -0.788032
      13A     -0.718304    14A     -0.704259    15A     -0.645801
      16A     -0.615175    17A     -0.604400    18A     -0.585774
      19A     -0.567506    20A     -0.532869    21A     -0.514569
      22A     -0.483833    23A     -0.453341    24A     -0.424092

  @DF-RHF Final Energy:  -321.97423127596403

   => Energetics <=

    Nuclear Repulsion Energy =            248.9415723274311461
    One-Electron Energy =                -933.3287412503231053
    Two-Electron Energy =                 362.4129376469279578
    Total Energy =                       -321.9742312759640299
  Basis Set: (AUG-CC-PVTZ AUX)
    Blend: AUG-CC-PVTZ-RI
    Molecular point group: c1

    Geometry (in Angstrom), charge = 0, multiplicity = 1:

       Center              X                  Y                   Z               Mass
    ------------   -----------------  -----------------  -----------------  -----------------
         O            1.585061071413     0.760869979667    -0.491109403993    15.994914619570
         O            0.998347071413    -1.038937020333     0.756934596007    15.994914619570
         N           -1.377392228587    -1.077753020333    -0.564304103993    14.003074004430
         C           -0.728797928587     0.217757979667    -0.390524403993    12.000000000000
         C           -1.268538928587     1.256994979667     0.603824596007    12.000000000000
         C            0.687212071413    -0.123957020333     0.013394596007    12.000000000000
         H           -0.696362928587     0.662938979667    -1.390318403993     1.007825032230
         H           -0.663312928587     2.168334979667     0.597092596007     1.007825032230
         H           -2.295678928587     1.524234979667     0.337629596007     1.007825032230
         H           -1.268861928587     0.839091979667     1.615332596007     1.007825032230
         H           -2.475163928587    -0.830066020333    -0.513616403993     1.007825032230
         H           -1.318174928587    -1.551786020333     0.403881596007     1.007825032230
         H            2.454395071413     0.491358979667    -0.127417403993     1.007825032230

  Basis Set: AUG-CC-PVTZ
    Blend: AUG-CC-PVTZ
  Basis Set: (AUG-CC-PVTZ AUX)
    Blend: AUG-CC-PVTZ-JKFIT
	 Reference Energy          =    -321.9742312759640299 [Eh]
	 Singles Energy            =      -0.0000000000000000 [Eh]
	 Same-Spin Energy          =      -0.3185427319039220 [Eh]
	 Opposite-Spin Energy      =      -1.0047297633490673 [Eh]
	 Correlation Energy        =      -1.3232724952529893 [Eh]
	 Total Energy              =    -323.2975037712170092 [Eh]

	 ================> DF-SCS-MP2 Energies <==================
	-----------------------------------------------------------
	 SCS Same-Spin Scale       =       0.3333333333333333 [-]
	 SCS Opposite-Spin Scale   =       1.2000000000000000 [-]
	 SCS Same-Spin Energy      =      -0.1061809106346406 [Eh]
	 SCS Opposite-Spin Energy  =      -1.2056757160188807 [Eh]
	 SCS Correlation Energy    =      -1.3118566266535214 [Eh]
	 SCS Total Energy          =    -323.2860879026175667 [Eh]
	-----------------------------------------------------------

  Dipole Moment: [D]
     X:    -0.8652      Y:     2.1792      Z:     0.4849     Total:     2.3943

*** Psi4 exiting successfully. Buy a developer a beer!
