                               Psi4 1.3.2 release

  ==> Input File <==

--------------------------------------------------------------------------
#psi4
#
memory 32 gb

molecule  {
0 1
  O        1.6642950     0.7201020    -0.5160700
  O        1.0775810    -1.0797050     0.7319740
  N       -1.3325677    -1.1049918    -0.5542349
  C       -0.6495640     0.1769900    -0.4154850
  C       -1.1893050     1.2162270     0.5788640
  C        0.7664460    -0.1647250    -0.0115660
  H       -0.6171290     0.6221710    -1.4152790
  H       -0.5840790     2.1275670     0.5721320
  H       -2.2164450     1.4834670     0.3126690
  H       -1.1896280     0.7983240     1.5903720
  H       -2.3959300    -0.8708340    -0.5385770
  H       -1.2389410    -1.5925540     0.3789210
  H        2.5336290     0.4505910    -0.1523780
units angstrom
no_reorient  #important for SAPT in psi4, default
symmetry c1  #important for SAPT in psi4, default
}

set PROPERTIES_ORIGIN ["COM"]
properties('MP2/aug-cc-pvtz', properties = ['dipole'])
--------------------------------------------------------------------------

    Molecular point group: c1
  Charge       = 0
  Multiplicity = 1
  Basis Set: AUG-CC-PVTZ
    Blend: AUG-CC-PVTZ
  Basis Set: (AUG-CC-PVTZ AUX)
    Blend: AUG-CC-PVTZ-JKFIT

    Orbital Energies [Eh]
    ---------------------

    Doubly Occupied:

       1A    -20.620439     2A    -20.554365     3A    -15.567209
       4A    -11.389753     5A    -11.282639     6A    -11.239625
       7A     -1.464074     8A     -1.361128     9A     -1.195957
      10A     -1.021096    11A     -0.912914    12A     -0.789713
      13A     -0.719695    14A     -0.705198    15A     -0.645602
      16A     -0.618356    17A     -0.606140    18A     -0.584210
      19A     -0.572232    20A     -0.538532    21A     -0.517266
      22A     -0.484394    23A     -0.453666    24A     -0.417783

  @DF-RHF Final Energy:  -321.98465475859956

   => Energetics <=

    Nuclear Repulsion Energy =            249.0585867202067050
    One-Electron Energy =                -933.5625132426246182
    Two-Electron Energy =                 362.5192717638183808
    Total Energy =                       -321.9846547585995609
  Basis Set: (AUG-CC-PVTZ AUX)
    Blend: AUG-CC-PVTZ-RI
    Molecular point group: c1

    Geometry (in Angstrom), charge = 0, multiplicity = 1:

       Center              X                  Y                   Z               Mass
    ------------   -----------------  -----------------  -----------------  -----------------
         O            1.590472075753     0.758742463352    -0.496617968508    15.994914619570
         O            1.003758075753    -1.041064536648     0.751426031492    15.994914619570
         N           -1.406390624247    -1.066351336648    -0.534782868508    14.003074004430
         C           -0.723386924247     0.215630463352    -0.396032968508    12.000000000000
         C           -1.263127924247     1.254867463352     0.598316031492    12.000000000000
         C            0.692623075753    -0.126084536648     0.007886031492    12.000000000000
         H           -0.690951924247     0.660811463352    -1.395826968508     1.007825032230
         H           -0.657901924247     2.166207463352     0.591584031492     1.007825032230
         H           -2.290267924247     1.522107463352     0.332121031492     1.007825032230
         H           -1.263450924247     0.836964463352     1.609824031492     1.007825032230
         H           -2.469752924247    -0.832193536648    -0.519124968508     1.007825032230
         H           -1.312763924247    -1.553913536648     0.398373031492     1.007825032230
         H            2.459806075753     0.489231463352    -0.132925968508     1.007825032230

  Basis Set: AUG-CC-PVTZ
    Blend: AUG-CC-PVTZ
  Basis Set: (AUG-CC-PVTZ AUX)
    Blend: AUG-CC-PVTZ-JKFIT
	 Reference Energy          =    -321.9846547585995609 [Eh]
	 Singles Energy            =      -0.0000000000000000 [Eh]
	 Same-Spin Energy          =      -0.3178802844632484 [Eh]
	 Opposite-Spin Energy      =      -1.0028264480011411 [Eh]
	 Correlation Energy        =      -1.3207067324643895 [Eh]
	 Total Energy              =    -323.3053614910639340 [Eh]

	 ================> DF-SCS-MP2 Energies <==================
	-----------------------------------------------------------
	 SCS Same-Spin Scale       =       0.3333333333333333 [-]
	 SCS Opposite-Spin Scale   =       1.2000000000000000 [-]
	 SCS Same-Spin Energy      =      -0.1059600948210828 [Eh]
	 SCS Opposite-Spin Energy  =      -1.2033917376013692 [Eh]
	 SCS Correlation Energy    =      -1.3093518324224520 [Eh]
	 SCS Total Energy          =    -323.2940065910220255 [Eh]
	-----------------------------------------------------------

  Dipole Moment: [D]
     X:    -0.8364      Y:     2.1405      Z:     0.4268     Total:     2.3374

*** Psi4 exiting successfully. Buy a developer a beer!
