                               Psi4 1.3.2 release

  ==> Input File <==

--------------------------------------------------------------------------
#psi4
#
memory 32 gb

molecule  {
0 1
  O        1.6642950     0.7201020    -0.5160700
  O        1.0775810    -1.0797050     0.7319740
  N       -1.3988490    -1.0732660    -0.4837110
  C       -0.6278771     0.1636778    -0.4144631
  C       -1.1893050     1.2162270     0.5788640
  C        0.7664460    -0.1647250    -0.0115660
  H       -0.6171290     0.6221710    -1.4152790
  H       -0.5840790     2.1275670     0.5721320
  H       -2.2164450     1.4834670     0.3126690
  H       -1.1896280     0.7983240     1.5903720
  H       -2.3959300    -0.8708340    -0.5385770
  H       -1.2389410    -1.5925540     0.3789210
  H        2.5336290     0.4505910    -0.1523780
units angstrom
no_reorient  #important for SAPT in psi4, default
symmetry c1  #important for SAPT in psi4, default
}

set PROPERTIES_ORIGIN ["COM"]
properties('MP2/aug-cc-pvtz', properties = ['dipole'])
--------------------------------------------------------------------------

    Molecular point group: c1
  Charge       = 0
  Multiplicity = 1
  Basis Set: AUG-CC-PVTZ
    Blend: AUG-CC-PVTZ
  Basis Set: (AUG-CC-PVTZ AUX)
    Blend: AUG-CC-PVTZ-JKFIT

    Orbital Energies [Eh]
    ---------------------

    Doubly Occupied:

       1A    -20.621649     2A    -20.555317     3A    -15.550842
       4A    -11.391151     5A    -11.282665     6A    -11.237507
       7A     -1.465713     8A     -1.362430     9A     -1.199718
      10A     -1.023347    11A     -0.916934    12A     -0.792292
      13A     -0.725690    14A     -0.707329    15A     -0.647247
      16A     -0.629435    17A     -0.608426    18A     -0.585583
      19A     -0.574007    20A     -0.547225    21A     -0.519507
      22A     -0.485320    23A     -0.457336    24A     -0.402352

  @DF-RHF Final Energy:  -321.99506679457181

   => Energetics <=

    Nuclear Repulsion Energy =            249.5285866547570492
    One-Electron Energy =                -934.4692655699909665
    Two-Electron Energy =                 362.9456121206620764
    Total Energy =                       -321.9950667945718124
  Basis Set: (AUG-CC-PVTZ AUX)
    Blend: AUG-CC-PVTZ-RI
    Molecular point group: c1

    Geometry (in Angstrom), charge = 0, multiplicity = 1:

       Center              X                  Y                   Z               Mass
    ------------   -----------------  -----------------  -----------------  -----------------
         O            1.597972542475     0.755547407286    -0.507845820912    15.994914619570
         O            1.011258542475    -1.044259592714     0.740198179088    15.994914619570
         N           -1.465171457525    -1.037820592714    -0.475486820912    14.003074004430
         C           -0.694199557525     0.199123207286    -0.406238920912    12.000000000000
         C           -1.255627457525     1.251672407286     0.587088179088    12.000000000000
         C            0.700123542475    -0.129279592714    -0.003341820912    12.000000000000
         H           -0.683451457525     0.657616407286    -1.407054820912     1.007825032230
         H           -0.650401457525     2.163012407286     0.580356179088     1.007825032230
         H           -2.282767457525     1.518912407286     0.320893179088     1.007825032230
         H           -1.255950457525     0.833769407286     1.598596179088     1.007825032230
         H           -2.462252457525    -0.835388592714    -0.530352820912     1.007825032230
         H           -1.305263457525    -1.557108592714     0.387145179088     1.007825032230
         H            2.467306542475     0.486036407286    -0.144153820912     1.007825032230

  Basis Set: AUG-CC-PVTZ
    Blend: AUG-CC-PVTZ
  Basis Set: (AUG-CC-PVTZ AUX)
    Blend: AUG-CC-PVTZ-JKFIT
	 Reference Energy          =    -321.9950667945718124 [Eh]
	 Singles Energy            =      -0.0000000000000000 [Eh]
	 Same-Spin Energy          =      -0.3169910904598969 [Eh]
	 Opposite-Spin Energy      =      -1.0000233530681428 [Eh]
	 Correlation Energy        =      -1.3170144435280398 [Eh]
	 Total Energy              =    -323.3120812380998359 [Eh]

	 ================> DF-SCS-MP2 Energies <==================
	-----------------------------------------------------------
	 SCS Same-Spin Scale       =       0.3333333333333333 [-]
	 SCS Opposite-Spin Scale   =       1.2000000000000000 [-]
	 SCS Same-Spin Energy      =      -0.1056636968199656 [Eh]
	 SCS Opposite-Spin Energy  =      -1.2000280236817713 [Eh]
	 SCS Correlation Energy    =      -1.3056917205017369 [Eh]
	 SCS Total Energy          =    -323.3007585150735395 [Eh]
	-----------------------------------------------------------

  Dipole Moment: [D]
     X:    -0.7666      Y:     2.0411      Z:     0.2740     Total:     2.1975

*** Psi4 exiting successfully. Buy a developer a beer!
