                               Psi4 1.3.2 release

  ==> Input File <==

--------------------------------------------------------------------------
#psi4
#
memory 32 gb

molecule  {
0 1
  O        1.6642950     0.7201020    -0.5160700
  O        0.9530225    -1.1062020     0.7405347
  N       -1.3988490    -1.0732660    -0.4837110
  C       -0.6495640     0.1769900    -0.4154850
  C       -1.1893050     1.2162270     0.5788640
  C        0.7664460    -0.1647250    -0.0115660
  H       -0.6171290     0.6221710    -1.4152790
  H       -0.5840790     2.1275670     0.5721320
  H       -2.2164450     1.4834670     0.3126690
  H       -1.1896280     0.7983240     1.5903720
  H       -2.3959300    -0.8708340    -0.5385770
  H       -1.2389410    -1.5925540     0.3789210
  H        2.5336290     0.4505910    -0.1523780
units angstrom
no_reorient  #important for SAPT in psi4, default
symmetry c1  #important for SAPT in psi4, default
}

set PROPERTIES_ORIGIN ["COM"]
properties('MP2/aug-cc-pvtz', properties = ['dipole'])
--------------------------------------------------------------------------

    Molecular point group: c1
  Charge       = 0
  Multiplicity = 1
  Basis Set: AUG-CC-PVTZ
    Blend: AUG-CC-PVTZ
  Basis Set: (AUG-CC-PVTZ AUX)
    Blend: AUG-CC-PVTZ-JKFIT

    Orbital Energies [Eh]
    ---------------------

    Doubly Occupied:

       1A    -20.631502     2A    -20.557046     3A    -15.545816
       4A    -11.392423     5A    -11.276362     6A    -11.233320
       7A     -1.466227     8A     -1.371431     9A     -1.193956
      10A     -1.019986    11A     -0.911563    12A     -0.794290
      13A     -0.722947    14A     -0.711337    15A     -0.647904
      16A     -0.630917    17A     -0.607617    18A     -0.582696
      19A     -0.573514    20A     -0.543508    21A     -0.517313
      22A     -0.489372    23A     -0.451490    24A     -0.400017

  @DF-RHF Final Energy:  -321.99128496156732

   => Energetics <=

    Nuclear Repulsion Energy =            249.9701629780006726
    One-Electron Energy =                -935.3777889798382148
    Two-Electron Energy =                 363.4163410402702539
    Total Energy =                       -321.9912849615673167
  Basis Set: (AUG-CC-PVTZ AUX)
    Blend: AUG-CC-PVTZ-RI
    Molecular point group: c1

    Geometry (in Angstrom), charge = 0, multiplicity = 1:

       Center              X                  Y                   Z               Mass
    ------------   -----------------  -----------------  -----------------  -----------------
         O            1.623268489673     0.758512906861    -0.509245799751    15.994914619570
         O            0.911995989673    -1.067791093139     0.747358900249    15.994914619570
         N           -1.439875510327    -1.034855093139    -0.476886799751    14.003074004430
         C           -0.690590510327     0.215400906861    -0.408660799751    12.000000000000
         C           -1.230331510327     1.254637906861     0.585688200249    12.000000000000
         C            0.725419489673    -0.126314093139    -0.004741799751    12.000000000000
         H           -0.658155510327     0.660581906861    -1.408454799751     1.007825032230
         H           -0.625105510327     2.165977906861     0.578956200249     1.007825032230
         H           -2.257471510327     1.521877906861     0.319493200249     1.007825032230
         H           -1.230654510327     0.836734906861     1.597196200249     1.007825032230
         H           -2.436956510327    -0.832423093139    -0.531752799751     1.007825032230
         H           -1.279967510327    -1.554143093139     0.385745200249     1.007825032230
         H            2.492602489673     0.489001906861    -0.145553799751     1.007825032230

  Basis Set: AUG-CC-PVTZ
    Blend: AUG-CC-PVTZ
  Basis Set: (AUG-CC-PVTZ AUX)
    Blend: AUG-CC-PVTZ-JKFIT
	 Reference Energy          =    -321.9912849615673167 [Eh]
	 Singles Energy            =      -0.0000000000000000 [Eh]
	 Same-Spin Energy          =      -0.3174886511121894 [Eh]
	 Opposite-Spin Energy      =      -1.0009410093903348 [Eh]
	 Correlation Energy        =      -1.3184296605025243 [Eh]
	 Total Energy              =    -323.3097146220698619 [Eh]

	 ================> DF-SCS-MP2 Energies <==================
	-----------------------------------------------------------
	 SCS Same-Spin Scale       =       0.3333333333333333 [-]
	 SCS Opposite-Spin Scale   =       1.2000000000000000 [-]
	 SCS Same-Spin Energy      =      -0.1058295503707298 [Eh]
	 SCS Opposite-Spin Energy  =      -1.2011292112684018 [Eh]
	 SCS Correlation Energy    =      -1.3069587616391316 [Eh]
	 SCS Total Energy          =    -323.2982437232064399 [Eh]
	-----------------------------------------------------------

  Dipole Moment: [D]
     X:    -0.3446      Y:     2.0735      Z:     0.2938     Total:     2.1224

*** Psi4 exiting successfully. Buy a developer a beer!
