                               Psi4 1.4a3.dev225

  ==> Input File <==

--------------------------------------------------------------------------
#psi4
#
memory 32 gb

molecule  {
0 1
  O        1.6642820     0.7200090    -0.5161230
  O        1.0775160    -1.0797240     0.7320070
  N       -1.3989360    -1.0731900    -0.4836900
  C       -0.6392826     0.1941185    -0.4145927
  C       -1.1891480     1.2162680     0.5789130
  C        0.7664420    -0.1647700    -0.0115760
  H       -0.6171430     0.6221670    -1.4153090
  H       -0.5838330     2.1275540     0.5722180
  H       -2.2162690     1.4836440     0.3127790
  H       -1.1894240     0.7982770     1.5903820
  H       -2.3959760    -0.8706470    -0.5387880
  H       -1.2392480    -1.5923700     0.3790470
  H        2.5336150     0.4505320    -0.1524310
units angstrom
no_reorient  #important for SAPT in psi4, default
symmetry c1  #important for SAPT in psi4, default
}

set PROPERTIES_ORIGIN ["COM"]
properties('MP2/aug-cc-pvtz', properties = ['dipole'])
--------------------------------------------------------------------------

    Molecular point group: c1
  Charge       = 0
  Multiplicity = 1
  Basis Set: AUG-CC-PVTZ
    Blend: AUG-CC-PVTZ
  Basis Set: (AUG-CC-PVTZ AUX)
    Blend: AUG-CC-PVTZ-JKFIT

    Orbital Energies [Eh]
    ---------------------

    Doubly Occupied:

       1A    -20.621403     2A    -20.555869     3A    -15.550497
       4A    -11.391669     5A    -11.282659     6A    -11.236777
       7A     -1.465355     8A     -1.362203     9A     -1.194685
      10A     -1.025986    11A     -0.915169    12A     -0.792513
      13A     -0.724078    14A     -0.707198    15A     -0.646542
      16A     -0.628174    17A     -0.609518    18A     -0.583988
      19A     -0.575804    20A     -0.545250    21A     -0.520726
      22A     -0.485623    23A     -0.455804    24A     -0.404986

  @DF-RHF Final Energy:  -321.99505822053618

   => Energetics <=

    Nuclear Repulsion Energy =            249.2985748525082954
    One-Electron Energy =                -934.0223151051404784
    Two-Electron Energy =                 362.7286820320960032
    Total Energy =                       -321.9950582205361798
  Basis Set: (AUG-CC-PVTZ AUX)
    Blend: AUG-CC-PVTZ-RI
    Molecular point group: c1

    Geometry (in Angstrom), charge = 0, multiplicity = 1:

       Center              X                  Y                   Z               Mass
    ------------   -----------------  -----------------  -----------------  -----------------
         O            1.599500839857     0.751356136167    -0.507886751688    15.994914619570
         O            1.012734839857    -1.048376863833     0.740243248312    15.994914619570
         N           -1.463717160143    -1.041842863833    -0.475453751688    14.003074004430
         C           -0.704063760143     0.225465636167    -0.406356451688    12.000000000000
         C           -1.253929160143     1.247615136167     0.587149248312    12.000000000000
         C            0.701660839857    -0.133422863833    -0.003339751688    12.000000000000
         H           -0.681924160143     0.653514136167    -1.407072751688     1.007825032230
         H           -0.648614160143     2.158901136167     0.580454248312     1.007825032230
         H           -2.281050160143     1.514991136167     0.321015248312     1.007825032230
         H           -1.254205160143     0.829624136167     1.598618248312     1.007825032230
         H           -2.460757160143    -0.839299863833    -0.530551751688     1.007825032230
         H           -1.304029160143    -1.561022863833     0.387283248312     1.007825032230
         H            2.468833839857     0.481879136167    -0.144194751688     1.007825032230

  Basis Set: AUG-CC-PVTZ
    Blend: AUG-CC-PVTZ
  Basis Set: (AUG-CC-PVTZ AUX)
    Blend: AUG-CC-PVTZ-JKFIT
	 Reference Energy          =    -321.9950582205361798 [Eh]
	 Singles Energy            =      -0.0000000000000000 [Eh]
	 Same-Spin Energy          =      -0.3169515999818258 [Eh]
	 Opposite-Spin Energy      =      -1.0001507265170479 [Eh]
	 Correlation Energy        =      -1.3171023264988737 [Eh]
	 Total Energy              =    -323.3121605470350346 [Eh]

	 ================> DF-SCS-MP2 Energies <==================
	-----------------------------------------------------------
	 SCS Same-Spin Scale       =       0.3333333333333333 [-]
	 SCS Opposite-Spin Scale   =       1.2000000000000000 [-]
	 SCS Same-Spin Energy      =      -0.1056505333272753 [Eh]
	 SCS Opposite-Spin Energy  =      -1.2001808718204574 [Eh]
	 SCS Correlation Energy    =      -1.3058314051477327 [Eh]
	 SCS Total Energy          =    -323.3008896256839080 [Eh]
	-----------------------------------------------------------

  Dipole Moment: [D]
     X:    -0.7351      Y:     2.0866      Z:     0.2981     Total:     2.2323

*** Psi4 exiting successfully. Buy a developer a beer!
