                               Psi4 1.3.2 release

  ==> Input File <==

--------------------------------------------------------------------------
#psi4
#
memory 32 gb

molecule  {
0 1
  O        1.6465318     0.7319451    -0.5263549
  O        1.0775810    -1.0797050     0.7319740
  N       -1.3988490    -1.0732660    -0.4837110
  C       -0.6495640     0.1769900    -0.4154850
  C       -1.1893050     1.2162270     0.5788640
  C        0.7664460    -0.1647250    -0.0115660
  H       -0.6171290     0.6221710    -1.4152790
  H       -0.5840790     2.1275670     0.5721320
  H       -2.2164450     1.4834670     0.3126690
  H       -1.1896280     0.7983240     1.5903720
  H       -2.3959300    -0.8708340    -0.5385770
  H       -1.2389410    -1.5925540     0.3789210
  H        2.5336290     0.4505910    -0.1523780
units angstrom
no_reorient  #important for SAPT in psi4, default
symmetry c1  #important for SAPT in psi4, default
}

set PROPERTIES_ORIGIN ["COM"]
properties('MP2/aug-cc-pvtz', properties = ['dipole'])
--------------------------------------------------------------------------

    Molecular point group: c1
  Charge       = 0
  Multiplicity = 1
  Basis Set: AUG-CC-PVTZ
    Blend: AUG-CC-PVTZ
  Basis Set: (AUG-CC-PVTZ AUX)
    Blend: AUG-CC-PVTZ-JKFIT

    Orbital Energies [Eh]
    ---------------------

    Doubly Occupied:

       1A    -20.624465     2A    -20.556324     3A    -15.550404
       4A    -11.391289     5A    -11.281790     6A    -11.235988
       7A     -1.462859     8A     -1.361835     9A     -1.199345
      10A     -1.022956    11A     -0.911602    12A     -0.788060
      13A     -0.722649    14A     -0.707462    15A     -0.646070
      16A     -0.629830    17A     -0.609283    18A     -0.583504
      19A     -0.576929    20A     -0.544143    21A     -0.520333
      22A     -0.486222    23A     -0.454345    24A     -0.404060

  @DF-RHF Final Energy:  -321.99321730220026

   => Energetics <=

    Nuclear Repulsion Energy =            249.3091420800590470
    One-Electron Energy =                -934.0612270942121995
    Two-Electron Energy =                 362.7588677119529166
    Total Energy =                       -321.9932173022002644
  Basis Set: (AUG-CC-PVTZ AUX)
    Blend: AUG-CC-PVTZ-RI
    Molecular point group: c1

    Geometry (in Angstrom), charge = 0, multiplicity = 1:

       Center              X                  Y                   Z               Mass
    ------------   -----------------  -----------------  -----------------  -----------------
         O            1.586322513270     0.763469284640    -0.516145616972    15.994914619570
         O            1.017371713270    -1.048180815360     0.742183283028    15.994914619570
         N           -1.459058286730    -1.041741815360    -0.473501716972    14.003074004430
         C           -0.709773286730     0.208514184640    -0.405275716972    12.000000000000
         C           -1.249514286730     1.247751184640     0.589073283028    12.000000000000
         C            0.706236713270    -0.133200815360    -0.001356716972    12.000000000000
         H           -0.677338286730     0.653695184640    -1.405069716972     1.007825032230
         H           -0.644288286730     2.159091184640     0.582341283028     1.007825032230
         H           -2.276654286730     1.514991184640     0.322878283028     1.007825032230
         H           -1.249837286730     0.829848184640     1.600581283028     1.007825032230
         H           -2.456139286730    -0.839309815360    -0.528367716972     1.007825032230
         H           -1.299150286730    -1.561029815360     0.389130283028     1.007825032230
         H            2.473419713270     0.482115184640    -0.142168716972     1.007825032230

  Basis Set: AUG-CC-PVTZ
    Blend: AUG-CC-PVTZ
  Basis Set: (AUG-CC-PVTZ AUX)
    Blend: AUG-CC-PVTZ-JKFIT
	 Reference Energy          =    -321.9932173022002644 [Eh]
	 Singles Energy            =      -0.0000000000000000 [Eh]
	 Same-Spin Energy          =      -0.3173957873840656 [Eh]
	 Opposite-Spin Energy      =      -1.0009436916613508 [Eh]
	 Correlation Energy        =      -1.3183394790454164 [Eh]
	 Total Energy              =    -323.3115567812456561 [Eh]

	 ================> DF-SCS-MP2 Energies <==================
	-----------------------------------------------------------
	 SCS Same-Spin Scale       =       0.3333333333333333 [-]
	 SCS Opposite-Spin Scale   =       1.2000000000000000 [-]
	 SCS Same-Spin Energy      =      -0.1057985957946885 [Eh]
	 SCS Opposite-Spin Energy  =      -1.2011324299936208 [Eh]
	 SCS Correlation Energy    =      -1.3069310257883093 [Eh]
	 SCS Total Energy          =    -323.3001483279885520 [Eh]
	-----------------------------------------------------------

  Dipole Moment: [D]
     X:    -0.7097      Y:     2.0333      Z:     0.2925     Total:     2.1734

*** Psi4 exiting successfully. Buy a developer a beer!
