                               Psi4 1.3.2 release

  ==> Input File <==

--------------------------------------------------------------------------
#psi4
#
memory 32 gb

molecule  {
0 1
  O        1.6642950     0.7201020    -0.5160700
  O        1.0775810    -1.0797050     0.7319740
  N       -1.3988490    -1.0732660    -0.4837110
  C       -0.6495640     0.1769900    -0.4154850
  C       -1.1893050     1.2162270     0.5788640
  C        0.9537956    -0.2099367     0.0418758
  H       -0.6171290     0.6221710    -1.4152790
  H       -0.5840790     2.1275670     0.5721320
  H       -2.2164450     1.4834670     0.3126690
  H       -1.1896280     0.7983240     1.5903720
  H       -2.3959300    -0.8708340    -0.5385770
  H       -1.2389410    -1.5925540     0.3789210
  H        2.5336290     0.4505910    -0.1523780
units angstrom
no_reorient  #important for SAPT in psi4, default
symmetry c1  #important for SAPT in psi4, default
}

set PROPERTIES_ORIGIN ["COM"]
properties('MP2/aug-cc-pvtz', properties = ['dipole'])
--------------------------------------------------------------------------

    Molecular point group: c1
  Charge       = 0
  Multiplicity = 1
  Basis Set: AUG-CC-PVTZ
    Blend: AUG-CC-PVTZ
  Basis Set: (AUG-CC-PVTZ AUX)
    Blend: AUG-CC-PVTZ-JKFIT

    Orbital Energies [Eh]
    ---------------------

    Doubly Occupied:

       1A    -20.642166     2A    -20.569724     3A    -15.538222
       4A    -11.384692     5A    -11.264484     6A    -11.221376
       7A     -1.519443     8A     -1.438366     9A     -1.178189
      10A     -0.994837    11A     -0.882803    12A     -0.793821
      13A     -0.742632    14A     -0.717813    15A     -0.677049
      16A     -0.658427    17A     -0.595362    18A     -0.578601
      19A     -0.567013    20A     -0.555636    21A     -0.526976
      22A     -0.505658    23A     -0.408685    24A     -0.385176

  @DF-RHF Final Energy:  -321.95498524921015

   => Energetics <=

    Nuclear Repulsion Energy =            249.3323639853405496
    One-Electron Energy =                -933.8803949261912294
    Two-Electron Energy =                 362.5930456916405547
    Total Energy =                       -321.9549852492101536
  Basis Set: (AUG-CC-PVTZ AUX)
    Blend: AUG-CC-PVTZ-RI
    Molecular point group: c1

    Geometry (in Angstrom), charge = 0, multiplicity = 1:

       Center              X                  Y                   Z               Mass
    ------------   -----------------  -----------------  -----------------  -----------------
         O            1.575647958228     0.759846160567    -0.514909888283    15.994914619570
         O            0.988933958228    -1.039960839433     0.733134111717    15.994914619570
         N           -1.487496041772    -1.033521839433    -0.482550888283    14.003074004430
         C           -0.738211041772     0.216734160567    -0.414324888283    12.000000000000
         C           -1.277952041772     1.255971160567     0.580024111717    12.000000000000
         C            0.865148558228    -0.170192539433     0.043035911717    12.000000000000
         H           -0.705776041772     0.661915160567    -1.414118888283     1.007825032230
         H           -0.672726041772     2.167311160567     0.573292111717     1.007825032230
         H           -2.305092041772     1.523211160567     0.313829111717     1.007825032230
         H           -1.278275041772     0.838068160567     1.591532111717     1.007825032230
         H           -2.484577041772    -0.831089839433    -0.537416888283     1.007825032230
         H           -1.327588041772    -1.552809839433     0.380081111717     1.007825032230
         H            2.444981958228     0.490335160567    -0.151217888283     1.007825032230

  Basis Set: AUG-CC-PVTZ
    Blend: AUG-CC-PVTZ
  Basis Set: (AUG-CC-PVTZ AUX)
    Blend: AUG-CC-PVTZ-JKFIT
	 Reference Energy          =    -321.9549852492101536 [Eh]
	 Singles Energy            =      -0.0000000000000000 [Eh]
	 Same-Spin Energy          =      -0.3156492291997308 [Eh]
	 Opposite-Spin Energy      =      -0.9971244786048987 [Eh]
	 Correlation Energy        =      -1.3127737078046295 [Eh]
	 Total Energy              =    -323.2677589570147916 [Eh]

	 ================> DF-SCS-MP2 Energies <==================
	-----------------------------------------------------------
	 SCS Same-Spin Scale       =       0.3333333333333333 [-]
	 SCS Opposite-Spin Scale   =       1.2000000000000000 [-]
	 SCS Same-Spin Energy      =      -0.1052164097332436 [Eh]
	 SCS Opposite-Spin Energy  =      -1.1965493743258784 [Eh]
	 SCS Correlation Energy    =      -1.3017657840591219 [Eh]
	 SCS Total Energy          =    -323.2567510332692677 [Eh]
	-----------------------------------------------------------

  Dipole Moment: [D]
     X:     0.4657      Y:     1.7497      Z:     0.5119     Total:     1.8816

*** Psi4 exiting successfully. Buy a developer a beer!
