                               Psi4 1.3.2 release

  ==> Input File <==

--------------------------------------------------------------------------
#psi4
#
memory 32 gb

molecule  {
0 1
  O        1.7325601     0.6700716    -0.4734255
  O        1.0775810    -1.0797050     0.7319740
  N       -1.3988490    -1.0732660    -0.4837110
  C       -0.6495640     0.1769900    -0.4154850
  C       -1.1893050     1.2162270     0.5788640
  C        0.7664460    -0.1647250    -0.0115660
  H       -0.6171290     0.6221710    -1.4152790
  H       -0.5840790     2.1275670     0.5721320
  H       -2.2164450     1.4834670     0.3126690
  H       -1.1896280     0.7983240     1.5903720
  H       -2.3959300    -0.8708340    -0.5385770
  H       -1.2389410    -1.5925540     0.3789210
  H        2.5336290     0.4505910    -0.1523780
units angstrom
no_reorient  #important for SAPT in psi4, default
symmetry c1  #important for SAPT in psi4, default
}

set PROPERTIES_ORIGIN ["COM"]
properties('MP2/aug-cc-pvtz', properties = ['dipole'])
--------------------------------------------------------------------------

    Molecular point group: c1
  Charge       = 0
  Multiplicity = 1
  Basis Set: AUG-CC-PVTZ
    Blend: AUG-CC-PVTZ
  Basis Set: (AUG-CC-PVTZ AUX)
    Blend: AUG-CC-PVTZ-JKFIT

    Orbital Energies [Eh]
    ---------------------

    Doubly Occupied:

       1A    -20.607893     2A    -20.551002     3A    -15.553370
       4A    -11.391833     5A    -11.287719     6A    -11.238512
       7A     -1.475177     8A     -1.362946     9A     -1.202527
      10A     -1.027616    11A     -0.922472    12A     -0.814575
      13A     -0.729315    14A     -0.704255    15A     -0.646217
      16A     -0.626271    17A     -0.615071    18A     -0.586633
      19A     -0.579316    20A     -0.545066    21A     -0.522861
      22A     -0.481733    23A     -0.454394    24A     -0.407039

  @DF-RHF Final Energy:  -321.99236945282564

   => Energetics <=

    Nuclear Repulsion Energy =            249.4570367546371585
    One-Electron Energy =                -934.2311882010518502
    Two-Electron Energy =                 362.7817819935889929
    Total Energy =                       -321.9923694528256419
  Basis Set: (AUG-CC-PVTZ AUX)
    Blend: AUG-CC-PVTZ-RI
    Molecular point group: c1

    Geometry (in Angstrom), charge = 0, multiplicity = 1:

       Center              X                  Y                   Z               Mass
    ------------   -----------------  -----------------  -----------------  -----------------
         O            1.656898245196     0.712709621258    -0.472723497211    15.994914619570
         O            1.001919145196    -1.037066978742     0.732676002789    15.994914619570
         N           -1.474510854804    -1.030627978742    -0.483008997211    14.003074004430
         C           -0.725225854804     0.219628021258    -0.414782997211    12.000000000000
         C           -1.264966854804     1.258865021258     0.579566002789    12.000000000000
         C            0.690784145196    -0.122086978742    -0.010863997211    12.000000000000
         H           -0.692790854804     0.664809021258    -1.414576997211     1.007825032230
         H           -0.659740854804     2.170205021258     0.572834002789     1.007825032230
         H           -2.292106854804     1.526105021258     0.313371002789     1.007825032230
         H           -1.265289854804     0.840962021258     1.591074002789     1.007825032230
         H           -2.471591854804    -0.828195978742    -0.537874997211     1.007825032230
         H           -1.314602854804    -1.549915978742     0.379623002789     1.007825032230
         H            2.457967145196     0.493229021258    -0.151675997211     1.007825032230

  Basis Set: AUG-CC-PVTZ
    Blend: AUG-CC-PVTZ
  Basis Set: (AUG-CC-PVTZ AUX)
    Blend: AUG-CC-PVTZ-JKFIT
	 Reference Energy          =    -321.9923694528256419 [Eh]
	 Singles Energy            =      -0.0000000000000000 [Eh]
	 Same-Spin Energy          =      -0.3152965813028937 [Eh]
	 Opposite-Spin Energy      =      -0.9964703027853758 [Eh]
	 Correlation Energy        =      -1.3117668840882697 [Eh]
	 Total Energy              =    -323.3041363369139276 [Eh]

	 ================> DF-SCS-MP2 Energies <==================
	-----------------------------------------------------------
	 SCS Same-Spin Scale       =       0.3333333333333333 [-]
	 SCS Opposite-Spin Scale   =       1.2000000000000000 [-]
	 SCS Same-Spin Energy      =      -0.1050988604342979 [Eh]
	 SCS Opposite-Spin Energy  =      -1.1957643633424511 [Eh]
	 SCS Correlation Energy    =      -1.3008632237767490 [Eh]
	 SCS Total Energy          =    -323.2932326766023721 [Eh]
	-----------------------------------------------------------

  Dipole Moment: [D]
     X:    -0.9611      Y:     2.0798      Z:     0.2518     Total:     2.3049

*** Psi4 exiting successfully. Buy a developer a beer!
