                               Psi4 1.3.2 release

  ==> Input File <==

--------------------------------------------------------------------------
#psi4
#
memory 32 gb

molecule  {
0 1
  O        1.6642950     0.7201020    -0.5160700
  O        1.0775810    -1.0797050     0.7319740
  N       -1.3988490    -1.0732660    -0.4837110
  C       -0.7385270     0.2263917    -0.4197770
  C       -1.1893050     1.2162270     0.5788640
  C        0.7664460    -0.1647250    -0.0115660
  H       -0.6171290     0.6221710    -1.4152790
  H       -0.5840790     2.1275670     0.5721320
  H       -2.2164450     1.4834670     0.3126690
  H       -1.1896280     0.7983240     1.5903720
  H       -2.3959300    -0.8708340    -0.5385770
  H       -1.2389410    -1.5925540     0.3789210
  H        2.5336290     0.4505910    -0.1523780
units angstrom
no_reorient  #important for SAPT in psi4, default
symmetry c1  #important for SAPT in psi4, default
}

set PROPERTIES_ORIGIN ["COM"]
properties('MP2/aug-cc-pvtz', properties = ['dipole'])
--------------------------------------------------------------------------

    Molecular point group: c1
  Charge       = 0
  Multiplicity = 1
  Basis Set: AUG-CC-PVTZ
    Blend: AUG-CC-PVTZ
  Basis Set: (AUG-CC-PVTZ AUX)
    Blend: AUG-CC-PVTZ-JKFIT

    Orbital Energies [Eh]
    ---------------------

    Doubly Occupied:

       1A    -20.619769     2A    -20.553865     3A    -15.552493
       4A    -11.389459     5A    -11.285599     6A    -11.233787
       7A     -1.461159     8A     -1.358957     9A     -1.202029
      10A     -1.029751    11A     -0.899108    12A     -0.794168
      13A     -0.717476    14A     -0.705668    15A     -0.641609
      16A     -0.627717    17A     -0.619930    18A     -0.592794
      19A     -0.580417    20A     -0.532331    21A     -0.524805
      22A     -0.484271    23A     -0.438895    24A     -0.412593

  @DF-RHF Final Energy:  -321.98567960957041

   => Energetics <=

    Nuclear Repulsion Energy =            248.5092335697849251
    One-Electron Energy =                -932.4725243802373598
    Two-Electron Energy =                 361.9776112008820519
    Total Energy =                       -321.9856796095704112
  Basis Set: (AUG-CC-PVTZ AUX)
    Blend: AUG-CC-PVTZ-RI
    Molecular point group: c1

    Geometry (in Angstrom), charge = 0, multiplicity = 1:

       Center              X                  Y                   Z               Mass
    ------------   -----------------  -----------------  -----------------  -----------------
         O            1.612883642044     0.747096128005    -0.507129723636    15.994914619570
         O            1.026169642044    -1.052710871995     0.740914276364    15.994914619570
         N           -1.450260357956    -1.046271871995    -0.474770723636    14.003074004430
         C           -0.789938357956     0.253385828005    -0.410836723636    12.000000000000
         C           -1.240716357956     1.243221128005     0.587804276364    12.000000000000
         C            0.715034642044    -0.137730871995    -0.002625723636    12.000000000000
         H           -0.668540357956     0.649165128005    -1.406338723636     1.007825032230
         H           -0.635490357956     2.154561128005     0.581072276364     1.007825032230
         H           -2.267856357956     1.510461128005     0.321609276364     1.007825032230
         H           -1.241039357956     0.825318128005     1.599312276364     1.007825032230
         H           -2.447341357956    -0.843839871995    -0.529636723636     1.007825032230
         H           -1.290352357956    -1.565559871995     0.387861276364     1.007825032230
         H            2.482217642044     0.477585128005    -0.143437723636     1.007825032230

  Basis Set: AUG-CC-PVTZ
    Blend: AUG-CC-PVTZ
  Basis Set: (AUG-CC-PVTZ AUX)
    Blend: AUG-CC-PVTZ-JKFIT
	 Reference Energy          =    -321.9856796095704112 [Eh]
	 Singles Energy            =      -0.0000000000000000 [Eh]
	 Same-Spin Energy          =      -0.3173073526349948 [Eh]
	 Opposite-Spin Energy      =      -1.0006722825245498 [Eh]
	 Correlation Energy        =      -1.3179796351595445 [Eh]
	 Total Energy              =    -323.3036592447299427 [Eh]

	 ================> DF-SCS-MP2 Energies <==================
	-----------------------------------------------------------
	 SCS Same-Spin Scale       =       0.3333333333333333 [-]
	 SCS Opposite-Spin Scale   =       1.2000000000000000 [-]
	 SCS Same-Spin Energy      =      -0.1057691175449983 [Eh]
	 SCS Opposite-Spin Energy  =      -1.2008067390294597 [Eh]
	 SCS Correlation Energy    =      -1.3065758565744579 [Eh]
	 SCS Total Energy          =    -323.2922554661448657 [Eh]
	-----------------------------------------------------------

  Dipole Moment: [D]
     X:    -0.7602      Y:     2.0557      Z:     0.3284     Total:     2.2162

*** Psi4 exiting successfully. Buy a developer a beer!
