                               Psi4 1.3.2 release

  ==> Input File <==

--------------------------------------------------------------------------
#psi4
#
memory 32 gb

molecule  {
0 1
  O        1.6642950     0.7201020    -0.5160700
  O        1.0775810    -1.0797050     0.7319740
  N       -1.3729789    -1.0876176    -0.3338678
  C       -0.6495640     0.1769900    -0.4154850
  C       -1.1893050     1.2162270     0.5788640
  C        0.7664460    -0.1647250    -0.0115660
  H       -0.6171290     0.6221710    -1.4152790
  H       -0.5840790     2.1275670     0.5721320
  H       -2.2164450     1.4834670     0.3126690
  H       -1.1896280     0.7983240     1.5903720
  H       -2.3959300    -0.8708340    -0.5385770
  H       -1.2389410    -1.5925540     0.3789210
  H        2.5336290     0.4505910    -0.1523780
units angstrom
no_reorient  #important for SAPT in psi4, default
symmetry c1  #important for SAPT in psi4, default
}

set PROPERTIES_ORIGIN ["COM"]
properties('MP2/aug-cc-pvtz', properties = ['dipole'])
--------------------------------------------------------------------------

    Molecular point group: c1
  Charge       = 0
  Multiplicity = 1
  Basis Set: AUG-CC-PVTZ
    Blend: AUG-CC-PVTZ
  Basis Set: (AUG-CC-PVTZ AUX)
    Blend: AUG-CC-PVTZ-JKFIT

    Orbital Energies [Eh]
    ---------------------

    Doubly Occupied:

       1A    -20.620143     2A    -20.553503     3A    -15.536771
       4A    -11.389334     5A    -11.285244     6A    -11.233836
       7A     -1.463786     8A     -1.360794     9A     -1.207442
      10A     -1.028711    11A     -0.912711    12A     -0.799130
      13A     -0.731417    14A     -0.709910    15A     -0.644078
      16A     -0.640177    17A     -0.620350    18A     -0.583788
      19A     -0.571246    20A     -0.540446    21A     -0.528572
      22A     -0.483584    23A     -0.452782    24A     -0.393195

  @DF-RHF Final Energy:  -321.97315066135570

   => Energetics <=

    Nuclear Repulsion Energy =            250.4438488132900602
    One-Electron Energy =                -936.2520976334051284
    Two-Electron Energy =                 363.8350981587593651
    Total Energy =                       -321.9731506613557031
  Basis Set: (AUG-CC-PVTZ AUX)
    Blend: AUG-CC-PVTZ-RI
    Molecular point group: c1

    Geometry (in Angstrom), charge = 0, multiplicity = 1:

       Center              X                  Y                   Z               Mass
    ------------   -----------------  -----------------  -----------------  -----------------
         O            1.596826885154     0.756010306685    -0.531271503136    15.994914619570
         O            1.010112885154    -1.043796693315     0.716772496864    15.994914619570
         N           -1.440447014846    -1.051709293315    -0.349069303136    14.003074004430
         C           -0.717032114846     0.212898306685    -0.430686503136    12.000000000000
         C           -1.256773114846     1.252135306685     0.563662496864    12.000000000000
         C            0.698977885154    -0.128816693315    -0.026767503136    12.000000000000
         H           -0.684597114846     0.658079306685    -1.430480503136     1.007825032230
         H           -0.651547114846     2.163475306685     0.556930496864     1.007825032230
         H           -2.283913114846     1.519375306685     0.297467496864     1.007825032230
         H           -1.257096114846     0.834232306685     1.575170496864     1.007825032230
         H           -2.463398114846    -0.834925693315    -0.553778503136     1.007825032230
         H           -1.306409114846    -1.556645693315     0.363719496864     1.007825032230
         H            2.466160885154     0.486499306685    -0.167579503136     1.007825032230

  Basis Set: AUG-CC-PVTZ
    Blend: AUG-CC-PVTZ
  Basis Set: (AUG-CC-PVTZ AUX)
    Blend: AUG-CC-PVTZ-JKFIT
	 Reference Energy          =    -321.9731506613557031 [Eh]
	 Singles Energy            =      -0.0000000000000000 [Eh]
	 Same-Spin Energy          =      -0.3166899064661922 [Eh]
	 Opposite-Spin Energy      =      -0.9988337465117395 [Eh]
	 Correlation Energy        =      -1.3155236529779317 [Eh]
	 Total Energy              =    -323.2886743143336616 [Eh]

	 ================> DF-SCS-MP2 Energies <==================
	-----------------------------------------------------------
	 SCS Same-Spin Scale       =       0.3333333333333333 [-]
	 SCS Opposite-Spin Scale   =       1.2000000000000000 [-]
	 SCS Same-Spin Energy      =      -0.1055633021553974 [Eh]
	 SCS Opposite-Spin Energy  =      -1.1986004958140875 [Eh]
	 SCS Correlation Energy    =      -1.3041637979694849 [Eh]
	 SCS Total Energy          =    -323.2773144593251686 [Eh]
	-----------------------------------------------------------

  Dipole Moment: [D]
     X:    -0.7936      Y:     1.9845      Z:    -0.0215     Total:     2.1374

*** Psi4 exiting successfully. Buy a developer a beer!
