                               Psi4 1.3.2 release

  ==> Input File <==

--------------------------------------------------------------------------
#psi4
#
memory 32 gb

molecule  {
0 1
  O        1.6642950     0.7201020    -0.5160700
  O        1.0775810    -1.0797050     0.7319740
  N       -1.3988490    -1.0732660    -0.4837110
  C       -0.6495640     0.1769900    -0.4154850
  C       -1.1976324     1.2848235     0.4968690
  C        0.7664460    -0.1647250    -0.0115660
  H       -0.6171290     0.6221710    -1.4152790
  H       -0.5840790     2.1275670     0.5721320
  H       -2.2164450     1.4834670     0.3126690
  H       -1.1896280     0.7983240     1.5903720
  H       -2.3959300    -0.8708340    -0.5385770
  H       -1.2389410    -1.5925540     0.3789210
  H        2.5336290     0.4505910    -0.1523780
units angstrom
no_reorient  #important for SAPT in psi4, default
symmetry c1  #important for SAPT in psi4, default
}

set PROPERTIES_ORIGIN ["COM"]
properties('MP2/aug-cc-pvtz', properties = ['dipole'])
--------------------------------------------------------------------------

    Molecular point group: c1
  Charge       = 0
  Multiplicity = 1
  Basis Set: AUG-CC-PVTZ
    Blend: AUG-CC-PVTZ
  Basis Set: (AUG-CC-PVTZ AUX)
    Blend: AUG-CC-PVTZ-JKFIT

    Orbital Energies [Eh]
    ---------------------

    Doubly Occupied:

       1A    -20.621925     2A    -20.555993     3A    -15.552845
       4A    -11.392311     5A    -11.283529     6A    -11.238425
       7A     -1.465388     8A     -1.362367     9A     -1.200146
      10A     -1.025574    11A     -0.914708    12A     -0.793247
      13A     -0.723466    14A     -0.707998    15A     -0.648457
      16A     -0.629651    17A     -0.618987    18A     -0.585948
      19A     -0.578025    20A     -0.554097    21A     -0.495724
      22A     -0.485768    23A     -0.455315    24A     -0.406267

  @DF-RHF Final Energy:  -321.98422779653669

   => Energetics <=

    Nuclear Repulsion Energy =            249.0143585016942325
    One-Electron Energy =                -933.4048498356696655
    Two-Electron Energy =                 362.4062635374387469
    Total Energy =                       -321.9842277965366861
  Basis Set: (AUG-CC-PVTZ AUX)
    Blend: AUG-CC-PVTZ-RI
    Molecular point group: c1

    Geometry (in Angstrom), charge = 0, multiplicity = 1:

       Center              X                  Y                   Z               Mass
    ------------   -----------------  -----------------  -----------------  -----------------
         O            1.602017247584     0.744509450801    -0.496658524206    15.994914619570
         O            1.015303247584    -1.055297549199     0.751385475794    15.994914619570
         N           -1.461126752416    -1.048858549199    -0.464299524206    14.003074004430
         C           -0.711841752416     0.201397450801    -0.396073524206    12.000000000000
         C           -1.259910152416     1.309230950801     0.516280475794    12.000000000000
         C            0.704168247584    -0.140317549199     0.007845475794    12.000000000000
         H           -0.679406752416     0.646578450801    -1.395867524206     1.007825032230
         H           -0.646356752416     2.151974450801     0.591543475794     1.007825032230
         H           -2.278722752416     1.507874450801     0.332080475794     1.007825032230
         H           -1.251905752416     0.822731450801     1.609783475794     1.007825032230
         H           -2.458207752416    -0.846426549199    -0.519165524206     1.007825032230
         H           -1.301218752416    -1.568146549199     0.398332475794     1.007825032230
         H            2.471351247584     0.474998450801    -0.132966524206     1.007825032230

  Basis Set: AUG-CC-PVTZ
    Blend: AUG-CC-PVTZ
  Basis Set: (AUG-CC-PVTZ AUX)
    Blend: AUG-CC-PVTZ-JKFIT
	 Reference Energy          =    -321.9842277965366861 [Eh]
	 Singles Energy            =      -0.0000000000000000 [Eh]
	 Same-Spin Energy          =      -0.3171179907938938 [Eh]
	 Opposite-Spin Energy      =      -1.0005350766338363 [Eh]
	 Correlation Energy        =      -1.3176530674277300 [Eh]
	 Total Energy              =    -323.3018808639644135 [Eh]

	 ================> DF-SCS-MP2 Energies <==================
	-----------------------------------------------------------
	 SCS Same-Spin Scale       =       0.3333333333333333 [-]
	 SCS Opposite-Spin Scale   =       1.2000000000000000 [-]
	 SCS Same-Spin Energy      =      -0.1057059969312979 [Eh]
	 SCS Opposite-Spin Energy  =      -1.2006420919606036 [Eh]
	 SCS Correlation Energy    =      -1.3063480888919015 [Eh]
	 SCS Total Energy          =    -323.2905758854286091 [Eh]
	-----------------------------------------------------------

  Dipole Moment: [D]
     X:    -0.7524      Y:     2.0385      Z:     0.2318     Total:     2.1852

*** Psi4 exiting successfully. Buy a developer a beer!
