                               Psi4 1.4a3.dev225

  ==> Input File <==

--------------------------------------------------------------------------
#psi4
#
memory 32 gb

molecule  {
0 1
  O        1.6642820     0.7200090    -0.5161230
  O        1.0775160    -1.0797240     0.7320070
  N       -1.3989360    -1.0731900    -0.4836900
  C       -0.6495540     0.1769830    -0.4155270
  C       -1.2067096     1.2500925     0.6112780
  C        0.7664420    -0.1647700    -0.0115760
  H       -0.6171430     0.6221670    -1.4153090
  H       -0.5838330     2.1275540     0.5722180
  H       -2.2162690     1.4836440     0.3127790
  H       -1.1894240     0.7982770     1.5903820
  H       -2.3959760    -0.8706470    -0.5387880
  H       -1.2392480    -1.5923700     0.3790470
  H        2.5336150     0.4505320    -0.1524310
units angstrom
no_reorient  #important for SAPT in psi4, default
symmetry c1  #important for SAPT in psi4, default
}

set PROPERTIES_ORIGIN ["COM"]
properties('MP2/aug-cc-pvtz', properties = ['dipole'])
--------------------------------------------------------------------------

    Molecular point group: c1
  Charge       = 0
  Multiplicity = 1
  Basis Set: AUG-CC-PVTZ
    Blend: AUG-CC-PVTZ
  Basis Set: (AUG-CC-PVTZ AUX)
    Blend: AUG-CC-PVTZ-JKFIT

    Orbital Energies [Eh]
    ---------------------

    Doubly Occupied:

       1A    -20.621118     2A    -20.554697     3A    -15.551388
       4A    -11.390830     5A    -11.284538     6A    -11.235076
       7A     -1.464488     8A     -1.361461     9A     -1.197697
      10A     -1.018675    11A     -0.916078    12A     -0.792192
      13A     -0.722759    14A     -0.706602    15A     -0.644051
      16A     -0.628513    17A     -0.611787    18A     -0.585952
      19A     -0.573081    20A     -0.546548    21A     -0.526685
      22A     -0.484645    23A     -0.454972    24A     -0.400707

  @DF-RHF Final Energy:  -321.99402209405389

   => Energetics <=

    Nuclear Repulsion Energy =            248.5546350065795593
    One-Electron Energy =                -932.5482345487517932
    Two-Electron Energy =                 361.9995774481183162
    Total Energy =                       -321.9940220940538893
  Basis Set: (AUG-CC-PVTZ AUX)
    Blend: AUG-CC-PVTZ-RI
    Molecular point group: c1

    Geometry (in Angstrom), charge = 0, multiplicity = 1:

       Center              X                  Y                   Z               Mass
    ------------   -----------------  -----------------  -----------------  -----------------
         O            1.603251594573     0.749107138738    -0.512122329824    15.994914619570
         O            1.016485594573    -1.050625861262     0.736007670176    15.994914619570
         N           -1.459966405427    -1.044091861262    -0.479689329824    14.003074004430
         C           -0.710584405427     0.206081138738    -0.411526329824    12.000000000000
         C           -1.267740005427     1.279190638738     0.615278670176    12.000000000000
         C            0.705411594573    -0.135671861262    -0.007575329824    12.000000000000
         H           -0.678173405427     0.651265138738    -1.411308329824     1.007825032230
         H           -0.644863405427     2.156652138738     0.576218670176     1.007825032230
         H           -2.277299405427     1.512742138738     0.316779670176     1.007825032230
         H           -1.250454405427     0.827375138738     1.594382670176     1.007825032230
         H           -2.457006405427    -0.841548861262    -0.534787329824     1.007825032230
         H           -1.300278405427    -1.563271861262     0.383047670176     1.007825032230
         H            2.472584594573     0.479630138738    -0.148430329824     1.007825032230

  Basis Set: AUG-CC-PVTZ
    Blend: AUG-CC-PVTZ
  Basis Set: (AUG-CC-PVTZ AUX)
    Blend: AUG-CC-PVTZ-JKFIT
	 Reference Energy          =    -321.9940220940538893 [Eh]
	 Singles Energy            =      -0.0000000000000000 [Eh]
	 Same-Spin Energy          =      -0.3167388270675809 [Eh]
	 Opposite-Spin Energy      =      -0.9998430990742888 [Eh]
	 Correlation Energy        =      -1.3165819261418696 [Eh]
	 Total Energy              =    -323.3106040201957398 [Eh]

	 ================> DF-SCS-MP2 Energies <==================
	-----------------------------------------------------------
	 SCS Same-Spin Scale       =       0.3333333333333333 [-]
	 SCS Opposite-Spin Scale   =       1.2000000000000000 [-]
	 SCS Same-Spin Energy      =      -0.1055796090225270 [Eh]
	 SCS Opposite-Spin Energy  =      -1.1998117188891466 [Eh]
	 SCS Correlation Energy    =      -1.3053913279116736 [Eh]
	 SCS Total Energy          =    -323.2994134219655393 [Eh]
	-----------------------------------------------------------

  Dipole Moment: [D]
     X:    -0.7743      Y:     2.0224      Z:     0.2679     Total:     2.1821

*** Psi4 exiting successfully. Buy a developer a beer!
