                               Psi4 1.3.2 release

  ==> Input File <==

--------------------------------------------------------------------------
#psi4
#
memory 32 gb

molecule  {
0 1
  O        1.6642950     0.7201020    -0.5160700
  O        1.0775810    -1.0797050     0.7319740
  N       -1.3988490    -1.0732660    -0.4837110
  C       -0.6495640     0.1769900    -0.4154850
  C       -1.2595723     1.3515223     0.7083155
  C        0.7664460    -0.1647250    -0.0115660
  H       -0.6171290     0.6221710    -1.4152790
  H       -0.5840790     2.1275670     0.5721320
  H       -2.2164450     1.4834670     0.3126690
  H       -1.1896280     0.7983240     1.5903720
  H       -2.3959300    -0.8708340    -0.5385770
  H       -1.2389410    -1.5925540     0.3789210
  H        2.5336290     0.4505910    -0.1523780
units angstrom
no_reorient  #important for SAPT in psi4, default
symmetry c1  #important for SAPT in psi4, default
}

set PROPERTIES_ORIGIN ["COM"]
properties('MP2/aug-cc-pvtz', properties = ['dipole'])
--------------------------------------------------------------------------

    Molecular point group: c1
  Charge       = 0
  Multiplicity = 1
  Basis Set: AUG-CC-PVTZ
    Blend: AUG-CC-PVTZ
  Basis Set: (AUG-CC-PVTZ AUX)
    Blend: AUG-CC-PVTZ-JKFIT

    Orbital Energies [Eh]
    ---------------------

    Doubly Occupied:

       1A    -20.620150     2A    -20.553121     3A    -15.553185
       4A    -11.389803     5A    -11.288203     6A    -11.235630
       7A     -1.463246     8A     -1.360233     9A     -1.193455
      10A     -1.007375    11A     -0.923090    12A     -0.790803
      13A     -0.719684    14A     -0.705215    15A     -0.640897
      16A     -0.627673    17A     -0.619877    18A     -0.598827
      19A     -0.571911    20A     -0.546133    21A     -0.524971
      22A     -0.481830    23A     -0.455184    24A     -0.383703

  @DF-RHF Final Energy:  -321.96995558977790

   => Energetics <=

    Nuclear Repulsion Energy =            246.3587902939531205
    One-Electron Energy =                -928.1490952759595530
    Two-Electron Energy =                 359.8203493922285361
    Total Energy =                       -321.9699555897778964
  Basis Set: (AUG-CC-PVTZ AUX)
    Blend: AUG-CC-PVTZ-RI
    Molecular point group: c1

    Geometry (in Angstrom), charge = 0, multiplicity = 1:

       Center              X                  Y                   Z               Mass
    ------------   -----------------  -----------------  -----------------  -----------------
         O            1.610364223190     0.735521169312    -0.525152899844    15.994914619570
         O            1.023650223190    -1.064285830688     0.722891100156    15.994914619570
         N           -1.452779776810    -1.057846830688    -0.492793899844    14.003074004430
         C           -0.703494776810     0.192409169312    -0.424567899844    12.000000000000
         C           -1.313503076810     1.366941469312     0.699232600156    12.000000000000
         C            0.712515223190    -0.149305830688    -0.020648899844    12.000000000000
         H           -0.671059776810     0.637590169312    -1.424361899844     1.007825032230
         H           -0.638009776810     2.142986169312     0.563049100156     1.007825032230
         H           -2.270375776810     1.498886169312     0.303586100156     1.007825032230
         H           -1.243558776810     0.813743169312     1.581289100156     1.007825032230
         H           -2.449860776810    -0.855414830688    -0.547659899844     1.007825032230
         H           -1.292871776810    -1.577134830688     0.369838100156     1.007825032230
         H            2.479698223190     0.466010169312    -0.161460899844     1.007825032230

  Basis Set: AUG-CC-PVTZ
    Blend: AUG-CC-PVTZ
  Basis Set: (AUG-CC-PVTZ AUX)
    Blend: AUG-CC-PVTZ-JKFIT
	 Reference Energy          =    -321.9699555897778964 [Eh]
	 Singles Energy            =      -0.0000000000000000 [Eh]
	 Same-Spin Energy          =      -0.3171358554664812 [Eh]
	 Opposite-Spin Energy      =      -1.0013202915924309 [Eh]
	 Correlation Energy        =      -1.3184561470589120 [Eh]
	 Total Energy              =    -323.2884117368367924 [Eh]

	 ================> DF-SCS-MP2 Energies <==================
	-----------------------------------------------------------
	 SCS Same-Spin Scale       =       0.3333333333333333 [-]
	 SCS Opposite-Spin Scale   =       1.2000000000000000 [-]
	 SCS Same-Spin Energy      =      -0.1057119518221604 [Eh]
	 SCS Opposite-Spin Energy  =      -1.2015843499109169 [Eh]
	 SCS Correlation Energy    =      -1.3072963017330772 [Eh]
	 SCS Total Energy          =    -323.2772518915109572 [Eh]
	-----------------------------------------------------------

  Dipole Moment: [D]
     X:    -0.8140      Y:     1.9196      Z:     0.1881     Total:     2.0936

*** Psi4 exiting successfully. Buy a developer a beer!
