                               Psi4 1.3.2 release

  ==> Input File <==

--------------------------------------------------------------------------
#psi4
#
memory 32 gb

molecule  {
0 1
  O        1.6642950     0.7201020    -0.5160700
  O        1.0775810    -1.0797050     0.7319740
  N       -1.3988490    -1.0732660    -0.4837110
  C       -0.6495640     0.1769900    -0.4154850
  C       -1.1658757     1.2155903     0.5918856
  C        0.7664460    -0.1647250    -0.0115660
  H       -0.6171290     0.6221710    -1.4152790
  H       -0.5840790     2.1275670     0.5721320
  H       -2.2164450     1.4834670     0.3126690
  H       -1.1896280     0.7983240     1.5903720
  H       -2.3959300    -0.8708340    -0.5385770
  H       -1.2389410    -1.5925540     0.3789210
  H        2.5336290     0.4505910    -0.1523780
units angstrom
no_reorient  #important for SAPT in psi4, default
symmetry c1  #important for SAPT in psi4, default
}

set PROPERTIES_ORIGIN ["COM"]
properties('MP2/aug-cc-pvtz', properties = ['dipole'])
--------------------------------------------------------------------------

    Molecular point group: c1
  Charge       = 0
  Multiplicity = 1
  Basis Set: AUG-CC-PVTZ
    Blend: AUG-CC-PVTZ
  Basis Set: (AUG-CC-PVTZ AUX)
    Blend: AUG-CC-PVTZ-JKFIT

    Orbital Energies [Eh]
    ---------------------

    Doubly Occupied:

       1A    -20.621200     2A    -20.554729     3A    -15.551472
       4A    -11.390696     5A    -11.283152     6A    -11.236770
       7A     -1.464678     8A     -1.361563     9A     -1.200081
      10A     -1.024709    11A     -0.912735    12A     -0.792813
      13A     -0.724173    14A     -0.706889    15A     -0.645405
      16A     -0.629130    17A     -0.613590    18A     -0.583161
      19A     -0.578289    20A     -0.538472    21A     -0.525079
      22A     -0.485019    23A     -0.453212    24A     -0.405517

  @DF-RHF Final Energy:  -321.99487507196312

   => Energetics <=

    Nuclear Repulsion Energy =            249.4250322473164090
    One-Electron Energy =                -934.2747460314099044
    Two-Electron Energy =                 362.8548387121304017
    Total Energy =                       -321.9948750719631221
  Basis Set: (AUG-CC-PVTZ AUX)
    Blend: AUG-CC-PVTZ-RI
    Molecular point group: c1

    Geometry (in Angstrom), charge = 0, multiplicity = 1:

       Center              X                  Y                   Z               Mass
    ------------   -----------------  -----------------  -----------------  -----------------
         O            1.597737737926     0.753839266180    -0.509462891704    15.994914619570
         O            1.011023737926    -1.045967733820     0.738581108296    15.994914619570
         N           -1.465406262074    -1.039528733820    -0.477103891704    14.003074004430
         C           -0.716121262074     0.210727266180    -0.408877891704    12.000000000000
         C           -1.232432962074     1.249327566180     0.598492708296    12.000000000000
         C            0.699888737926    -0.130987733820    -0.004958891704    12.000000000000
         H           -0.683686262074     0.655908266180    -1.408671891704     1.007825032230
         H           -0.650636262074     2.161304266180     0.578739108296     1.007825032230
         H           -2.283002262074     1.517204266180     0.319276108296     1.007825032230
         H           -1.256185262074     0.832061266180     1.596979108296     1.007825032230
         H           -2.462487262074    -0.837096733820    -0.531969891704     1.007825032230
         H           -1.305498262074    -1.558816733820     0.385528108296     1.007825032230
         H            2.467071737926     0.484328266180    -0.145770891704     1.007825032230

  Basis Set: AUG-CC-PVTZ
    Blend: AUG-CC-PVTZ
  Basis Set: (AUG-CC-PVTZ AUX)
    Blend: AUG-CC-PVTZ-JKFIT
	 Reference Energy          =    -321.9948750719631221 [Eh]
	 Singles Energy            =      -0.0000000000000000 [Eh]
	 Same-Spin Energy          =      -0.3169864155524975 [Eh]
	 Opposite-Spin Energy      =      -0.9999923558633809 [Eh]
	 Correlation Energy        =      -1.3169787714158785 [Eh]
	 Total Energy              =    -323.3118538433790263 [Eh]

	 ================> DF-SCS-MP2 Energies <==================
	-----------------------------------------------------------
	 SCS Same-Spin Scale       =       0.3333333333333333 [-]
	 SCS Opposite-Spin Scale   =       1.2000000000000000 [-]
	 SCS Same-Spin Energy      =      -0.1056621385174992 [Eh]
	 SCS Opposite-Spin Energy  =      -1.1999908270360571 [Eh]
	 SCS Correlation Energy    =      -1.3056529655535563 [Eh]
	 SCS Total Energy          =    -323.3005280375166990 [Eh]
	-----------------------------------------------------------

  Dipole Moment: [D]
     X:    -0.7593      Y:     2.0414      Z:     0.2857     Total:     2.1967

*** Psi4 exiting successfully. Buy a developer a beer!
