                               Psi4 1.3.2 release

  ==> Input File <==

--------------------------------------------------------------------------
#psi4
#
memory 32 gb

molecule  {
0 1
  O        1.6642950     0.7201020    -0.5160700
  O        1.0775810    -1.0797050     0.7319740
  N       -1.3988490    -1.0732660    -0.4837110
  C       -0.6032057     0.1766664    -0.3885373
  C       -1.1893050     1.2162270     0.5788640
  C        0.7664460    -0.1647250    -0.0115660
  H       -0.6171290     0.6221710    -1.4152790
  H       -0.5840790     2.1275670     0.5721320
  H       -2.2164450     1.4834670     0.3126690
  H       -1.1896280     0.7983240     1.5903720
  H       -2.3959300    -0.8708340    -0.5385770
  H       -1.2389410    -1.5925540     0.3789210
  H        2.5336290     0.4505910    -0.1523780
units angstrom
no_reorient  #important for SAPT in psi4, default
symmetry c1  #important for SAPT in psi4, default
}

set PROPERTIES_ORIGIN ["COM"]
properties('MP2/aug-cc-pvtz', properties = ['dipole'])
--------------------------------------------------------------------------

    Molecular point group: c1
  Charge       = 0
  Multiplicity = 1
  Basis Set: AUG-CC-PVTZ
    Blend: AUG-CC-PVTZ
  Basis Set: (AUG-CC-PVTZ AUX)
    Blend: AUG-CC-PVTZ-JKFIT

    Orbital Energies [Eh]
    ---------------------

    Doubly Occupied:

       1A    -20.621950     2A    -20.556038     3A    -15.550784
       4A    -11.391136     5A    -11.282599     6A    -11.238300
       7A     -1.466930     8A     -1.363309     9A     -1.193992
      10A     -1.028373    11A     -0.922284    12A     -0.790204
      13A     -0.725386    14A     -0.707267    15A     -0.649743
      16A     -0.629095    17A     -0.606013    18A     -0.586959
      19A     -0.571247    20A     -0.551346    21A     -0.512724
      22A     -0.485704    23A     -0.460043    24A     -0.403518

  @DF-RHF Final Energy:  -321.99193949796813

   => Energetics <=

    Nuclear Repulsion Energy =            249.8137030703289554
    One-Electron Energy =                -935.0213967247127584
    Two-Electron Energy =                 363.2157541564156418
    Total Energy =                       -321.9919394979681329
  Basis Set: (AUG-CC-PVTZ AUX)
    Blend: AUG-CC-PVTZ-RI
    Molecular point group: c1

    Geometry (in Angstrom), charge = 0, multiplicity = 1:

       Center              X                  Y                   Z               Mass
    ------------   -----------------  -----------------  -----------------  -----------------
         O            1.594647842662     0.753797073053    -0.511339562751    15.994914619570
         O            1.007933842662    -1.046009926947     0.736704437249    15.994914619570
         N           -1.468496157338    -1.039570926947    -0.478980562751    14.003074004430
         C           -0.672852857338     0.210361473053    -0.383806862751    12.000000000000
         C           -1.258952157338     1.249922073053     0.583594437249    12.000000000000
         C            0.696798842662    -0.131029926947    -0.006835562751    12.000000000000
         H           -0.686776157338     0.655866073053    -1.410548562751     1.007825032230
         H           -0.653726157338     2.161262073053     0.576862437249     1.007825032230
         H           -2.286092157338     1.517162073053     0.317399437249     1.007825032230
         H           -1.259275157338     0.832019073053     1.595102437249     1.007825032230
         H           -2.465577157338    -0.837138926947    -0.533846562751     1.007825032230
         H           -1.308588157338    -1.558858926947     0.383651437249     1.007825032230
         H            2.463981842662     0.484286073053    -0.147647562751     1.007825032230

  Basis Set: AUG-CC-PVTZ
    Blend: AUG-CC-PVTZ
  Basis Set: (AUG-CC-PVTZ AUX)
    Blend: AUG-CC-PVTZ-JKFIT
	 Reference Energy          =    -321.9919394979681329 [Eh]
	 Singles Energy            =      -0.0000000000000000 [Eh]
	 Same-Spin Energy          =      -0.3172188708854488 [Eh]
	 Opposite-Spin Energy      =      -1.0006619040982343 [Eh]
	 Correlation Energy        =      -1.3178807749836832 [Eh]
	 Total Energy              =    -323.3098202729518107 [Eh]

	 ================> DF-SCS-MP2 Energies <==================
	-----------------------------------------------------------
	 SCS Same-Spin Scale       =       0.3333333333333333 [-]
	 SCS Opposite-Spin Scale   =       1.2000000000000000 [-]
	 SCS Same-Spin Energy      =      -0.1057396236284829 [Eh]
	 SCS Opposite-Spin Energy  =      -1.2007942849178812 [Eh]
	 SCS Correlation Energy    =      -1.3065339085463641 [Eh]
	 SCS Total Energy          =    -323.2984734065145176 [Eh]
	-----------------------------------------------------------

  Dipole Moment: [D]
     X:    -0.7545      Y:     2.0970      Z:     0.3092     Total:     2.2500

*** Psi4 exiting successfully. Buy a developer a beer!
