                               Psi4 1.3.2 release

  ==> Input File <==

--------------------------------------------------------------------------
#psi4
#
memory 32 gb

molecule  {
0 1
  O        1.6642950     0.7201020    -0.5160700
  O        1.0775810    -1.0797050     0.7319740
  N       -1.3135029    -1.1217491    -0.4565304
  C       -0.6495640     0.1769900    -0.4154850
  C       -1.1893050     1.2162270     0.5788640
  C        0.7664460    -0.1647250    -0.0115660
  H       -0.6171290     0.6221710    -1.4152790
  H       -0.5840790     2.1275670     0.5721320
  H       -2.2164450     1.4834670     0.3126690
  H       -1.1896280     0.7983240     1.5903720
  H       -2.3959300    -0.8708340    -0.5385770
  H       -1.2389410    -1.5925540     0.3789210
  H        2.5336290     0.4505910    -0.1523780
units angstrom
no_reorient  #important for SAPT in psi4, default
symmetry c1  #important for SAPT in psi4, default
}

set PROPERTIES_ORIGIN ["COM"]
properties('MP2/aug-cc-pvtz', properties = ['dipole'])
--------------------------------------------------------------------------

    Molecular point group: c1
  Charge       = 0
  Multiplicity = 1
  Basis Set: AUG-CC-PVTZ
    Blend: AUG-CC-PVTZ
  Basis Set: (AUG-CC-PVTZ AUX)
    Blend: AUG-CC-PVTZ-JKFIT

    Orbital Energies [Eh]
    ---------------------

    Doubly Occupied:

       1A    -20.619641     2A    -20.553261     3A    -15.556772
       4A    -11.388590     5A    -11.283894     6A    -11.238068
       7A     -1.463402     8A     -1.360520     9A     -1.200899
      10A     -1.024357    11A     -0.913026    12A     -0.793637
      13A     -0.721937    14A     -0.707263    15A     -0.644172
      16A     -0.621339    17A     -0.615439    18A     -0.585873
      19A     -0.570942    20A     -0.536078    21A     -0.524995
      22A     -0.483365    23A     -0.452437    24A     -0.410575

  @DF-RHF Final Energy:  -321.98256574173649

   => Energetics <=

    Nuclear Repulsion Energy =            249.8082541682280464
    One-Electron Energy =                -935.0406734431422819
    Two-Electron Energy =                 363.2498535331777703
    Total Energy =                       -321.9825657417364937
  Basis Set: (AUG-CC-PVTZ AUX)
    Blend: AUG-CC-PVTZ-RI
    Molecular point group: c1

    Geometry (in Angstrom), charge = 0, multiplicity = 1:

       Center              X                  Y                   Z               Mass
    ------------   -----------------  -----------------  -----------------  -----------------
         O            1.587474066037     0.761377610231    -0.511982359445    15.994914619570
         O            1.000760066037    -1.038429389769     0.736061640555    15.994914619570
         N           -1.390323833963    -1.080473489769    -0.452442759445    14.003074004430
         C           -0.726384933963     0.218265610231    -0.411397359445    12.000000000000
         C           -1.266125933963     1.257502610231     0.582951640555    12.000000000000
         C            0.689625066037    -0.123449389769    -0.007478359445    12.000000000000
         H           -0.693949933963     0.663446610231    -1.411191359445     1.007825032230
         H           -0.660899933963     2.168842610231     0.576219640555     1.007825032230
         H           -2.293265933963     1.524742610231     0.316756640555     1.007825032230
         H           -1.266448933963     0.839599610231     1.594459640555     1.007825032230
         H           -2.472750933963    -0.829558389769    -0.534489359445     1.007825032230
         H           -1.315761933963    -1.551278389769     0.383008640555     1.007825032230
         H            2.456808066037     0.491866610231    -0.148290359445     1.007825032230

  Basis Set: AUG-CC-PVTZ
    Blend: AUG-CC-PVTZ
  Basis Set: (AUG-CC-PVTZ AUX)
    Blend: AUG-CC-PVTZ-JKFIT
	 Reference Energy          =    -321.9825657417364937 [Eh]
	 Singles Energy            =      -0.0000000000000000 [Eh]
	 Same-Spin Energy          =      -0.3173442461000993 [Eh]
	 Opposite-Spin Energy      =      -1.0012401806447351 [Eh]
	 Correlation Energy        =      -1.3185844267448343 [Eh]
	 Total Energy              =    -323.3011501684813425 [Eh]

	 ================> DF-SCS-MP2 Energies <==================
	-----------------------------------------------------------
	 SCS Same-Spin Scale       =       0.3333333333333333 [-]
	 SCS Opposite-Spin Scale   =       1.2000000000000000 [-]
	 SCS Same-Spin Energy      =      -0.1057814153666997 [Eh]
	 SCS Opposite-Spin Energy  =      -1.2014882167736820 [Eh]
	 SCS Correlation Energy    =      -1.3072696321403818 [Eh]
	 SCS Total Energy          =    -323.2898353738768833 [Eh]
	-----------------------------------------------------------

  Dipole Moment: [D]
     X:    -0.8682      Y:     2.1265      Z:     0.2769     Total:     2.3135

*** Psi4 exiting successfully. Buy a developer a beer!
