                               Psi4 1.3.2 release

  ==> Input File <==

--------------------------------------------------------------------------
#psi4
#
memory 32 gb

molecule  {
0 1
  O        1.6642950     0.7201020    -0.5160700
  O        1.0775810    -1.0797050     0.7319740
  N       -1.4805447    -1.0186918    -0.5105592
  C       -0.6495640     0.1769900    -0.4154850
  C       -1.1893050     1.2162270     0.5788640
  C        0.7664460    -0.1647250    -0.0115660
  H       -0.6171290     0.6221710    -1.4152790
  H       -0.5840790     2.1275670     0.5721320
  H       -2.2164450     1.4834670     0.3126690
  H       -1.1896280     0.7983240     1.5903720
  H       -2.3959300    -0.8708340    -0.5385770
  H       -1.2389410    -1.5925540     0.3789210
  H        2.5336290     0.4505910    -0.1523780
units angstrom
no_reorient  #important for SAPT in psi4, default
symmetry c1  #important for SAPT in psi4, default
}

set PROPERTIES_ORIGIN ["COM"]
properties('MP2/aug-cc-pvtz', properties = ['dipole'])
--------------------------------------------------------------------------

    Molecular point group: c1
  Charge       = 0
  Multiplicity = 1
  Basis Set: AUG-CC-PVTZ
    Blend: AUG-CC-PVTZ
  Basis Set: (AUG-CC-PVTZ AUX)
    Blend: AUG-CC-PVTZ-JKFIT

    Orbital Energies [Eh]
    ---------------------

    Doubly Occupied:

       1A    -20.623654     2A    -20.557597     3A    -15.545668
       4A    -11.394602     5A    -11.283626     6A    -11.235280
       7A     -1.466924     8A     -1.363802     9A     -1.202708
      10A     -1.026850    11A     -0.914969    12A     -0.797012
      13A     -0.724181    14A     -0.706733    15A     -0.654964
      16A     -0.639549    17A     -0.605714    18A     -0.593648
      19A     -0.566777    20A     -0.547481    21A     -0.515074
      22A     -0.487543    23A     -0.456523    24A     -0.399978

  @DF-RHF Final Energy:  -321.98369037911084

   => Energetics <=

    Nuclear Repulsion Energy =            248.9563862043983420
    One-Electron Energy =                -933.2584389880855724
    Two-Electron Energy =                 362.3183624045764191
    Total Energy =                       -321.9836903791108398
  Basis Set: (AUG-CC-PVTZ AUX)
    Blend: AUG-CC-PVTZ-RI
    Molecular point group: c1

    Geometry (in Angstrom), charge = 0, multiplicity = 1:

       Center              X                  Y                   Z               Mass
    ------------   -----------------  -----------------  -----------------  -----------------
         O            1.613742001680     0.745171471863    -0.503486132505    15.994914619570
         O            1.027028001680    -1.054635528137     0.744557867495    15.994914619570
         N           -1.531097698320    -0.993622328137    -0.497975332505    14.003074004430
         C           -0.700116998320     0.202059471863    -0.402901132505    12.000000000000
         C           -1.239857998320     1.241296471863     0.591447867495    12.000000000000
         C            0.715893001680    -0.139655528137     0.001017867495    12.000000000000
         H           -0.667681998320     0.647240471863    -1.402695132505     1.007825032230
         H           -0.634631998320     2.152636471863     0.584715867495     1.007825032230
         H           -2.266997998320     1.508536471863     0.325252867495     1.007825032230
         H           -1.240180998320     0.823393471863     1.602955867495     1.007825032230
         H           -2.446482998320    -0.845764528137    -0.525993132505     1.007825032230
         H           -1.289493998320    -1.567484528137     0.391504867495     1.007825032230
         H            2.483076001680     0.475660471863    -0.139794132505     1.007825032230

  Basis Set: AUG-CC-PVTZ
    Blend: AUG-CC-PVTZ
  Basis Set: (AUG-CC-PVTZ AUX)
    Blend: AUG-CC-PVTZ-JKFIT
	 Reference Energy          =    -321.9836903791108398 [Eh]
	 Singles Energy            =      -0.0000000000000000 [Eh]
	 Same-Spin Energy          =      -0.3168184537701342 [Eh]
	 Opposite-Spin Energy      =      -0.9997247724795839 [Eh]
	 Correlation Energy        =      -1.3165432262497181 [Eh]
	 Total Energy              =    -323.3002336053605745 [Eh]

	 ================> DF-SCS-MP2 Energies <==================
	-----------------------------------------------------------
	 SCS Same-Spin Scale       =       0.3333333333333333 [-]
	 SCS Opposite-Spin Scale   =       1.2000000000000000 [-]
	 SCS Same-Spin Energy      =      -0.1056061512567114 [Eh]
	 SCS Opposite-Spin Energy  =      -1.1996697269755006 [Eh]
	 SCS Correlation Energy    =      -1.3052758782322120 [Eh]
	 SCS Total Energy          =    -323.2889662573430769 [Eh]
	-----------------------------------------------------------

  Dipole Moment: [D]
     X:    -0.6043      Y:     1.9685      Z:     0.3017     Total:     2.0812

*** Psi4 exiting successfully. Buy a developer a beer!
