                               Psi4 1.3.2 release

  ==> Input File <==

--------------------------------------------------------------------------
#psi4
#
memory 32 gb

molecule  {
0 1
  O        1.6642950     0.7201020    -0.5160700
  O        1.0775810    -1.0797050     0.7319740
  N       -1.4196310    -1.0601836    -0.4904594
  C       -0.6495640     0.1769900    -0.4154850
  C       -1.1893050     1.2162270     0.5788640
  C        0.7664460    -0.1647250    -0.0115660
  H       -0.6171290     0.6221710    -1.4152790
  H       -0.5840790     2.1275670     0.5721320
  H       -2.2164450     1.4834670     0.3126690
  H       -1.1896280     0.7983240     1.5903720
  H       -2.3959300    -0.8708340    -0.5385770
  H       -1.2389410    -1.5925540     0.3789210
  H        2.5336290     0.4505910    -0.1523780
units angstrom
no_reorient  #important for SAPT in psi4, default
symmetry c1  #important for SAPT in psi4, default
}

set PROPERTIES_ORIGIN ["COM"]
properties('MP2/aug-cc-pvtz', properties = ['dipole'])
--------------------------------------------------------------------------

    Molecular point group: c1
  Charge       = 0
  Multiplicity = 1
  Basis Set: AUG-CC-PVTZ
    Blend: AUG-CC-PVTZ
  Basis Set: (AUG-CC-PVTZ AUX)
    Blend: AUG-CC-PVTZ-JKFIT

    Orbital Energies [Eh]
    ---------------------

    Doubly Occupied:

       1A    -20.621959     2A    -20.555794     3A    -15.549623
       4A    -11.392047     5A    -11.282953     6A    -11.236144
       7A     -1.465382     8A     -1.362317     9A     -1.200295
      10A     -1.024234    11A     -0.913745    12A     -0.793226
      13A     -0.724374    14A     -0.707086    15A     -0.647296
      16A     -0.632179    17A     -0.608998    18A     -0.587241
      19A     -0.574897    20A     -0.545435    21A     -0.519651
      22A     -0.485854    23A     -0.454994    24A     -0.403365

  @DF-RHF Final Energy:  -321.99528585934263

   => Energetics <=

    Nuclear Repulsion Energy =            249.2165803690109556
    One-Electron Energy =                -933.8455528452701628
    Two-Electron Energy =                 362.6336866169165205
    Total Energy =                       -321.9952858593426299
  Basis Set: (AUG-CC-PVTZ AUX)
    Blend: AUG-CC-PVTZ-RI
    Molecular point group: c1

    Geometry (in Angstrom), charge = 0, multiplicity = 1:

       Center              X                  Y                   Z               Mass
    ------------   -----------------  -----------------  -----------------  -----------------
         O            1.604163098966     0.751696209576    -0.506646899767    15.994914619570
         O            1.017449098966    -1.048110790424     0.741397100233    15.994914619570
         N           -1.479762901034    -1.028589390424    -0.481036299767    14.003074004430
         C           -0.709695901034     0.208584209576    -0.406061899767    12.000000000000
         C           -1.249436901034     1.247821209576     0.588287100233    12.000000000000
         C            0.706314098966    -0.133130790424    -0.002142899767    12.000000000000
         H           -0.677260901034     0.653765209576    -1.405855899767     1.007825032230
         H           -0.644210901034     2.159161209576     0.581555100233     1.007825032230
         H           -2.276576901034     1.515061209576     0.322092100233     1.007825032230
         H           -1.249759901034     0.829918209576     1.599795100233     1.007825032230
         H           -2.456061901034    -0.839239790424    -0.529153899767     1.007825032230
         H           -1.299072901034    -1.560959790424     0.388344100233     1.007825032230
         H            2.473497098966     0.482185209576    -0.142954899767     1.007825032230

  Basis Set: AUG-CC-PVTZ
    Blend: AUG-CC-PVTZ
  Basis Set: (AUG-CC-PVTZ AUX)
    Blend: AUG-CC-PVTZ-JKFIT
	 Reference Energy          =    -321.9952858593426299 [Eh]
	 Singles Energy            =      -0.0000000000000000 [Eh]
	 Same-Spin Energy          =      -0.3168788513132287 [Eh]
	 Opposite-Spin Energy      =      -0.9997849277649925 [Eh]
	 Correlation Energy        =      -1.3166637790782212 [Eh]
	 Total Energy              =    -323.3119496384208560 [Eh]

	 ================> DF-SCS-MP2 Energies <==================
	-----------------------------------------------------------
	 SCS Same-Spin Scale       =       0.3333333333333333 [-]
	 SCS Opposite-Spin Scale   =       1.2000000000000000 [-]
	 SCS Same-Spin Energy      =      -0.1056262837710762 [Eh]
	 SCS Opposite-Spin Energy  =      -1.1997419133179910 [Eh]
	 SCS Correlation Energy    =      -1.3053681970890672 [Eh]
	 SCS Total Energy          =    -323.3006540564317106 [Eh]
	-----------------------------------------------------------

  Dipole Moment: [D]
     X:    -0.7224      Y:     2.0229      Z:     0.2882     Total:     2.1673

*** Psi4 exiting successfully. Buy a developer a beer!
