                               Psi4 1.3.2 release

  ==> Input File <==

--------------------------------------------------------------------------
#psi4
#
memory 32 gb

molecule  {
0 1
  O        1.6642950     0.7201020    -0.5160700
  O        1.0775810    -1.0797050     0.7319740
  N       -1.4115488    -1.0560723    -0.5832924
  C       -0.6495640     0.1769900    -0.4154850
  C       -1.1893050     1.2162270     0.5788640
  C        0.7664460    -0.1647250    -0.0115660
  H       -0.6171290     0.6221710    -1.4152790
  H       -0.5840790     2.1275670     0.5721320
  H       -2.2164450     1.4834670     0.3126690
  H       -1.1896280     0.7983240     1.5903720
  H       -2.3959300    -0.8708340    -0.5385770
  H       -1.2389410    -1.5925540     0.3789210
  H        2.5336290     0.4505910    -0.1523780
units angstrom
no_reorient  #important for SAPT in psi4, default
symmetry c1  #important for SAPT in psi4, default
}

set PROPERTIES_ORIGIN ["COM"]
properties('MP2/aug-cc-pvtz', properties = ['dipole'])
--------------------------------------------------------------------------

    Molecular point group: c1
  Charge       = 0
  Multiplicity = 1
  Basis Set: AUG-CC-PVTZ
    Blend: AUG-CC-PVTZ
  Basis Set: (AUG-CC-PVTZ AUX)
    Blend: AUG-CC-PVTZ-JKFIT

    Orbital Energies [Eh]
    ---------------------

    Doubly Occupied:

       1A    -20.622313     2A    -20.556398     3A    -15.562007
       4A    -11.392556     5A    -11.282702     6A    -11.238485
       7A     -1.465713     8A     -1.362655     9A     -1.197256
      10A     -1.022790    11A     -0.914352    12A     -0.792242
      13A     -0.720223    14A     -0.704907    15A     -0.648361
      16A     -0.627920    17A     -0.602934    18A     -0.590203
      19A     -0.568097    20A     -0.544666    21A     -0.510847
      22A     -0.486399    23A     -0.455496    24A     -0.413336

  @DF-RHF Final Energy:  -321.98442414755743

   => Energetics <=

    Nuclear Repulsion Energy =            248.6440824316152600
    One-Electron Energy =                -932.6912950288096908
    Two-Electron Energy =                 362.0627884496369688
    Total Energy =                       -321.9844241475574336
  Basis Set: (AUG-CC-PVTZ AUX)
    Blend: AUG-CC-PVTZ-RI
    Molecular point group: c1

    Geometry (in Angstrom), charge = 0, multiplicity = 1:

       Center              X                  Y                   Z               Mass
    ------------   -----------------  -----------------  -----------------  -----------------
         O            1.602892143376     0.751049692574    -0.492048570070    15.994914619570
         O            1.016178143376    -1.048757307426     0.755995429930    15.994914619570
         N           -1.472951656624    -1.025124607426    -0.559270970070    14.003074004430
         C           -0.710966856624     0.207937692574    -0.391463570070    12.000000000000
         C           -1.250707856624     1.247174692574     0.602885429930    12.000000000000
         C            0.705043143376    -0.133777307426     0.012455429930    12.000000000000
         H           -0.678531856624     0.653118692574    -1.391257570070     1.007825032230
         H           -0.645481856624     2.158514692574     0.596153429930     1.007825032230
         H           -2.277847856624     1.514414692574     0.336690429930     1.007825032230
         H           -1.251030856624     0.829271692574     1.614393429930     1.007825032230
         H           -2.457332856624    -0.839886307426    -0.514555570070     1.007825032230
         H           -1.300343856624    -1.561606307426     0.402942429930     1.007825032230
         H            2.472226143376     0.481538692574    -0.128356570070     1.007825032230

  Basis Set: AUG-CC-PVTZ
    Blend: AUG-CC-PVTZ
  Basis Set: (AUG-CC-PVTZ AUX)
    Blend: AUG-CC-PVTZ-JKFIT
	 Reference Energy          =    -321.9844241475574336 [Eh]
	 Singles Energy            =      -0.0000000000000000 [Eh]
	 Same-Spin Energy          =      -0.3175760580170274 [Eh]
	 Opposite-Spin Energy      =      -1.0020926507751895 [Eh]
	 Correlation Energy        =      -1.3196687087922170 [Eh]
	 Total Energy              =    -323.3040928563496550 [Eh]

	 ================> DF-SCS-MP2 Energies <==================
	-----------------------------------------------------------
	 SCS Same-Spin Scale       =       0.3333333333333333 [-]
	 SCS Opposite-Spin Scale   =       1.2000000000000000 [-]
	 SCS Same-Spin Energy      =      -0.1058586860056758 [Eh]
	 SCS Opposite-Spin Energy  =      -1.2025111809302274 [Eh]
	 SCS Correlation Energy    =      -1.3083698669359032 [Eh]
	 SCS Total Energy          =    -323.2927940144933245 [Eh]
	-----------------------------------------------------------

  Dipole Moment: [D]
     X:    -0.7222      Y:     2.0857      Z:     0.4474     Total:     2.2521

*** Psi4 exiting successfully. Buy a developer a beer!
