                               Psi4 1.3.2 release

  ==> Input File <==

--------------------------------------------------------------------------
#psi4
#
memory 32 gb

molecule  {
0 1
  O        1.6642950     0.7201020    -0.5160700
  O        1.0775810    -1.0797050     0.7319740
  N       -1.3988490    -1.0732660    -0.4837110
  C       -0.6495640     0.1769900    -0.4154850
  C       -1.1422891     1.2146372     0.6046003
  C        0.7664460    -0.1647250    -0.0115660
  H       -0.6171290     0.6221710    -1.4152790
  H       -0.5840790     2.1275670     0.5721320
  H       -2.2164450     1.4834670     0.3126690
  H       -1.1896280     0.7983240     1.5903720
  H       -2.3959300    -0.8708340    -0.5385770
  H       -1.2389410    -1.5925540     0.3789210
  H        2.5336290     0.4505910    -0.1523780
units angstrom
no_reorient  #important for SAPT in psi4, default
symmetry c1  #important for SAPT in psi4, default
}

set PROPERTIES_ORIGIN ["COM"]
properties('MP2/aug-cc-pvtz', properties = ['dipole'])
--------------------------------------------------------------------------

    Molecular point group: c1
  Charge       = 0
  Multiplicity = 1
  Basis Set: AUG-CC-PVTZ
    Blend: AUG-CC-PVTZ
  Basis Set: (AUG-CC-PVTZ AUX)
    Blend: AUG-CC-PVTZ-JKFIT

    Orbital Energies [Eh]
    ---------------------

    Doubly Occupied:

       1A    -20.620989     2A    -20.554256     3A    -15.551981
       4A    -11.390175     5A    -11.283474     6A    -11.237298
       7A     -1.464470     8A     -1.361277     9A     -1.200234
      10A     -1.025678    11A     -0.912210    12A     -0.792997
      13A     -0.724215    14A     -0.706663    15A     -0.645071
      16A     -0.629426    17A     -0.616843    18A     -0.583453
      19A     -0.577971    20A     -0.532106    21A     -0.528910
      22A     -0.484707    23A     -0.451807    24A     -0.406359

  @DF-RHF Final Energy:  -321.99264593810403

   => Energetics <=

    Nuclear Repulsion Energy =            249.5345425254588463
    One-Electron Energy =                -934.4892371454526483
    Two-Electron Energy =                 362.9620486818897689
    Total Energy =                       -321.9926459381040331
  Basis Set: (AUG-CC-PVTZ AUX)
    Blend: AUG-CC-PVTZ-RI
    Molecular point group: c1

    Geometry (in Angstrom), charge = 0, multiplicity = 1:

       Center              X                  Y                   Z               Mass
    ------------   -----------------  -----------------  -----------------  -----------------
         O            1.594559224967     0.753967705238    -0.511176315374    15.994914619570
         O            1.007845224967    -1.045839294762     0.736867684626    15.994914619570
         N           -1.468584775033    -1.039400294762    -0.478817315374    14.003074004430
         C           -0.719299775033     0.210855705238    -0.410591315374    12.000000000000
         C           -1.212024875033     1.248502905238     0.609493984626    12.000000000000
         C            0.696710224967    -0.130859294762    -0.006672315374    12.000000000000
         H           -0.686864775033     0.656036705238    -1.410385315374     1.007825032230
         H           -0.653814775033     2.161432705238     0.577025684626     1.007825032230
         H           -2.286180775033     1.517332705238     0.317562684626     1.007825032230
         H           -1.259363775033     0.832189705238     1.595265684626     1.007825032230
         H           -2.465665775033    -0.836968294762    -0.533683315374     1.007825032230
         H           -1.308676775033    -1.558688294762     0.383814684626     1.007825032230
         H            2.463893224967     0.484456705238    -0.147484315374     1.007825032230

  Basis Set: AUG-CC-PVTZ
    Blend: AUG-CC-PVTZ
  Basis Set: (AUG-CC-PVTZ AUX)
    Blend: AUG-CC-PVTZ-JKFIT
	 Reference Energy          =    -321.9926459381040331 [Eh]
	 Singles Energy            =      -0.0000000000000000 [Eh]
	 Same-Spin Energy          =      -0.3170620868383704 [Eh]
	 Opposite-Spin Energy      =      -1.0001153691567515 [Eh]
	 Correlation Energy        =      -1.3171774559951219 [Eh]
	 Total Energy              =    -323.3098233940991690 [Eh]

	 ================> DF-SCS-MP2 Energies <==================
	-----------------------------------------------------------
	 SCS Same-Spin Scale       =       0.3333333333333333 [-]
	 SCS Opposite-Spin Scale   =       1.2000000000000000 [-]
	 SCS Same-Spin Energy      =      -0.1056873622794568 [Eh]
	 SCS Opposite-Spin Energy  =      -1.2001384429881017 [Eh]
	 SCS Correlation Energy    =      -1.3058258052675584 [Eh]
	 SCS Total Energy          =    -323.2984717433715787 [Eh]
	-----------------------------------------------------------

  Dipole Moment: [D]
     X:    -0.7599      Y:     2.0389      Z:     0.2861     Total:     2.1946

*** Psi4 exiting successfully. Buy a developer a beer!
