                               Psi4 1.3.2 release

  ==> Input File <==

--------------------------------------------------------------------------
#psi4
#
memory 32 gb

molecule  {
0 1
  O        1.6642950     0.7201020    -0.5160700
  O        1.0775810    -1.0797050     0.7319740
  N       -1.3988490    -1.0732660    -0.4837110
  C       -0.5982145     0.2626718    -0.4108094
  C       -1.1893050     1.2162270     0.5788640
  C        0.7664460    -0.1647250    -0.0115660
  H       -0.6171290     0.6221710    -1.4152790
  H       -0.5840790     2.1275670     0.5721320
  H       -2.2164450     1.4834670     0.3126690
  H       -1.1896280     0.7983240     1.5903720
  H       -2.3959300    -0.8708340    -0.5385770
  H       -1.2389410    -1.5925540     0.3789210
  H        2.5336290     0.4505910    -0.1523780
units angstrom
no_reorient  #important for SAPT in psi4, default
symmetry c1  #important for SAPT in psi4, default
}

set PROPERTIES_ORIGIN ["COM"]
properties('MP2/aug-cc-pvtz', properties = ['dipole'])
--------------------------------------------------------------------------

    Molecular point group: c1
  Charge       = 0
  Multiplicity = 1
  Basis Set: AUG-CC-PVTZ
    Blend: AUG-CC-PVTZ
  Basis Set: (AUG-CC-PVTZ AUX)
    Blend: AUG-CC-PVTZ-JKFIT

    Orbital Energies [Eh]
    ---------------------

    Doubly Occupied:

       1A    -20.621300     2A    -20.558449     3A    -15.548166
       4A    -11.393542     5A    -11.282715     6A    -11.237947
       7A     -1.467172     8A     -1.363540     9A     -1.176900
      10A     -1.033732    11A     -0.922110    12A     -0.792250
      13A     -0.724690    14A     -0.707741    15A     -0.649339
      16A     -0.625370    17A     -0.607035    18A     -0.585245
      19A     -0.572097    20A     -0.546686    21A     -0.515374
      22A     -0.486494    23A     -0.460303    24A     -0.403449

  @DF-RHF Final Energy:  -321.98541035642450

   => Energetics <=

    Nuclear Repulsion Energy =            249.2234637406907041
    One-Electron Energy =                -933.8544508872078040
    Two-Electron Energy =                 362.6455767900926048
    Total Energy =                       -321.9854103564244951
  Basis Set: (AUG-CC-PVTZ AUX)
    Blend: AUG-CC-PVTZ-RI
    Molecular point group: c1

    Geometry (in Angstrom), charge = 0, multiplicity = 1:

       Center              X                  Y                   Z               Mass
    ------------   -----------------  -----------------  -----------------  -----------------
         O            1.593975232201     0.742207048273    -0.508338190851    15.994914619570
         O            1.007261232201    -1.057599951727     0.739705809149    15.994914619570
         N           -1.469168767799    -1.051160951727    -0.475979190851    14.003074004430
         C           -0.668534267799     0.284776848273    -0.403077590851    12.000000000000
         C           -1.259624767799     1.238332048273     0.586595809149    12.000000000000
         C            0.696126232201    -0.142619951727    -0.003834190851    12.000000000000
         H           -0.687448767799     0.644276048273    -1.407547190851     1.007825032230
         H           -0.654398767799     2.149672048273     0.579863809149     1.007825032230
         H           -2.286764767799     1.505572048273     0.320400809149     1.007825032230
         H           -1.259947767799     0.820429048273     1.598103809149     1.007825032230
         H           -2.466249767799    -0.848728951727    -0.530845190851     1.007825032230
         H           -1.309260767799    -1.570448951727     0.386652809149     1.007825032230
         H            2.463309232201     0.472696048273    -0.144646190851     1.007825032230

  Basis Set: AUG-CC-PVTZ
    Blend: AUG-CC-PVTZ
  Basis Set: (AUG-CC-PVTZ AUX)
    Blend: AUG-CC-PVTZ-JKFIT
	 Reference Energy          =    -321.9854103564244951 [Eh]
	 Singles Energy            =      -0.0000000000000000 [Eh]
	 Same-Spin Energy          =      -0.3173483059100710 [Eh]
	 Opposite-Spin Energy      =      -1.0015845834162707 [Eh]
	 Correlation Energy        =      -1.3189328893263417 [Eh]
	 Total Energy              =    -323.3043432457508288 [Eh]

	 ================> DF-SCS-MP2 Energies <==================
	-----------------------------------------------------------
	 SCS Same-Spin Scale       =       0.3333333333333333 [-]
	 SCS Opposite-Spin Scale   =       1.2000000000000000 [-]
	 SCS Same-Spin Energy      =      -0.1057827686366903 [Eh]
	 SCS Opposite-Spin Energy  =      -1.2019015000995248 [Eh]
	 SCS Correlation Energy    =      -1.3076842687362151 [Eh]
	 SCS Total Energy          =    -323.2930946251607338 [Eh]
	-----------------------------------------------------------

  Dipole Moment: [D]
     X:    -0.6530      Y:     2.2443      Z:     0.3519     Total:     2.3637

*** Psi4 exiting successfully. Buy a developer a beer!
