                               Psi4 1.3.2 release

  ==> Input File <==

--------------------------------------------------------------------------
#psi4
#
memory 32 gb

molecule  {
0 1
  O        1.6642950     0.7201020    -0.5160700
  O        1.0775810    -1.0797050     0.7319740
  N       -1.3988490    -1.0732660    -0.4837110
  C       -0.7842426     0.2487320    -0.4220412
  C       -1.1893050     1.2162270     0.5788640
  C        0.7664460    -0.1647250    -0.0115660
  H       -0.6171290     0.6221710    -1.4152790
  H       -0.5840790     2.1275670     0.5721320
  H       -2.2164450     1.4834670     0.3126690
  H       -1.1896280     0.7983240     1.5903720
  H       -2.3959300    -0.8708340    -0.5385770
  H       -1.2389410    -1.5925540     0.3789210
  H        2.5336290     0.4505910    -0.1523780
units angstrom
no_reorient  #important for SAPT in psi4, default
symmetry c1  #important for SAPT in psi4, default
}

set PROPERTIES_ORIGIN ["COM"]
properties('MP2/aug-cc-pvtz', properties = ['dipole'])
--------------------------------------------------------------------------

    Molecular point group: c1
  Charge       = 0
  Multiplicity = 1
  Basis Set: AUG-CC-PVTZ
    Blend: AUG-CC-PVTZ
  Basis Set: (AUG-CC-PVTZ AUX)
    Blend: AUG-CC-PVTZ-JKFIT

    Orbital Energies [Eh]
    ---------------------

    Doubly Occupied:

       1A    -20.618465     2A    -20.552642     3A    -15.553815
       4A    -11.387221     5A    -11.287980     6A    -11.233220
       7A     -1.458944     8A     -1.357090     9A     -1.203694
      10A     -1.034452    11A     -0.892090    12A     -0.794702
      13A     -0.714114    14A     -0.704520    15A     -0.639950
      16A     -0.627451    17A     -0.624171    18A     -0.600513
      19A     -0.579355    20A     -0.528041    21A     -0.524463
      22A     -0.483239    23A     -0.430280    24A     -0.414380

  @DF-RHF Final Energy:  -321.97416189770547

   => Energetics <=

    Nuclear Repulsion Energy =            248.1146610399797510
    One-Electron Energy =                -931.6880652533640159
    Two-Electron Energy =                 361.5992423156787936
    Total Energy =                       -321.9741618977054713
  Basis Set: (AUG-CC-PVTZ AUX)
    Blend: AUG-CC-PVTZ-RI
    Molecular point group: c1

    Geometry (in Angstrom), charge = 0, multiplicity = 1:

       Center              X                  Y                   Z               Mass
    ------------   -----------------  -----------------  -----------------  -----------------
         O            1.619044242852     0.744085565522    -0.506824601700    15.994914619570
         O            1.032330242852    -1.055721434478     0.741219398300    15.994914619570
         N           -1.444099757148    -1.049282434478    -0.474465601700    14.003074004430
         C           -0.829493357148     0.272715565522    -0.412795801700    12.000000000000
         C           -1.234555757148     1.240210565522     0.588109398300    12.000000000000
         C            0.721195242852    -0.140741434478    -0.002320601700    12.000000000000
         H           -0.662379757148     0.646154565522    -1.406033601700     1.007825032230
         H           -0.629329757148     2.151550565522     0.581377398300     1.007825032230
         H           -2.261695757148     1.507450565522     0.321914398300     1.007825032230
         H           -1.234878757148     0.822307565522     1.599617398300     1.007825032230
         H           -2.441180757148    -0.846850434478    -0.529331601700     1.007825032230
         H           -1.284191757148    -1.568570434478     0.388166398300     1.007825032230
         H            2.488378242852     0.474574565522    -0.143132601700     1.007825032230

  Basis Set: AUG-CC-PVTZ
    Blend: AUG-CC-PVTZ
  Basis Set: (AUG-CC-PVTZ AUX)
    Blend: AUG-CC-PVTZ-JKFIT
	 Reference Energy          =    -321.9741618977054713 [Eh]
	 Singles Energy            =      -0.0000000000000000 [Eh]
	 Same-Spin Energy          =      -0.3178203101638272 [Eh]
	 Opposite-Spin Energy      =      -1.0016302902122125 [Eh]
	 Correlation Energy        =      -1.3194506003760398 [Eh]
	 Total Energy              =    -323.2936124980815293 [Eh]

	 ================> DF-SCS-MP2 Energies <==================
	-----------------------------------------------------------
	 SCS Same-Spin Scale       =       0.3333333333333333 [-]
	 SCS Opposite-Spin Scale   =       1.2000000000000000 [-]
	 SCS Same-Spin Energy      =      -0.1059401033879424 [Eh]
	 SCS Opposite-Spin Energy  =      -1.2019563482546549 [Eh]
	 SCS Correlation Energy    =      -1.3078964516425973 [Eh]
	 SCS Total Energy          =    -323.2820583493480626 [Eh]
	-----------------------------------------------------------

  Dipole Moment: [D]
     X:    -0.7826      Y:     2.0637      Z:     0.3502     Total:     2.2347

*** Psi4 exiting successfully. Buy a developer a beer!
