                               Psi4 1.3.2 release

  ==> Input File <==

--------------------------------------------------------------------------
#psi4
#
memory 32 gb

molecule  {
0 1
  O        1.6989956     0.6956109    -0.4950423
  O        1.0775810    -1.0797050     0.7319740
  N       -1.3988490    -1.0732660    -0.4837110
  C       -0.6495640     0.1769900    -0.4154850
  C       -1.1893050     1.2162270     0.5788640
  C        0.7664460    -0.1647250    -0.0115660
  H       -0.6171290     0.6221710    -1.4152790
  H       -0.5840790     2.1275670     0.5721320
  H       -2.2164450     1.4834670     0.3126690
  H       -1.1896280     0.7983240     1.5903720
  H       -2.3959300    -0.8708340    -0.5385770
  H       -1.2389410    -1.5925540     0.3789210
  H        2.5336290     0.4505910    -0.1523780
units angstrom
no_reorient  #important for SAPT in psi4, default
symmetry c1  #important for SAPT in psi4, default
}

set PROPERTIES_ORIGIN ["COM"]
properties('MP2/aug-cc-pvtz', properties = ['dipole'])
--------------------------------------------------------------------------

    Molecular point group: c1
  Charge       = 0
  Multiplicity = 1
  Basis Set: AUG-CC-PVTZ
    Blend: AUG-CC-PVTZ
  Basis Set: (AUG-CC-PVTZ AUX)
    Blend: AUG-CC-PVTZ-JKFIT

    Orbital Energies [Eh]
    ---------------------

    Doubly Occupied:

       1A    -20.614956     2A    -20.553096     3A    -15.552170
       4A    -11.391417     5A    -11.285302     6A    -11.237487
       7A     -1.469636     8A     -1.362240     9A     -1.201250
      10A     -1.025684    11A     -0.917598    12A     -0.803126
      13A     -0.726930    14A     -0.705980    15A     -0.646094
      16A     -0.627560    17A     -0.612950    18A     -0.585641
      19A     -0.578384    20A     -0.544778    21A     -0.521931
      22A     -0.483530    23A     -0.454562    24A     -0.405839

  @DF-RHF Final Energy:  -321.99692199596586

   => Energetics <=

    Nuclear Repulsion Energy =            249.3688710146063841
    One-Electron Energy =                -934.1153055448581881
    Two-Electron Energy =                 362.7495125342859410
    Total Energy =                       -321.9969219959658631
  Basis Set: (AUG-CC-PVTZ AUX)
    Blend: AUG-CC-PVTZ-RI
    Molecular point group: c1

    Geometry (in Angstrom), charge = 0, multiplicity = 1:

       Center              X                  Y                   Z               Mass
    ------------   -----------------  -----------------  -----------------  -----------------
         O            1.629362664995     0.733661503260    -0.490457446178    15.994914619570
         O            1.007948064995    -1.041654396740     0.736558853822    15.994914619570
         N           -1.468481935005    -1.035215396740    -0.479126146178    14.003074004430
         C           -0.719196935005     0.215040603260    -0.410900146178    12.000000000000
         C           -1.258937935005     1.254277603260     0.583448853822    12.000000000000
         C            0.696813064995    -0.126674396740    -0.006981146178    12.000000000000
         H           -0.686761935005     0.660221603260    -1.410694146178     1.007825032230
         H           -0.653711935005     2.165617603260     0.576716853822     1.007825032230
         H           -2.286077935005     1.521517603260     0.317253853822     1.007825032230
         H           -1.259260935005     0.836374603260     1.594956853822     1.007825032230
         H           -2.465562935005    -0.832783396740    -0.533992146178     1.007825032230
         H           -1.308573935005    -1.554503396740     0.383505853822     1.007825032230
         H            2.463996064995     0.488641603260    -0.147793146178     1.007825032230

  Basis Set: AUG-CC-PVTZ
    Blend: AUG-CC-PVTZ
  Basis Set: (AUG-CC-PVTZ AUX)
    Blend: AUG-CC-PVTZ-JKFIT
	 Reference Energy          =    -321.9969219959658631 [Eh]
	 Singles Energy            =      -0.0000000000000000 [Eh]
	 Same-Spin Energy          =      -0.3160748893771533 [Eh]
	 Opposite-Spin Energy      =      -0.9980981990470963 [Eh]
	 Correlation Energy        =      -1.3141730884242495 [Eh]
	 Total Energy              =    -323.3110950843901037 [Eh]

	 ================> DF-SCS-MP2 Energies <==================
	-----------------------------------------------------------
	 SCS Same-Spin Scale       =       0.3333333333333333 [-]
	 SCS Opposite-Spin Scale   =       1.2000000000000000 [-]
	 SCS Same-Spin Energy      =      -0.1053582964590511 [Eh]
	 SCS Opposite-Spin Energy  =      -1.1977178388565155 [Eh]
	 SCS Correlation Energy    =      -1.3030761353155667 [Eh]
	 SCS Total Energy          =    -323.2999981312814270 [Eh]
	-----------------------------------------------------------

  Dipole Moment: [D]
     X:    -0.8559      Y:     2.0610      Z:     0.2686     Total:     2.2478

*** Psi4 exiting successfully. Buy a developer a beer!
