                               Psi4 1.3.2 release

  ==> Input File <==

--------------------------------------------------------------------------
#psi4
#
memory 32 gb

molecule  {
0 1
  O        1.6642820     0.7200090    -0.5161230
  O        1.0775160    -1.0797240     0.7320070
  N       -1.3989360    -1.0731900    -0.4836900
  C       -0.6495540     0.1769830    -0.4155270
  C       -1.1891480     1.2162680     0.5789130
  C        0.8132788    -0.1760741     0.0017855
  H       -0.6171430     0.6221670    -1.4153090
  H       -0.5838330     2.1275540     0.5722180
  H       -2.2162690     1.4836440     0.3127790
  H       -1.1894240     0.7982770     1.5903820
  H       -2.3959760    -0.8706470    -0.5387880
  H       -1.2392480    -1.5923700     0.3790470
  H        2.5336150     0.4505320    -0.1524310
units angstrom
no_reorient  #important for SAPT in psi4, default
symmetry c1  #important for SAPT in psi4, default
}

set PROPERTIES_ORIGIN ["COM"]
properties('MP2/aug-cc-pvtz', properties = ['dipole'])
--------------------------------------------------------------------------

    Molecular point group: c1
  Charge       = 0
  Multiplicity = 1
  Basis Set: AUG-CC-PVTZ
    Blend: AUG-CC-PVTZ
  Basis Set: (AUG-CC-PVTZ AUX)
    Blend: AUG-CC-PVTZ-JKFIT

    Orbital Energies [Eh]
    ---------------------

    Doubly Occupied:

       1A    -20.626003     2A    -20.557674     3A    -15.547875
       4A    -11.387548     5A    -11.280068     6A    -11.232637
       7A     -1.478310     8A     -1.380594     9A     -1.194243
      10A     -1.015578    11A     -0.904364    12A     -0.793793
      13A     -0.720205    14A     -0.715584    15A     -0.650952
      16A     -0.638105    17A     -0.606864    18A     -0.583452
      19A     -0.574360    20A     -0.545666    21A     -0.517796
      22A     -0.495358    23A     -0.447736    24A     -0.400750

  @DF-RHF Final Energy:  -321.99564061171407

   => Energetics <=

    Nuclear Repulsion Energy =            249.3135640946225635
    One-Electron Energy =                -934.0273800668446711
    Two-Electron Energy =                 362.7181753605080985
    Total Energy =                       -321.9956406117140659
  Basis Set: (AUG-CC-PVTZ AUX)
    Blend: AUG-CC-PVTZ-RI
    Molecular point group: c1

    Geometry (in Angstrom), charge = 0, multiplicity = 1:

       Center              X                  Y                   Z               Mass
    ------------   -----------------  -----------------  -----------------  -----------------
         O            1.594573313305     0.755188635856    -0.509561432067    15.994914619570
         O            1.007807313305    -1.044544364144     0.738568567933    15.994914619570
         N           -1.468644686695    -1.038010364144    -0.477128432067    14.003074004430
         C           -0.719262686695     0.212162635856    -0.408965432067    12.000000000000
         C           -1.258856686695     1.251447635856     0.585474567933    12.000000000000
         C            0.743570113305    -0.140894464144     0.008347067933    12.000000000000
         H           -0.686851686695     0.657346635856    -1.408747432067     1.007825032230
         H           -0.653541686695     2.162733635856     0.578779567933     1.007825032230
         H           -2.285977686695     1.518823635856     0.319340567933     1.007825032230
         H           -1.259132686695     0.833456635856     1.596943567933     1.007825032230
         H           -2.465684686695    -0.835467364144    -0.532226432067     1.007825032230
         H           -1.308956686695    -1.557190364144     0.385608567933     1.007825032230
         H            2.463906313305     0.485711635856    -0.145869432067     1.007825032230

  Basis Set: AUG-CC-PVTZ
    Blend: AUG-CC-PVTZ
  Basis Set: (AUG-CC-PVTZ AUX)
    Blend: AUG-CC-PVTZ-JKFIT
	 Reference Energy          =    -321.9956406117140659 [Eh]
	 Singles Energy            =      -0.0000000000000000 [Eh]
	 Same-Spin Energy          =      -0.3161438842701941 [Eh]
	 Opposite-Spin Energy      =      -0.9983523357552113 [Eh]
	 Correlation Energy        =      -1.3144962200254056 [Eh]
	 Total Energy              =    -323.3101368317394986 [Eh]

	 ================> DF-SCS-MP2 Energies <==================
	-----------------------------------------------------------
	 SCS Same-Spin Scale       =       0.3333333333333333 [-]
	 SCS Opposite-Spin Scale   =       1.2000000000000000 [-]
	 SCS Same-Spin Energy      =      -0.1053812947567314 [Eh]
	 SCS Opposite-Spin Energy  =      -1.1980228029062536 [Eh]
	 SCS Correlation Energy    =      -1.3034040976629850 [Eh]
	 SCS Total Energy          =    -323.2990447093770285 [Eh]
	-----------------------------------------------------------

  Dipole Moment: [D]
     X:    -0.4710      Y:     1.9839      Z:     0.3270     Total:     2.0651

*** Psi4 exiting successfully. Buy a developer a beer!
