                               Psi4 1.4a3.dev225

  ==> Input File <==

--------------------------------------------------------------------------
#psi4
#
memory 32 gb

molecule  {
0 1
  O        1.6642820     0.7200090    -0.5161230
  O        1.0775160    -1.0797240     0.7320070
  N       -1.3989360    -1.0731900    -0.4836900
  C       -0.6495540     0.1769830    -0.4155270
  C       -1.1961726     1.2297978     0.5918590
  C        0.7664420    -0.1647700    -0.0115760
  H       -0.6171430     0.6221670    -1.4153090
  H       -0.5838330     2.1275540     0.5722180
  H       -2.2162690     1.4836440     0.3127790
  H       -1.1894240     0.7982770     1.5903820
  H       -2.3959760    -0.8706470    -0.5387880
  H       -1.2392480    -1.5923700     0.3790470
  H        2.5336150     0.4505320    -0.1524310
units angstrom
no_reorient  #important for SAPT in psi4, default
symmetry c1  #important for SAPT in psi4, default
}

set PROPERTIES_ORIGIN ["COM"]
properties('MP2/aug-cc-pvtz', properties = ['dipole'])
--------------------------------------------------------------------------

    Molecular point group: c1
  Charge       = 0
  Multiplicity = 1
  Basis Set: AUG-CC-PVTZ
    Blend: AUG-CC-PVTZ
  Basis Set: (AUG-CC-PVTZ AUX)
    Blend: AUG-CC-PVTZ-JKFIT

    Orbital Energies [Eh]
    ---------------------

    Doubly Occupied:

       1A    -20.621313     2A    -20.555018     3A    -15.551138
       4A    -11.391084     5A    -11.283610     6A    -11.235826
       7A     -1.464752     8A     -1.361717     9A     -1.199006
      10A     -1.021675    11A     -0.914510    12A     -0.792505
      13A     -0.723581    14A     -0.706922    15A     -0.645176
      16A     -0.628830    17A     -0.610919    18A     -0.584608
      19A     -0.575536    20A     -0.545670    21A     -0.523451
      22A     -0.485071    23A     -0.454714    24A     -0.403175

  @DF-RHF Final Energy:  -321.99550297667838

   => Energetics <=

    Nuclear Repulsion Energy =            249.0117161069385929
    One-Electron Energy =                -933.4548254364020750
    Two-Electron Energy =                 362.4476063527851011
    Total Energy =                       -321.9955029766783809
  Basis Set: (AUG-CC-PVTZ AUX)
    Blend: AUG-CC-PVTZ-RI
    Molecular point group: c1

    Geometry (in Angstrom), charge = 0, multiplicity = 1:

       Center              X                  Y                   Z               Mass
    ------------   -----------------  -----------------  -----------------  -----------------
         O            1.601831636162     0.751842037661    -0.509505439591    15.994914619570
         O            1.015065636162    -1.047890962339     0.738624560409    15.994914619570
         N           -1.461386363838    -1.041356962339    -0.477072439591    14.003074004430
         C           -0.712004363838     0.208816037661    -0.408909439591    12.000000000000
         C           -1.258622963838     1.261630837661     0.598476560409    12.000000000000
         C            0.703991636162    -0.132936962339    -0.004958439591    12.000000000000
         H           -0.679593363838     0.654000037661    -1.408691439591     1.007825032230
         H           -0.646283363838     2.159387037661     0.578835560409     1.007825032230
         H           -2.278719363838     1.515477037661     0.319396560409     1.007825032230
         H           -1.251874363838     0.830110037661     1.596999560409     1.007825032230
         H           -2.458426363838    -0.838813962339    -0.532170439591     1.007825032230
         H           -1.301698363838    -1.560536962339     0.385664560409     1.007825032230
         H            2.471164636162     0.482365037661    -0.145813439591     1.007825032230

  Basis Set: AUG-CC-PVTZ
    Blend: AUG-CC-PVTZ
  Basis Set: (AUG-CC-PVTZ AUX)
    Blend: AUG-CC-PVTZ-JKFIT
	 Reference Energy          =    -321.9955029766783809 [Eh]
	 Singles Energy            =      -0.0000000000000000 [Eh]
	 Same-Spin Energy          =      -0.3168353181041004 [Eh]
	 Opposite-Spin Energy      =      -0.9998647228093852 [Eh]
	 Correlation Energy        =      -1.3167000409134855 [Eh]
	 Total Energy              =    -323.3122030175918553 [Eh]

	 ================> DF-SCS-MP2 Energies <==================
	-----------------------------------------------------------
	 SCS Same-Spin Scale       =       0.3333333333333333 [-]
	 SCS Opposite-Spin Scale   =       1.2000000000000000 [-]
	 SCS Same-Spin Energy      =      -0.1056117727013668 [Eh]
	 SCS Opposite-Spin Energy  =      -1.1998376673712623 [Eh]
	 SCS Correlation Energy    =      -1.3054494400726291 [Eh]
	 SCS Total Energy          =    -323.3009524167509880 [Eh]
	-----------------------------------------------------------

  Dipole Moment: [D]
     X:    -0.7639      Y:     2.0352      Z:     0.2782     Total:     2.1916

*** Psi4 exiting successfully. Buy a developer a beer!
