                               Psi4 1.3.2 release

  ==> Input File <==

--------------------------------------------------------------------------
#psi4
#
memory 32 gb

molecule  {
0 1
  O        1.5916557     0.7658216    -0.5562566
  O        1.0775810    -1.0797050     0.7319740
  N       -1.3988490    -1.0732660    -0.4837110
  C       -0.6495640     0.1769900    -0.4154850
  C       -1.1893050     1.2162270     0.5788640
  C        0.7664460    -0.1647250    -0.0115660
  H       -0.6171290     0.6221710    -1.4152790
  H       -0.5840790     2.1275670     0.5721320
  H       -2.2164450     1.4834670     0.3126690
  H       -1.1896280     0.7983240     1.5903720
  H       -2.3959300    -0.8708340    -0.5385770
  H       -1.2389410    -1.5925540     0.3789210
  H        2.5336290     0.4505910    -0.1523780
units angstrom
no_reorient  #important for SAPT in psi4, default
symmetry c1  #important for SAPT in psi4, default
}

set PROPERTIES_ORIGIN ["COM"]
properties('MP2/aug-cc-pvtz', properties = ['dipole'])
--------------------------------------------------------------------------

    Molecular point group: c1
  Charge       = 0
  Multiplicity = 1
  Basis Set: AUG-CC-PVTZ
    Blend: AUG-CC-PVTZ
  Basis Set: (AUG-CC-PVTZ AUX)
    Blend: AUG-CC-PVTZ-JKFIT

    Orbital Energies [Eh]
    ---------------------

    Doubly Occupied:

       1A    -20.632666     2A    -20.559668     3A    -15.548679
       4A    -11.391688     5A    -11.278428     6A    -11.234542
       7A     -1.457729     8A     -1.362190     9A     -1.197455
      10A     -1.020408    11A     -0.906827    12A     -0.776997
      13A     -0.718006    14A     -0.706897    15A     -0.646249
      16A     -0.632061    17A     -0.605468    18A     -0.580416
      19A     -0.575442    20A     -0.543252    21A     -0.518476
      22A     -0.488924    23A     -0.453583    24A     -0.402300

  @DF-RHF Final Energy:  -321.98012118229570

   => Energetics <=

    Nuclear Repulsion Energy =            249.3335465271505598
    One-Electron Energy =                -934.1506279235911734
    Two-Electron Energy =                 362.8369602141448809
    Total Energy =                       -321.9801211822957043
  Basis Set: (AUG-CC-PVTZ AUX)
    Blend: AUG-CC-PVTZ-RI
    Molecular point group: c1

    Geometry (in Angstrom), charge = 0, multiplicity = 1:

       Center              X                  Y                   Z               Mass
    ------------   -----------------  -----------------  -----------------  -----------------
         O            1.541303363493     0.791260822804    -0.540676316327    15.994914619570
         O            1.027228663493    -1.054265777196     0.747554283673    15.994914619570
         N           -1.449201336507    -1.047826777196    -0.468130716327    14.003074004430
         C           -0.699916336507     0.202429222804    -0.399904716327    12.000000000000
         C           -1.239657336507     1.241666222804     0.594444283673    12.000000000000
         C            0.716093663493    -0.139285777196     0.004014283673    12.000000000000
         H           -0.667481336507     0.647610222804    -1.399698716327     1.007825032230
         H           -0.634431336507     2.153006222804     0.587712283673     1.007825032230
         H           -2.266797336507     1.508906222804     0.328249283673     1.007825032230
         H           -1.239980336507     0.823763222804     1.605952283673     1.007825032230
         H           -2.446282336507    -0.845394777196    -0.522996716327     1.007825032230
         H           -1.289293336507    -1.567114777196     0.394501283673     1.007825032230
         H            2.483276663493     0.476030222804    -0.136797716327     1.007825032230

  Basis Set: AUG-CC-PVTZ
    Blend: AUG-CC-PVTZ
  Basis Set: (AUG-CC-PVTZ AUX)
    Blend: AUG-CC-PVTZ-JKFIT
	 Reference Energy          =    -321.9801211822957043 [Eh]
	 Singles Energy            =      -0.0000000000000000 [Eh]
	 Same-Spin Energy          =      -0.3188752549982512 [Eh]
	 Opposite-Spin Energy      =      -1.0042463465010480 [Eh]
	 Correlation Energy        =      -1.3231216014992992 [Eh]
	 Total Energy              =    -323.3032427837949854 [Eh]

	 ================> DF-SCS-MP2 Energies <==================
	-----------------------------------------------------------
	 SCS Same-Spin Scale       =       0.3333333333333333 [-]
	 SCS Opposite-Spin Scale   =       1.2000000000000000 [-]
	 SCS Same-Spin Energy      =      -0.1062917516660837 [Eh]
	 SCS Opposite-Spin Energy  =      -1.2050956158012576 [Eh]
	 SCS Correlation Energy    =      -1.3113873674673413 [Eh]
	 SCS Total Energy          =    -323.2915085497630230 [Eh]
	-----------------------------------------------------------

  Dipole Moment: [D]
     X:    -0.5788      Y:     2.0051      Z:     0.3151     Total:     2.1107

*** Psi4 exiting successfully. Buy a developer a beer!
