                               Psi4 1.4a3.dev225

  ==> Input File <==

--------------------------------------------------------------------------
#psi4
#
memory 32 gb

molecule  {
0 1
  O        1.6642820     0.7200090    -0.5161230
  O        1.0775160    -1.0797240     0.7320070
  N       -1.3989360    -1.0731900    -0.4836900
  C       -0.6495540     0.1769830    -0.4155270
  C       -1.1715864     1.1824435     0.5465480
  C        0.7664420    -0.1647700    -0.0115760
  H       -0.6171430     0.6221670    -1.4153090
  H       -0.5838330     2.1275540     0.5722180
  H       -2.2162690     1.4836440     0.3127790
  H       -1.1894240     0.7982770     1.5903820
  H       -2.3959760    -0.8706470    -0.5387880
  H       -1.2392480    -1.5923700     0.3790470
  H        2.5336150     0.4505320    -0.1524310
units angstrom
no_reorient  #important for SAPT in psi4, default
symmetry c1  #important for SAPT in psi4, default
}

set PROPERTIES_ORIGIN ["COM"]
properties('MP2/aug-cc-pvtz', properties = ['dipole'])
--------------------------------------------------------------------------

    Molecular point group: c1
  Charge       = 0
  Multiplicity = 1
  Basis Set: AUG-CC-PVTZ
    Blend: AUG-CC-PVTZ
  Basis Set: (AUG-CC-PVTZ AUX)
    Blend: AUG-CC-PVTZ-JKFIT

    Orbital Energies [Eh]
    ---------------------

    Doubly Occupied:

       1A    -20.621764     2A    -20.555759     3A    -15.550676
       4A    -11.391748     5A    -11.281080     6A    -11.238629
       7A     -1.465387     8A     -1.362322     9A     -1.202849
      10A     -1.029853    11A     -0.910729    12A     -0.793183
      13A     -0.725828    14A     -0.707720    15A     -0.648811
      16A     -0.629754    17A     -0.610270    18A     -0.587907
      19A     -0.579798    20A     -0.539257    21A     -0.513435
      22A     -0.485808    23A     -0.453575    24A     -0.407735

  @DF-RHF Final Energy:  -321.99276369538319

   => Energetics <=

    Nuclear Repulsion Energy =            250.1120121803891436
    One-Electron Energy =                -935.6217949634425395
    Two-Electron Energy =                 363.5170190876702350
    Total Energy =                       -321.9927636953831893
  Basis Set: (AUG-CC-PVTZ AUX)
    Blend: AUG-CC-PVTZ-RI
    Molecular point group: c1

    Geometry (in Angstrom), charge = 0, multiplicity = 1:

       Center              X                  Y                   Z               Mass
    ------------   -----------------  -----------------  -----------------  -----------------
         O            1.598518417838     0.758223468483    -0.503399362383    15.994914619570
         O            1.011752417838    -1.041509531517     0.744730637617    15.994914619570
         N           -1.464699582162    -1.034975531517    -0.470966362383    14.003074004430
         C           -0.715317582162     0.215197468483    -0.402803362383    12.000000000000
         C           -1.237349982162     1.220657968483     0.559271637617    12.000000000000
         C            0.700678417838    -0.126555531517     0.001147637617    12.000000000000
         H           -0.682906582162     0.660381468483    -1.402585362383     1.007825032230
         H           -0.649596582162     2.165768468483     0.584941637617     1.007825032230
         H           -2.282032582162     1.521858468483     0.325502637617     1.007825032230
         H           -1.255187582162     0.836491468483     1.603105637617     1.007825032230
         H           -2.461739582162    -0.832432531517    -0.526064362383     1.007825032230
         H           -1.305011582162    -1.554155531517     0.391770637617     1.007825032230
         H            2.467851417838     0.488746468483    -0.139707362383     1.007825032230

  Basis Set: AUG-CC-PVTZ
    Blend: AUG-CC-PVTZ
  Basis Set: (AUG-CC-PVTZ AUX)
    Blend: AUG-CC-PVTZ-JKFIT
	 Reference Energy          =    -321.9927636953831893 [Eh]
	 Singles Energy            =      -0.0000000000000000 [Eh]
	 Same-Spin Energy          =      -0.3173247100301539 [Eh]
	 Opposite-Spin Energy      =      -1.0003628228407551 [Eh]
	 Correlation Energy        =      -1.3176875328709090 [Eh]
	 Total Energy              =    -323.3104512282541236 [Eh]

	 ================> DF-SCS-MP2 Energies <==================
	-----------------------------------------------------------
	 SCS Same-Spin Scale       =       0.3333333333333333 [-]
	 SCS Opposite-Spin Scale   =       1.2000000000000000 [-]
	 SCS Same-Spin Energy      =      -0.1057749033433846 [Eh]
	 SCS Opposite-Spin Energy  =      -1.2004353874089060 [Eh]
	 SCS Correlation Energy    =      -1.3062102907522906 [Eh]
	 SCS Total Energy          =    -323.2989739861354792 [Eh]
	-----------------------------------------------------------

  Dipole Moment: [D]
     X:    -0.7379      Y:     2.0585      Z:     0.2971     Total:     2.2069

*** Psi4 exiting successfully. Buy a developer a beer!
