                               Psi4 1.3.2 release

  ==> Input File <==

--------------------------------------------------------------------------
#psi4
#
memory 32 gb

molecule  {
0 1
  O        1.6642950     0.7201020    -0.5160700
  O        1.0775810    -1.0797050     0.7319740
  N       -1.3988490    -1.0732660    -0.4837110
  C       -0.6729933     0.1776267    -0.4285066
  C       -1.1893050     1.2162270     0.5788640
  C        0.7664460    -0.1647250    -0.0115660
  H       -0.6171290     0.6221710    -1.4152790
  H       -0.5840790     2.1275670     0.5721320
  H       -2.2164450     1.4834670     0.3126690
  H       -1.1896280     0.7983240     1.5903720
  H       -2.3959300    -0.8708340    -0.5385770
  H       -1.2389410    -1.5925540     0.3789210
  H        2.5336290     0.4505910    -0.1523780
units angstrom
no_reorient  #important for SAPT in psi4, default
symmetry c1  #important for SAPT in psi4, default
}

set PROPERTIES_ORIGIN ["COM"]
properties('MP2/aug-cc-pvtz', properties = ['dipole'])
--------------------------------------------------------------------------

    Molecular point group: c1
  Charge       = 0
  Multiplicity = 1
  Basis Set: AUG-CC-PVTZ
    Blend: AUG-CC-PVTZ
  Basis Set: (AUG-CC-PVTZ AUX)
    Blend: AUG-CC-PVTZ-JKFIT

    Orbital Energies [Eh]
    ---------------------

    Doubly Occupied:

       1A    -20.621065     2A    -20.554761     3A    -15.551212
       4A    -11.391002     5A    -11.283359     6A    -11.235785
       7A     -1.463875     8A     -1.361096     9A     -1.203131
      10A     -1.021975    11A     -0.909271    12A     -0.794042
      13A     -0.723373    14A     -0.706921    15A     -0.644255
      16A     -0.628979    17A     -0.613388    18A     -0.583723
      19A     -0.579884    20A     -0.540779    21A     -0.524492
      22A     -0.485010    23A     -0.451134    24A     -0.405112

  @DF-RHF Final Energy:  -321.99513404866394

   => Energetics <=

    Nuclear Repulsion Energy =            249.0765577461476994
    One-Electron Energy =                -933.5881354485394468
    Two-Electron Energy =                 362.5164436537277766
    Total Energy =                       -321.9951340486639424
  Basis Set: (AUG-CC-PVTZ AUX)
    Blend: AUG-CC-PVTZ-RI
    Molecular point group: c1

    Geometry (in Angstrom), charge = 0, multiplicity = 1:

       Center              X                  Y                   Z               Mass
    ------------   -----------------  -----------------  -----------------  -----------------
         O            1.604052368578     0.753667663727    -0.505953329126    15.994914619570
         O            1.017338368578    -1.046139336273     0.742090670874    15.994914619570
         N           -1.459091631422    -1.039700336273    -0.473594329126    14.003074004430
         C           -0.733235931422     0.211192363727    -0.418389929126    12.000000000000
         C           -1.249547631422     1.249792663727     0.588980670874    12.000000000000
         C            0.706203368578    -0.131159336273    -0.001449329126    12.000000000000
         H           -0.677371631422     0.655736663727    -1.405162329126     1.007825032230
         H           -0.644321631422     2.161132663727     0.582248670874     1.007825032230
         H           -2.276687631422     1.517032663727     0.322785670874     1.007825032230
         H           -1.249870631422     0.831889663727     1.600488670874     1.007825032230
         H           -2.456172631422    -0.837268336273    -0.528460329126     1.007825032230
         H           -1.299183631422    -1.558988336273     0.389037670874     1.007825032230
         H            2.473386368578     0.484156663727    -0.142261329126     1.007825032230

  Basis Set: AUG-CC-PVTZ
    Blend: AUG-CC-PVTZ
  Basis Set: (AUG-CC-PVTZ AUX)
    Blend: AUG-CC-PVTZ-JKFIT
	 Reference Energy          =    -321.9951340486639424 [Eh]
	 Singles Energy            =      -0.0000000000000000 [Eh]
	 Same-Spin Energy          =      -0.3168949602880068 [Eh]
	 Opposite-Spin Energy      =      -0.9997822259346699 [Eh]
	 Correlation Energy        =      -1.3166771862226767 [Eh]
	 Total Energy              =    -323.3118112348865907 [Eh]

	 ================> DF-SCS-MP2 Energies <==================
	-----------------------------------------------------------
	 SCS Same-Spin Scale       =       0.3333333333333333 [-]
	 SCS Opposite-Spin Scale   =       1.2000000000000000 [-]
	 SCS Same-Spin Energy      =      -0.1056316534293356 [Eh]
	 SCS Opposite-Spin Energy  =      -1.1997386711216038 [Eh]
	 SCS Correlation Energy    =      -1.3053703245509394 [Eh]
	 SCS Total Energy          =    -323.3005043732148920 [Eh]
	-----------------------------------------------------------

  Dipole Moment: [D]
     X:    -0.7623      Y:     2.0159      Z:     0.2734     Total:     2.1725

*** Psi4 exiting successfully. Buy a developer a beer!
