                               Psi4 1.3.2 release

  ==> Input File <==

--------------------------------------------------------------------------
#psi4
#
memory 32 gb

molecule  {
0 1
  O        1.6642950     0.7201020    -0.5160700
  O        1.0775810    -1.0797050     0.7319740
  N       -1.3778387    -1.0859676    -0.4769419
  C       -0.6495640     0.1769900    -0.4154850
  C       -1.1893050     1.2162270     0.5788640
  C        0.7664460    -0.1647250    -0.0115660
  H       -0.6171290     0.6221710    -1.4152790
  H       -0.5840790     2.1275670     0.5721320
  H       -2.2164450     1.4834670     0.3126690
  H       -1.1896280     0.7983240     1.5903720
  H       -2.3959300    -0.8708340    -0.5385770
  H       -1.2389410    -1.5925540     0.3789210
  H        2.5336290     0.4505910    -0.1523780
units angstrom
no_reorient  #important for SAPT in psi4, default
symmetry c1  #important for SAPT in psi4, default
}

set PROPERTIES_ORIGIN ["COM"]
properties('MP2/aug-cc-pvtz', properties = ['dipole'])
--------------------------------------------------------------------------

    Molecular point group: c1
  Charge       = 0
  Multiplicity = 1
  Basis Set: AUG-CC-PVTZ
    Blend: AUG-CC-PVTZ
  Basis Set: (AUG-CC-PVTZ AUX)
    Blend: AUG-CC-PVTZ-JKFIT

    Orbital Energies [Eh]
    ---------------------

    Doubly Occupied:

       1A    -20.620950     2A    -20.554701     3A    -15.552380
       4A    -11.390533     5A    -11.283039     6A    -11.236845
       7A     -1.464494     8A     -1.361484     9A     -1.199892
      10A     -1.023677    11A     -0.913218    12A     -0.792518
      13A     -0.723813    14A     -0.707179    15A     -0.645219
      16A     -0.626059    17A     -0.612220    18A     -0.581077
      19A     -0.579787    20A     -0.543031    21A     -0.522032
      22A     -0.484811    23A     -0.453962    24A     -0.406014

  @DF-RHF Final Energy:  -321.99446671259210

   => Energetics <=

    Nuclear Repulsion Energy =            249.4303891122627590
    One-Electron Energy =                -934.2918421798102599
    Two-Electron Energy =                 362.8669863549553725
    Total Energy =                       -321.9944667125921001
  Basis Set: (AUG-CC-PVTZ AUX)
    Blend: AUG-CC-PVTZ-RI
    Molecular point group: c1

    Geometry (in Angstrom), charge = 0, multiplicity = 1:

       Center              X                  Y                   Z               Mass
    ------------   -----------------  -----------------  -----------------  -----------------
         O            1.597591106526     0.755750838134    -0.508772576215    15.994914619570
         O            1.010877106526    -1.044056161866     0.739271423785    15.994914619570
         N           -1.444542593474    -1.050318761866    -0.469644476215    14.003074004430
         C           -0.716267893474     0.212638838134    -0.408187576215    12.000000000000
         C           -1.256008893474     1.251875838134     0.586161423785    12.000000000000
         C            0.699742106526    -0.129076161866    -0.004268576215    12.000000000000
         H           -0.683832893474     0.657819838134    -1.407981576215     1.007825032230
         H           -0.650782893474     2.163215838134     0.579429423785     1.007825032230
         H           -2.283148893474     1.519115838134     0.319966423785     1.007825032230
         H           -1.256331893474     0.833972838134     1.597669423785     1.007825032230
         H           -2.462633893474    -0.835185161866    -0.531279576215     1.007825032230
         H           -1.305644893474    -1.556905161866     0.386218423785     1.007825032230
         H            2.466925106526     0.486239838134    -0.145080576215     1.007825032230

  Basis Set: AUG-CC-PVTZ
    Blend: AUG-CC-PVTZ
  Basis Set: (AUG-CC-PVTZ AUX)
    Blend: AUG-CC-PVTZ-JKFIT
	 Reference Energy          =    -321.9944667125921001 [Eh]
	 Singles Energy            =      -0.0000000000000000 [Eh]
	 Same-Spin Energy          =      -0.3170126284386104 [Eh]
	 Opposite-Spin Energy      =      -1.0001685515903973 [Eh]
	 Correlation Energy        =      -1.3171811800290076 [Eh]
	 Total Energy              =    -323.3116478926211244 [Eh]

	 ================> DF-SCS-MP2 Energies <==================
	-----------------------------------------------------------
	 SCS Same-Spin Scale       =       0.3333333333333333 [-]
	 SCS Opposite-Spin Scale   =       1.2000000000000000 [-]
	 SCS Same-Spin Energy      =      -0.1056708761462035 [Eh]
	 SCS Opposite-Spin Energy  =      -1.2002022619084767 [Eh]
	 SCS Correlation Energy    =      -1.3058731380546802 [Eh]
	 SCS Total Energy          =    -323.3003398506467647 [Eh]
	-----------------------------------------------------------

  Dipole Moment: [D]
     X:    -0.7887      Y:     2.0628      Z:     0.2817     Total:     2.2263

*** Psi4 exiting successfully. Buy a developer a beer!
