                               Psi4 1.3.2 release

  ==> Input File <==

--------------------------------------------------------------------------
#psi4
#
memory 32 gb

molecule  {
0 1
  O        1.6642950     0.7201020    -0.5160700
  O        1.0775810    -1.0797050     0.7319740
  N       -1.3988490    -1.0732660    -0.4837110
  C       -0.6495640     0.1769900    -0.4154850
  C       -1.1718997     1.1039503     0.6926548
  C        0.7664460    -0.1647250    -0.0115660
  H       -0.6171290     0.6221710    -1.4152790
  H       -0.5840790     2.1275670     0.5721320
  H       -2.2164450     1.4834670     0.3126690
  H       -1.1896280     0.7983240     1.5903720
  H       -2.3959300    -0.8708340    -0.5385770
  H       -1.2389410    -1.5925540     0.3789210
  H        2.5336290     0.4505910    -0.1523780
units angstrom
no_reorient  #important for SAPT in psi4, default
symmetry c1  #important for SAPT in psi4, default
}

set PROPERTIES_ORIGIN ["COM"]
properties('MP2/aug-cc-pvtz', properties = ['dipole'])
--------------------------------------------------------------------------

    Molecular point group: c1
  Charge       = 0
  Multiplicity = 1
  Basis Set: AUG-CC-PVTZ
    Blend: AUG-CC-PVTZ
  Basis Set: (AUG-CC-PVTZ AUX)
    Blend: AUG-CC-PVTZ-JKFIT

    Orbital Energies [Eh]
    ---------------------

    Doubly Occupied:

       1A    -20.621234     2A    -20.554567     3A    -15.549076
       4A    -11.390628     5A    -11.285757     6A    -11.240653
       7A     -1.464804     8A     -1.361713     9A     -1.201381
      10A     -1.024542    11A     -0.917449    12A     -0.795850
      13A     -0.727338    14A     -0.706893    15A     -0.648888
      16A     -0.628529    17A     -0.620789    18A     -0.586447
      19A     -0.579004    20A     -0.538833    21A     -0.512759
      22A     -0.484752    23A     -0.450342    24A     -0.400839

  @DF-RHF Final Energy:  -321.96334698018438

   => Energetics <=

    Nuclear Repulsion Energy =            249.8707354742572875
    One-Electron Energy =                -935.0820300281130812
    Two-Electron Energy =                 363.2479475736714676
    Total Energy =                       -321.9633469801843830
  Basis Set: (AUG-CC-PVTZ AUX)
    Blend: AUG-CC-PVTZ-RI
    Molecular point group: c1

    Geometry (in Angstrom), charge = 0, multiplicity = 1:

       Center              X                  Y                   Z               Mass
    ------------   -----------------  -----------------  -----------------  -----------------
         O            1.598549527759     0.768883790900    -0.523042475370    15.994914619570
         O            1.011835527759    -1.030923209100     0.725001524630    15.994914619570
         N           -1.464594472241    -1.024484209100    -0.490683475370    14.003074004430
         C           -0.715309472241     0.225771790900    -0.422457475370    12.000000000000
         C           -1.237645172241     1.152732090900     0.685682324630    12.000000000000
         C            0.700700527759    -0.115943209100    -0.018538475370    12.000000000000
         H           -0.682874472241     0.670952790900    -1.422251475370     1.007825032230
         H           -0.649824472241     2.176348790900     0.565159524630     1.007825032230
         H           -2.282190472241     1.532248790900     0.305696524630     1.007825032230
         H           -1.255373472241     0.847105790900     1.583399524630     1.007825032230
         H           -2.461675472241    -0.822052209100    -0.545549475370     1.007825032230
         H           -1.304686472241    -1.543772209100     0.371948524630     1.007825032230
         H            2.467883527759     0.499372790900    -0.159350475370     1.007825032230

  Basis Set: AUG-CC-PVTZ
    Blend: AUG-CC-PVTZ
  Basis Set: (AUG-CC-PVTZ AUX)
    Blend: AUG-CC-PVTZ-JKFIT
	 Reference Energy          =    -321.9633469801843830 [Eh]
	 Singles Energy            =      -0.0000000000000000 [Eh]
	 Same-Spin Energy          =      -0.3173969738852634 [Eh]
	 Opposite-Spin Energy      =      -1.0013184002683704 [Eh]
	 Correlation Energy        =      -1.3187153741536339 [Eh]
	 Total Energy              =    -323.2820623543379952 [Eh]

	 ================> DF-SCS-MP2 Energies <==================
	-----------------------------------------------------------
	 SCS Same-Spin Scale       =       0.3333333333333333 [-]
	 SCS Opposite-Spin Scale   =       1.2000000000000000 [-]
	 SCS Same-Spin Energy      =      -0.1057989912950878 [Eh]
	 SCS Opposite-Spin Energy  =      -1.2015820803220445 [Eh]
	 SCS Correlation Energy    =      -1.3073810716171324 [Eh]
	 SCS Total Energy          =    -323.2707280518015409 [Eh]
	-----------------------------------------------------------

  Dipole Moment: [D]
     X:    -0.7459      Y:     2.0231      Z:     0.2905     Total:     2.1757

*** Psi4 exiting successfully. Buy a developer a beer!
