                               Psi4 1.4a3.dev225

  ==> Input File <==

--------------------------------------------------------------------------
#psi4
#
memory 32 gb

molecule  {
0 1
  O        1.6642820     0.7200090    -0.5161230
  O        1.0775160    -1.0797240     0.7320070
  N       -1.3989360    -1.0731900    -0.4836900
  C       -0.6752325     0.1341443    -0.4178627
  C       -1.1891480     1.2162680     0.5789130
  C        0.7664420    -0.1647700    -0.0115760
  H       -0.6171430     0.6221670    -1.4153090
  H       -0.5838330     2.1275540     0.5722180
  H       -2.2162690     1.4836440     0.3127790
  H       -1.1894240     0.7982770     1.5903820
  H       -2.3959760    -0.8706470    -0.5387880
  H       -1.2392480    -1.5923700     0.3790470
  H        2.5336150     0.4505320    -0.1524310
units angstrom
no_reorient  #important for SAPT in psi4, default
symmetry c1  #important for SAPT in psi4, default
}

set PROPERTIES_ORIGIN ["COM"]
properties('MP2/aug-cc-pvtz', properties = ['dipole'])
--------------------------------------------------------------------------

    Molecular point group: c1
  Charge       = 0
  Multiplicity = 1
  Basis Set: AUG-CC-PVTZ
    Blend: AUG-CC-PVTZ
  Basis Set: (AUG-CC-PVTZ AUX)
    Blend: AUG-CC-PVTZ-JKFIT

    Orbital Energies [Eh]
    ---------------------

    Doubly Occupied:

       1A    -20.621538     2A    -20.553647     3A    -15.552143
       4A    -11.390325     5A    -11.284128     6A    -11.235666
       7A     -1.463905     8A     -1.361132     9A     -1.214899
      10A     -1.018123    11A     -0.909141    12A     -0.793466
      13A     -0.725138    14A     -0.707065    15A     -0.645583
      16A     -0.631800    17A     -0.613856    18A     -0.588726
      19A     -0.578078    20A     -0.541556    21A     -0.520439
      22A     -0.484541    23A     -0.450704    24A     -0.402401

  @DF-RHF Final Energy:  -321.99346831374191

   => Energetics <=

    Nuclear Repulsion Energy =            249.3884182999999553
    One-Electron Energy =                -934.1877656392806557
    Two-Electron Energy =                 362.8058790255388431
    Total Energy =                       -321.9934683137419142
  Basis Set: (AUG-CC-PVTZ AUX)
    Blend: AUG-CC-PVTZ-RI
    Molecular point group: c1

    Geometry (in Angstrom), charge = 0, multiplicity = 1:

       Center              X                  Y                   Z               Mass
    ------------   -----------------  -----------------  -----------------  -----------------
         O            1.604345422078     0.759438215480    -0.507446088880    15.994914619570
         O            1.017579422078    -1.040294784520     0.740683911120    15.994914619570
         N           -1.458872577922    -1.033760784520    -0.475013088880    14.003074004430
         C           -0.735169077922     0.173573515480    -0.409185788880    12.000000000000
         C           -1.249084577922     1.255697215480     0.587589911120    12.000000000000
         C            0.706505422078    -0.125340784520    -0.002899088880    12.000000000000
         H           -0.677079577922     0.661596215480    -1.406632088880     1.007825032230
         H           -0.643769577922     2.166983215480     0.580894911120     1.007825032230
         H           -2.276205577922     1.523073215480     0.321455911120     1.007825032230
         H           -1.249360577922     0.837706215480     1.599058911120     1.007825032230
         H           -2.455912577922    -0.831217784520    -0.530111088880     1.007825032230
         H           -1.299184577922    -1.552940784520     0.387723911120     1.007825032230
         H            2.473678422078     0.489961215480    -0.143754088880     1.007825032230

  Basis Set: AUG-CC-PVTZ
    Blend: AUG-CC-PVTZ
  Basis Set: (AUG-CC-PVTZ AUX)
    Blend: AUG-CC-PVTZ-JKFIT
	 Reference Energy          =    -321.9934683137419142 [Eh]
	 Singles Energy            =      -0.0000000000000000 [Eh]
	 Same-Spin Energy          =      -0.3170536365946256 [Eh]
	 Opposite-Spin Energy      =      -0.9996902038151242 [Eh]
	 Correlation Energy        =      -1.3167438404097498 [Eh]
	 Total Energy              =    -323.3102121541516567 [Eh]

	 ================> DF-SCS-MP2 Energies <==================
	-----------------------------------------------------------
	 SCS Same-Spin Scale       =       0.3333333333333333 [-]
	 SCS Opposite-Spin Scale   =       1.2000000000000000 [-]
	 SCS Same-Spin Energy      =      -0.1056845455315419 [Eh]
	 SCS Opposite-Spin Energy  =      -1.1996282445781490 [Eh]
	 SCS Correlation Energy    =      -1.3053127901096908 [Eh]
	 SCS Total Energy          =    -323.2987811038515815 [Eh]
	-----------------------------------------------------------

  Dipole Moment: [D]
     X:    -0.8143      Y:     1.9229      Z:     0.2488     Total:     2.1029

*** Psi4 exiting successfully. Buy a developer a beer!
