                               Psi4 1.3.2 release

  ==> Input File <==

--------------------------------------------------------------------------
#psi4
#
memory 32 gb

molecule  {
0 1
  O        1.6642950     0.7201020    -0.5160700
  O        1.0775810    -1.0797050     0.7319740
  N       -1.3988490    -1.0732660    -0.4837110
  C       -0.7522631     0.0056265    -0.4248362
  C       -1.1893050     1.2162270     0.5788640
  C        0.7664460    -0.1647250    -0.0115660
  H       -0.6171290     0.6221710    -1.4152790
  H       -0.5840790     2.1275670     0.5721320
  H       -2.2164450     1.4834670     0.3126690
  H       -1.1896280     0.7983240     1.5903720
  H       -2.3959300    -0.8708340    -0.5385770
  H       -1.2389410    -1.5925540     0.3789210
  H        2.5336290     0.4505910    -0.1523780
units angstrom
no_reorient  #important for SAPT in psi4, default
symmetry c1  #important for SAPT in psi4, default
}

set PROPERTIES_ORIGIN ["COM"]
properties('MP2/aug-cc-pvtz', properties = ['dipole'])
--------------------------------------------------------------------------

    Molecular point group: c1
  Charge       = 0
  Multiplicity = 1
  Basis Set: AUG-CC-PVTZ
    Blend: AUG-CC-PVTZ
  Basis Set: (AUG-CC-PVTZ AUX)
    Blend: AUG-CC-PVTZ-JKFIT

    Orbital Energies [Eh]
    ---------------------

    Doubly Occupied:

       1A    -20.621446     2A    -20.549009     3A    -15.556521
       4A    -11.387731     5A    -11.291265     6A    -11.231670
       7A     -1.460875     8A     -1.359204     9A     -1.275796
      10A     -0.998391    11A     -0.896532    12A     -0.799039
      13A     -0.738013    14A     -0.706339    15A     -0.663784
      16A     -0.636889    17A     -0.621931    18A     -0.602084
      19A     -0.570697    20A     -0.534625    21A     -0.517637
      22A     -0.482622    23A     -0.434016    24A     -0.383253

  @DF-RHF Final Energy:  -321.94645524859226

   => Energetics <=

    Nuclear Repulsion Energy =            249.7531590551425893
    One-Electron Energy =                -934.7604861078229987
    Two-Electron Energy =                 363.0608718040882081
    Total Energy =                       -321.9464552485922582
  Basis Set: (AUG-CC-PVTZ AUX)
    Blend: AUG-CC-PVTZ-RI
    Molecular point group: c1

    Geometry (in Angstrom), charge = 0, multiplicity = 1:

       Center              X                  Y                   Z               Mass
    ------------   -----------------  -----------------  -----------------  -----------------
         O            1.614734708830     0.776846284838    -0.506447949545    15.994914619570
         O            1.028020708830    -1.022960715162     0.741596050455    15.994914619570
         N           -1.448409291170    -1.016521715162    -0.474088949545    14.003074004430
         C           -0.801823391170     0.062370784838    -0.415214149545    12.000000000000
         C           -1.238865291170     1.272971284838     0.588486050455    12.000000000000
         C            0.716885708830    -0.107980715162    -0.001943949545    12.000000000000
         H           -0.666689291170     0.678915284838    -1.405656949545     1.007825032230
         H           -0.633639291170     2.184311284838     0.581754050455     1.007825032230
         H           -2.266005291170     1.540211284838     0.322291050455     1.007825032230
         H           -1.239188291170     0.855068284838     1.599994050455     1.007825032230
         H           -2.445490291170    -0.814089715162    -0.528954949545     1.007825032230
         H           -1.288501291170    -1.535809715162     0.388543050455     1.007825032230
         H            2.484068708830     0.507335284838    -0.142755949545     1.007825032230

  Basis Set: AUG-CC-PVTZ
    Blend: AUG-CC-PVTZ
  Basis Set: (AUG-CC-PVTZ AUX)
    Blend: AUG-CC-PVTZ-JKFIT
	 Reference Energy          =    -321.9464552485922582 [Eh]
	 Singles Energy            =      -0.0000000000000000 [Eh]
	 Same-Spin Energy          =      -0.3188397352296698 [Eh]
	 Opposite-Spin Energy      =      -1.0013141183612313 [Eh]
	 Correlation Energy        =      -1.3201538535909010 [Eh]
	 Total Energy              =    -323.2666091021831676 [Eh]

	 ================> DF-SCS-MP2 Energies <==================
	-----------------------------------------------------------
	 SCS Same-Spin Scale       =       0.3333333333333333 [-]
	 SCS Opposite-Spin Scale   =       1.2000000000000000 [-]
	 SCS Same-Spin Energy      =      -0.1062799117432233 [Eh]
	 SCS Opposite-Spin Energy  =      -1.2015769420334774 [Eh]
	 SCS Correlation Energy    =      -1.3078568537767006 [Eh]
	 SCS Total Energy          =    -323.2543121023689423 [Eh]
	-----------------------------------------------------------

  Dipole Moment: [D]
     X:    -1.0313      Y:     1.4344      Z:     0.1286     Total:     1.7713

*** Psi4 exiting successfully. Buy a developer a beer!
