                               Psi4 1.4a3.dev225

  ==> Input File <==

--------------------------------------------------------------------------
#psi4
#
memory 32 gb

molecule  {
0 1
  O        1.6642820     0.7200090    -0.5161230
  O        1.0775160    -1.0797240     0.7320070
  N       -1.3989360    -1.0731900    -0.4836900
  C       -0.6495540     0.1769830    -0.4155270
  C       -1.1891480     1.2162680     0.5789130
  C        0.7851767    -0.1692917    -0.0062314
  H       -0.6171430     0.6221670    -1.4153090
  H       -0.5838330     2.1275540     0.5722180
  H       -2.2162690     1.4836440     0.3127790
  H       -1.1894240     0.7982770     1.5903820
  H       -2.3959760    -0.8706470    -0.5387880
  H       -1.2392480    -1.5923700     0.3790470
  H        2.5336150     0.4505320    -0.1524310
units angstrom
no_reorient  #important for SAPT in psi4, default
symmetry c1  #important for SAPT in psi4, default
}

set PROPERTIES_ORIGIN ["COM"]
properties('MP2/aug-cc-pvtz', properties = ['dipole'])
--------------------------------------------------------------------------

    Molecular point group: c1
  Charge       = 0
  Multiplicity = 1
  Basis Set: AUG-CC-PVTZ
    Blend: AUG-CC-PVTZ
  Basis Set: (AUG-CC-PVTZ AUX)
    Blend: AUG-CC-PVTZ-JKFIT

    Orbital Energies [Eh]
    ---------------------

    Doubly Occupied:

       1A    -20.623244     2A    -20.556160     3A    -15.549737
       4A    -11.389672     5A    -11.281910     6A    -11.234921
       7A     -1.470281     8A     -1.369324     9A     -1.197644
      10A     -1.020420    11A     -0.909720    12A     -0.793221
      13A     -0.722385    14A     -0.710582    15A     -0.647726
      16A     -0.632745    17A     -0.609070    18A     -0.584092
      19A     -0.576257    20A     -0.544604    21A     -0.519704
      22A     -0.489326    23A     -0.452289    24A     -0.403106

  @DF-RHF Final Energy:  -321.99652477889015

   => Energetics <=

    Nuclear Repulsion Energy =            249.3158589675521455
    One-Electron Energy =                -934.0484870052125643
    Two-Electron Energy =                 362.7361032587702994
    Total Energy =                       -321.9965247788901479
  Basis Set: (AUG-CC-PVTZ AUX)
    Blend: AUG-CC-PVTZ-RI
    Molecular point group: c1

    Geometry (in Angstrom), charge = 0, multiplicity = 1:

       Center              X                  Y                   Z               Mass
    ------------   -----------------  -----------------  -----------------  -----------------
         O            1.598360331741     0.754274644594    -0.508481080489    15.994914619570
         O            1.011594331741    -1.045458355406     0.739648919511    15.994914619570
         N           -1.464857668259    -1.038924355406    -0.476048080489    14.003074004430
         C           -0.715475668259     0.211248644594    -0.407885080489    12.000000000000
         C           -1.255069668259     1.250533644594     0.586554919511    12.000000000000
         C            0.719255031741    -0.135026055406     0.001410519511    12.000000000000
         H           -0.683064668259     0.656432644594    -1.407667080489     1.007825032230
         H           -0.649754668259     2.161819644594     0.579859919511     1.007825032230
         H           -2.282190668259     1.517909644594     0.320420919511     1.007825032230
         H           -1.255345668259     0.832542644594     1.598023919511     1.007825032230
         H           -2.461897668259    -0.836381355406    -0.531146080489     1.007825032230
         H           -1.305169668259    -1.558104355406     0.386688919511     1.007825032230
         H            2.467693331741     0.484797644594    -0.144789080489     1.007825032230

  Basis Set: AUG-CC-PVTZ
    Blend: AUG-CC-PVTZ
  Basis Set: (AUG-CC-PVTZ AUX)
    Blend: AUG-CC-PVTZ-JKFIT
	 Reference Energy          =    -321.9965247788901479 [Eh]
	 Singles Energy            =      -0.0000000000000000 [Eh]
	 Same-Spin Energy          =      -0.3165812474638065 [Eh]
	 Opposite-Spin Energy      =      -0.9992335491472826 [Eh]
	 Correlation Energy        =      -1.3158147966110891 [Eh]
	 Total Energy              =    -323.3123395755012552 [Eh]

	 ================> DF-SCS-MP2 Energies <==================
	-----------------------------------------------------------
	 SCS Same-Spin Scale       =       0.3333333333333333 [-]
	 SCS Opposite-Spin Scale   =       1.2000000000000000 [-]
	 SCS Same-Spin Energy      =      -0.1055270824879355 [Eh]
	 SCS Opposite-Spin Energy  =      -1.1990802589767391 [Eh]
	 SCS Correlation Energy    =      -1.3046073414646746 [Eh]
	 SCS Total Energy          =    -323.3011321203548505 [Eh]
	-----------------------------------------------------------

  Dipole Moment: [D]
     X:    -0.6432      Y:     2.0201      Z:     0.3004     Total:     2.1412

*** Psi4 exiting successfully. Buy a developer a beer!
