                               Psi4 1.3.2 release

  ==> Input File <==

--------------------------------------------------------------------------
#psi4
#
memory 32 gb

molecule  {
0 1
  O        1.6642950     0.7201020    -0.5160700
  O        1.0775810    -1.0797050     0.7319740
  N       -1.3988490    -1.0732660    -0.4837110
  C       -0.7293294     0.1120666    -0.3851464
  C       -1.1893050     1.2162270     0.5788640
  C        0.7664460    -0.1647250    -0.0115660
  H       -0.6171290     0.6221710    -1.4152790
  H       -0.5840790     2.1275670     0.5721320
  H       -2.2164450     1.4834670     0.3126690
  H       -1.1896280     0.7983240     1.5903720
  H       -2.3959300    -0.8708340    -0.5385770
  H       -1.2389410    -1.5925540     0.3789210
  H        2.5336290     0.4505910    -0.1523780
units angstrom
no_reorient  #important for SAPT in psi4, default
symmetry c1  #important for SAPT in psi4, default
}

set PROPERTIES_ORIGIN ["COM"]
properties('MP2/aug-cc-pvtz', properties = ['dipole'])
--------------------------------------------------------------------------

    Molecular point group: c1
  Charge       = 0
  Multiplicity = 1
  Basis Set: AUG-CC-PVTZ
    Blend: AUG-CC-PVTZ
  Basis Set: (AUG-CC-PVTZ AUX)
    Blend: AUG-CC-PVTZ-JKFIT

    Orbital Energies [Eh]
    ---------------------

    Doubly Occupied:

       1A    -20.621495     2A    -20.551837     3A    -15.554426
       4A    -11.388870     5A    -11.287146     6A    -11.234033
       7A     -1.462174     8A     -1.359868     9A     -1.232496
      10A     -1.018188    11A     -0.901363    12A     -0.792707
      13A     -0.724937    14A     -0.706416    15A     -0.646987
      16A     -0.634860    17A     -0.616967    18A     -0.599066
      19A     -0.578526    20A     -0.538132    21A     -0.514473
      22A     -0.483692    23A     -0.440597    24A     -0.404848

  @DF-RHF Final Energy:  -321.98262356038168

   => Energetics <=

    Nuclear Repulsion Energy =            249.4584018250208146
    One-Electron Energy =                -934.2938463008587178
    Two-Electron Energy =                 362.8528209154562205
    Total Energy =                       -321.9826235603816826
  Basis Set: (AUG-CC-PVTZ AUX)
    Blend: AUG-CC-PVTZ-RI
    Molecular point group: c1

    Geometry (in Angstrom), charge = 0, multiplicity = 1:

       Center              X                  Y                   Z               Mass
    ------------   -----------------  -----------------  -----------------  -----------------
         O            1.611644180197     0.762502494837    -0.511796517955    15.994914619570
         O            1.024930180197    -1.037304505163     0.736247482045    15.994914619570
         N           -1.451499819803    -1.030865505163    -0.479437517955    14.003074004430
         C           -0.781980219803     0.154467094837    -0.380872917955    12.000000000000
         C           -1.241955819803     1.258627494837     0.583137482045    12.000000000000
         C            0.713795180197    -0.122324505163    -0.007292517955    12.000000000000
         H           -0.669779819803     0.664571494837    -1.411005517955     1.007825032230
         H           -0.636729819803     2.169967494837     0.576405482045     1.007825032230
         H           -2.269095819803     1.525867494837     0.316942482045     1.007825032230
         H           -1.242278819803     0.840724494837     1.594645482045     1.007825032230
         H           -2.448580819803    -0.828433505163    -0.534303517955     1.007825032230
         H           -1.291591819803    -1.550153505163     0.383194482045     1.007825032230
         H            2.480978180197     0.492991494837    -0.148104517955     1.007825032230

  Basis Set: AUG-CC-PVTZ
    Blend: AUG-CC-PVTZ
  Basis Set: (AUG-CC-PVTZ AUX)
    Blend: AUG-CC-PVTZ-JKFIT
	 Reference Energy          =    -321.9826235603816826 [Eh]
	 Singles Energy            =      -0.0000000000000000 [Eh]
	 Same-Spin Energy          =      -0.3175431404740795 [Eh]
	 Opposite-Spin Energy      =      -1.0002279618490726 [Eh]
	 Correlation Energy        =      -1.3177711023231522 [Eh]
	 Total Energy              =    -323.3003946627048322 [Eh]

	 ================> DF-SCS-MP2 Energies <==================
	-----------------------------------------------------------
	 SCS Same-Spin Scale       =       0.3333333333333333 [-]
	 SCS Opposite-Spin Scale   =       1.2000000000000000 [-]
	 SCS Same-Spin Energy      =      -0.1058477134913598 [Eh]
	 SCS Opposite-Spin Energy  =      -1.2002735542188872 [Eh]
	 SCS Correlation Energy    =      -1.3061212677102469 [Eh]
	 SCS Total Energy          =    -323.2887448280919216 [Eh]
	-----------------------------------------------------------

  Dipole Moment: [D]
     X:    -0.8790      Y:     1.8135      Z:     0.2788     Total:     2.0345

*** Psi4 exiting successfully. Buy a developer a beer!
