                               Psi4 1.3.2 release

  ==> Input File <==

--------------------------------------------------------------------------
#psi4
#
memory 32 gb

molecule  {
0 1
  O        1.6642950     0.7201020    -0.5160700
  O        1.0775810    -1.0797050     0.7319740
  N       -1.3988490    -1.0732660    -0.4837110
  C       -0.6495640     0.1769900    -0.4154850
  C       -1.1916352     1.2338643     0.5588042
  C        0.7664460    -0.1647250    -0.0115660
  H       -0.6171290     0.6221710    -1.4152790
  H       -0.5840790     2.1275670     0.5721320
  H       -2.2164450     1.4834670     0.3126690
  H       -1.1896280     0.7983240     1.5903720
  H       -2.3959300    -0.8708340    -0.5385770
  H       -1.2389410    -1.5925540     0.3789210
  H        2.5336290     0.4505910    -0.1523780
units angstrom
no_reorient  #important for SAPT in psi4, default
symmetry c1  #important for SAPT in psi4, default
}

set PROPERTIES_ORIGIN ["COM"]
properties('MP2/aug-cc-pvtz', properties = ['dipole'])
--------------------------------------------------------------------------

    Molecular point group: c1
  Charge       = 0
  Multiplicity = 1
  Basis Set: AUG-CC-PVTZ
    Blend: AUG-CC-PVTZ
  Basis Set: (AUG-CC-PVTZ AUX)
    Blend: AUG-CC-PVTZ-JKFIT

    Orbital Energies [Eh]
    ---------------------

    Doubly Occupied:

       1A    -20.621538     2A    -20.555403     3A    -15.551414
       4A    -11.391488     5A    -11.282918     6A    -11.236602
       7A     -1.465012     8A     -1.361979     9A     -1.199942
      10A     -1.024131    11A     -0.913560    12A     -0.792683
      13A     -0.723851    14A     -0.707304    15A     -0.646557
      16A     -0.629174    17A     -0.611453    18A     -0.584546
      19A     -0.577516    20A     -0.547235    21A     -0.515683
      22A     -0.485436    23A     -0.454851    24A     -0.405130

  @DF-RHF Final Energy:  -321.99483980209453

   => Energetics <=

    Nuclear Repulsion Energy =            249.2399941992972288
    One-Electron Energy =                -933.8988557716540981
    Two-Electron Energy =                 362.6640217702623090
    Total Energy =                       -321.9948398020945319
  Basis Set: (AUG-CC-PVTZ AUX)
    Blend: AUG-CC-PVTZ-RI
    Molecular point group: c1

    Geometry (in Angstrom), charge = 0, multiplicity = 1:

       Center              X                  Y                   Z               Mass
    ------------   -----------------  -----------------  -----------------  -----------------
         O            1.601209069299     0.751376675309    -0.505004866444    15.994914619570
         O            1.014495069299    -1.048430324691     0.743039133556    15.994914619570
         N           -1.461934930701    -1.041991324691    -0.472645866444    14.003074004430
         C           -0.712649930701     0.208264675309    -0.404419866444    12.000000000000
         C           -1.254721130701     1.265138975309     0.569869333556    12.000000000000
         C            0.703360069299    -0.133450324691    -0.000500866444    12.000000000000
         H           -0.680214930701     0.653445675309    -1.404213866444     1.007825032230
         H           -0.647164930701     2.158841675309     0.583197133556     1.007825032230
         H           -2.279530930701     1.514741675309     0.323734133556     1.007825032230
         H           -1.252713930701     0.829598675309     1.601437133556     1.007825032230
         H           -2.459015930701    -0.839559324691    -0.527511866444     1.007825032230
         H           -1.302026930701    -1.561279324691     0.389986133556     1.007825032230
         H            2.470543069299     0.481865675309    -0.141312866444     1.007825032230

  Basis Set: AUG-CC-PVTZ
    Blend: AUG-CC-PVTZ
  Basis Set: (AUG-CC-PVTZ AUX)
    Blend: AUG-CC-PVTZ-JKFIT
	 Reference Energy          =    -321.9948398020945319 [Eh]
	 Singles Energy            =      -0.0000000000000000 [Eh]
	 Same-Spin Energy          =      -0.3169477278924758 [Eh]
	 Opposite-Spin Energy      =      -0.9999878151007335 [Eh]
	 Correlation Energy        =      -1.3169355429932095 [Eh]
	 Total Energy              =    -323.3117753450877672 [Eh]

	 ================> DF-SCS-MP2 Energies <==================
	-----------------------------------------------------------
	 SCS Same-Spin Scale       =       0.3333333333333333 [-]
	 SCS Opposite-Spin Scale   =       1.2000000000000000 [-]
	 SCS Same-Spin Energy      =      -0.1056492426308253 [Eh]
	 SCS Opposite-Spin Energy  =      -1.1999853781208802 [Eh]
	 SCS Correlation Energy    =      -1.3056346207517056 [Eh]
	 SCS Total Energy          =    -323.3004744228462641 [Eh]
	-----------------------------------------------------------

  Dipole Moment: [D]
     X:    -0.7566      Y:     2.0426      Z:     0.2748     Total:     2.1955

*** Psi4 exiting successfully. Buy a developer a beer!
