                               Psi4 1.3.2 release

  ==> Input File <==

--------------------------------------------------------------------------
#psi4
#
memory 32 gb

molecule  {
0 1
  O        1.6642950     0.7201020    -0.5160700
  O        1.0775810    -1.0797050     0.7319740
  N       -1.3988490    -1.0732660    -0.4837110
  C       -0.6495640     0.1769900    -0.4154850
  C       -1.2244387     1.2838747     0.6435897
  C        0.7664460    -0.1647250    -0.0115660
  H       -0.6171290     0.6221710    -1.4152790
  H       -0.5840790     2.1275670     0.5721320
  H       -2.2164450     1.4834670     0.3126690
  H       -1.1896280     0.7983240     1.5903720
  H       -2.3959300    -0.8708340    -0.5385770
  H       -1.2389410    -1.5925540     0.3789210
  H        2.5336290     0.4505910    -0.1523780
units angstrom
no_reorient  #important for SAPT in psi4, default
symmetry c1  #important for SAPT in psi4, default
}

set PROPERTIES_ORIGIN ["COM"]
properties('MP2/aug-cc-pvtz', properties = ['dipole'])
--------------------------------------------------------------------------

    Molecular point group: c1
  Charge       = 0
  Multiplicity = 1
  Basis Set: AUG-CC-PVTZ
    Blend: AUG-CC-PVTZ
  Basis Set: (AUG-CC-PVTZ AUX)
    Blend: AUG-CC-PVTZ-JKFIT

    Orbital Energies [Eh]
    ---------------------

    Doubly Occupied:

       1A    -20.620789     2A    -20.554164     3A    -15.551878
       4A    -11.390444     5A    -11.285908     6A    -11.234468
       7A     -1.464048     8A     -1.361031     9A     -1.195883
      10A     -1.014286    11A     -0.918586    12A     -0.791671
      13A     -0.721547    14A     -0.706095    15A     -0.642604
      16A     -0.628079    17A     -0.613947    18A     -0.589552
      19A     -0.571208    20A     -0.545743    21A     -0.529834
      22A     -0.483818    23A     -0.455196    24A     -0.395891

  @DF-RHF Final Energy:  -321.98867657568235

   => Energetics <=

    Nuclear Repulsion Energy =            247.8070771230270850
    One-Electron Energy =                -931.0581656038722258
    Two-Electron Energy =                 361.2624119051628213
    Total Energy =                       -321.9886765756823479
  Basis Set: (AUG-CC-PVTZ AUX)
    Blend: AUG-CC-PVTZ-RI
    Molecular point group: c1

    Geometry (in Angstrom), charge = 0, multiplicity = 1:

       Center              X                  Y                   Z               Mass
    ------------   -----------------  -----------------  -----------------  -----------------
         O            1.605629644959     0.744637310395    -0.516430498392    15.994914619570
         O            1.018915644959    -1.055169689605     0.731613501608    15.994914619570
         N           -1.457514355041    -1.048730689605    -0.484071498392    14.003074004430
         C           -0.708229355041     0.201525310395    -0.415845498392    12.000000000000
         C           -1.283104055041     1.308410010395     0.643229201608    12.000000000000
         C            0.707780644959    -0.140189689605    -0.011926498392    12.000000000000
         H           -0.675794355041     0.646706310395    -1.415639498392     1.007825032230
         H           -0.642744355041     2.152102310395     0.571771501608     1.007825032230
         H           -2.275110355041     1.508002310395     0.312308501608     1.007825032230
         H           -1.248293355041     0.822859310395     1.590011501608     1.007825032230
         H           -2.454595355041    -0.846298689605    -0.538937498392     1.007825032230
         H           -1.297606355041    -1.568018689605     0.378560501608     1.007825032230
         H            2.474963644959     0.475126310395    -0.152738498392     1.007825032230

  Basis Set: AUG-CC-PVTZ
    Blend: AUG-CC-PVTZ
  Basis Set: (AUG-CC-PVTZ AUX)
    Blend: AUG-CC-PVTZ-JKFIT
	 Reference Energy          =    -321.9886765756823479 [Eh]
	 Singles Energy            =      -0.0000000000000000 [Eh]
	 Same-Spin Energy          =      -0.3167163676069545 [Eh]
	 Opposite-Spin Energy      =      -1.0000488033570085 [Eh]
	 Correlation Energy        =      -1.3167651709639629 [Eh]
	 Total Energy              =    -323.3054417466462951 [Eh]

	 ================> DF-SCS-MP2 Energies <==================
	-----------------------------------------------------------
	 SCS Same-Spin Scale       =       0.3333333333333333 [-]
	 SCS Opposite-Spin Scale   =       1.2000000000000000 [-]
	 SCS Same-Spin Energy      =      -0.1055721225356515 [Eh]
	 SCS Opposite-Spin Energy  =      -1.2000585640284103 [Eh]
	 SCS Correlation Energy    =      -1.3056306865640617 [Eh]
	 SCS Total Energy          =    -323.2943072622464342 [Eh]
	-----------------------------------------------------------

  Dipole Moment: [D]
     X:    -0.7903      Y:     1.9963      Z:     0.2475     Total:     2.1613

*** Psi4 exiting successfully. Buy a developer a beer!
