                               Psi4 1.3.2 release

  ==> Input File <==

--------------------------------------------------------------------------
#psi4
#
memory 32 gb

molecule  {
0 1
  O        1.6642950     0.7201020    -0.5160700
  O        1.0775810    -1.0797050     0.7319740
  N       -1.3988490    -1.0732660    -0.4837110
  C       -0.5468649     0.3483535    -0.4061338
  C       -1.1893050     1.2162270     0.5788640
  C        0.7664460    -0.1647250    -0.0115660
  H       -0.6171290     0.6221710    -1.4152790
  H       -0.5840790     2.1275670     0.5721320
  H       -2.2164450     1.4834670     0.3126690
  H       -1.1896280     0.7983240     1.5903720
  H       -2.3959300    -0.8708340    -0.5385770
  H       -1.2389410    -1.5925540     0.3789210
  H        2.5336290     0.4505910    -0.1523780
units angstrom
no_reorient  #important for SAPT in psi4, default
symmetry c1  #important for SAPT in psi4, default
}

set PROPERTIES_ORIGIN ["COM"]
properties('MP2/aug-cc-pvtz', properties = ['dipole'])
--------------------------------------------------------------------------

    Molecular point group: c1
  Charge       = 0
  Multiplicity = 1
  Basis Set: AUG-CC-PVTZ
    Blend: AUG-CC-PVTZ
  Basis Set: (AUG-CC-PVTZ AUX)
    Blend: AUG-CC-PVTZ-JKFIT

    Orbital Energies [Eh]
    ---------------------

    Doubly Occupied:

       1A    -20.621470     2A    -20.561700     3A    -15.543975
       4A    -11.396545     5A    -11.285640     6A    -11.239710
       7A     -1.469852     8A     -1.365465     9A     -1.161252
      10A     -1.041228    11A     -0.930812    12A     -0.792954
      13A     -0.726352    14A     -0.709319    15A     -0.654084
      16A     -0.623065    17A     -0.606096    18A     -0.586044
      19A     -0.578685    20A     -0.548561    21A     -0.500299
      22A     -0.484242    23A     -0.464114    24A     -0.395733

  @DF-RHF Final Energy:  -321.96032251390540

   => Energetics <=

    Nuclear Repulsion Energy =            249.1380609781946305
    One-Electron Energy =                -933.6223700424193339
    Two-Electron Energy =                 362.5239865503193073
    Total Energy =                       -321.9603225139053961
  Basis Set: (AUG-CC-PVTZ AUX)
    Blend: AUG-CC-PVTZ-RI
    Molecular point group: c1

    Geometry (in Angstrom), charge = 0, multiplicity = 1:

       Center              X                  Y                   Z               Mass
    ------------   -----------------  -----------------  -----------------  -----------------
         O            1.587055397675     0.730660645069    -0.508968271286    15.994914619570
         O            1.000341397675    -1.069146354931     0.739075728714    15.994914619570
         N           -1.476088602325    -1.062707354931    -0.476609271286    14.003074004430
         C           -0.624104502325     0.358912145069    -0.399032071286    12.000000000000
         C           -1.266544602325     1.226785645069     0.585965728714    12.000000000000
         C            0.689206397675    -0.154166354931    -0.004464271286    12.000000000000
         H           -0.694368602325     0.632729645069    -1.408177271286     1.007825032230
         H           -0.661318602325     2.138125645069     0.579233728714     1.007825032230
         H           -2.293684602325     1.494025645069     0.319770728714     1.007825032230
         H           -1.266867602325     0.808882645069     1.597473728714     1.007825032230
         H           -2.473169602325    -0.860275354931    -0.531475271286     1.007825032230
         H           -1.316180602325    -1.581995354931     0.386022728714     1.007825032230
         H            2.456389397675     0.461149645069    -0.145276271286     1.007825032230

  Basis Set: AUG-CC-PVTZ
    Blend: AUG-CC-PVTZ
  Basis Set: (AUG-CC-PVTZ AUX)
    Blend: AUG-CC-PVTZ-JKFIT
	 Reference Energy          =    -321.9603225139053961 [Eh]
	 Singles Energy            =      -0.0000000000000000 [Eh]
	 Same-Spin Energy          =      -0.3185289882256561 [Eh]
	 Opposite-Spin Energy      =      -1.0046002031718375 [Eh]
	 Correlation Energy        =      -1.3231291913974936 [Eh]
	 Total Energy              =    -323.2834517053028662 [Eh]

	 ================> DF-SCS-MP2 Energies <==================
	-----------------------------------------------------------
	 SCS Same-Spin Scale       =       0.3333333333333333 [-]
	 SCS Opposite-Spin Scale   =       1.2000000000000000 [-]
	 SCS Same-Spin Energy      =      -0.1061763294085520 [Eh]
	 SCS Opposite-Spin Energy  =      -1.2055202438062049 [Eh]
	 SCS Correlation Energy    =      -1.3116965732147570 [Eh]
	 SCS Total Energy          =    -323.2720190871201567 [Eh]
	-----------------------------------------------------------

  Dipole Moment: [D]
     X:    -0.5558      Y:     2.4169      Z:     0.4159     Total:     2.5146

*** Psi4 exiting successfully. Buy a developer a beer!
