                               Psi4 1.4a3.dev225

  ==> Input File <==

--------------------------------------------------------------------------
#psi4
#
memory 32 gb

molecule  {
0 1
  O       -2.3004660     0.0048580     0.0000370
  N       -0.3010810    -1.1172490    -0.0000470
  C        1.1208650     1.2009110     0.0000070
  C        1.8075990    -0.0462550     0.0000170
  C        1.0636490    -1.1911890     0.0000110
  C       -1.0770007     0.0791329    -0.0000024
  C       -0.2468310     1.2588000    -0.0000340
  H        1.6947520     2.1250290     0.0000060
  H        2.8897650    -0.0997760     0.0000620
  H        1.4903730    -2.1891750     0.0000000
  H       -0.7785610     2.2046570    -0.0000350
  H       -0.8600110    -1.9665800     0.0000060
units angstrom
no_reorient  #important for SAPT in psi4, default
symmetry c1  #important for SAPT in psi4, default
}

set PROPERTIES_ORIGIN ["COM"]
properties('MP2/aug-cc-pvtz', properties = ['dipole'])
--------------------------------------------------------------------------

    Molecular point group: c1
  Charge       = 0
  Multiplicity = 1
  Basis Set: AUG-CC-PVTZ
    Blend: AUG-CC-PVTZ
  Basis Set: (AUG-CC-PVTZ AUX)
    Blend: AUG-CC-PVTZ-JKFIT

    Orbital Energies [Eh]
    ---------------------

    Doubly Occupied:

       1A    -20.514856     2A    -15.626328     3A    -11.357700
       4A    -11.316719     5A    -11.277383     6A    -11.244317
       7A    -11.241565     8A     -1.377218     9A     -1.272264
      10A     -1.108065    11A     -1.031854    12A     -0.889155
      13A     -0.859102    14A     -0.754601    15A     -0.695432
      16A     -0.679463    17A     -0.638319    18A     -0.615944
      19A     -0.603725    20A     -0.562010    21A     -0.539527
      22A     -0.489466    23A     -0.428750    24A     -0.425214
      25A     -0.315855

  @DF-RHF Final Energy:  -321.68083666508142

   => Energetics <=

    Nuclear Repulsion Energy =            274.4499677446198120
    One-Electron Energy =                -980.5319449299096277
    Two-Electron Energy =                 384.4011405202084006
    Total Energy =                       -321.6808366650814150
  Basis Set: (AUG-CC-PVTZ AUX)
    Blend: AUG-CC-PVTZ-RI
    Molecular point group: c1

    Geometry (in Angstrom), charge = 0, multiplicity = 1:

       Center              X                  Y                   Z               Mass
    ------------   -----------------  -----------------  -----------------  -----------------
         O           -2.252890808918     0.003549911747     0.000037461162    15.994914619570
         N           -0.253505808918    -1.118557088253    -0.000046538838    14.003074004430
         C            1.168440191082     1.199602911747     0.000007461162    12.000000000000
         C            1.855174191082    -0.047563088253     0.000017461162    12.000000000000
         C            1.111224191082    -1.192497088253     0.000011461162    12.000000000000
         C           -1.029425508918     0.077824811747    -0.000001938838    12.000000000000
         C           -0.199255808918     1.257491911747    -0.000033538838    12.000000000000
         H            1.742327191082     2.123720911747     0.000006461162     1.007825032230
         H            2.937340191082    -0.101084088253     0.000062461162     1.007825032230
         H            1.537948191082    -2.190483088253     0.000000461162     1.007825032230
         H           -0.730985808918     2.203348911747    -0.000034538838     1.007825032230
         H           -0.812435808918    -1.967888088253     0.000006461162     1.007825032230

  Basis Set: AUG-CC-PVTZ
    Blend: AUG-CC-PVTZ
  Basis Set: (AUG-CC-PVTZ AUX)
    Blend: AUG-CC-PVTZ-JKFIT
	 Reference Energy          =    -321.6808366650814150 [Eh]
	 Singles Energy            =      -0.0000000000000000 [Eh]
	 Same-Spin Energy          =      -0.3356664342341568 [Eh]
	 Opposite-Spin Energy      =      -1.0273742887491397 [Eh]
	 Correlation Energy        =      -1.3630407229832966 [Eh]
	 Total Energy              =    -323.0438773880646863 [Eh]

	 ================> DF-SCS-MP2 Energies <==================
	-----------------------------------------------------------
	 SCS Same-Spin Scale       =       0.3333333333333333 [-]
	 SCS Opposite-Spin Scale   =       1.2000000000000000 [-]
	 SCS Same-Spin Energy      =      -0.1118888114113856 [Eh]
	 SCS Opposite-Spin Energy  =      -1.2328491464989677 [Eh]
	 SCS Correlation Energy    =      -1.3447379579103533 [Eh]
	 SCS Total Energy          =    -323.0255746229917690 [Eh]
	-----------------------------------------------------------

  Dipole Moment: [D]
     X:     3.9760      Y:    -1.2603      Z:     0.0000     Total:     4.1710

*** Psi4 exiting successfully. Buy a developer a beer!
