                               Psi4 1.4a3.dev225

  ==> Input File <==

--------------------------------------------------------------------------
#psi4
#
memory 32 gb

molecule  {
0 1
  O       -2.3004660     0.0048580     0.0000370
  N       -0.3010810    -1.1172490    -0.0000470
  C        1.1208650     1.2009110     0.0000070
  C        1.8075990    -0.0462550     0.0000170
  C        1.0636490    -1.1911890     0.0000110
  C       -1.0389112     0.0204031    -0.0000046
  C       -0.2468310     1.2588000    -0.0000340
  H        1.6947520     2.1250290     0.0000060
  H        2.8897650    -0.0997760     0.0000620
  H        1.4903730    -2.1891750     0.0000000
  H       -0.7785610     2.2046570    -0.0000350
  H       -0.8600110    -1.9665800     0.0000060
units angstrom
no_reorient  #important for SAPT in psi4, default
symmetry c1  #important for SAPT in psi4, default
}

set PROPERTIES_ORIGIN ["COM"]
properties('MP2/aug-cc-pvtz', properties = ['dipole'])
--------------------------------------------------------------------------

    Molecular point group: c1
  Charge       = 0
  Multiplicity = 1
  Basis Set: AUG-CC-PVTZ
    Blend: AUG-CC-PVTZ
  Basis Set: (AUG-CC-PVTZ AUX)
    Blend: AUG-CC-PVTZ-JKFIT

    Orbital Energies [Eh]
    ---------------------

    Doubly Occupied:

       1A    -20.504629     2A    -15.634453     3A    -11.355342
       4A    -11.318025     5A    -11.274738     6A    -11.250639
       7A    -11.247160     8A     -1.364671     9A     -1.277196
      10A     -1.112208    11A     -1.034787    12A     -0.890119
      13A     -0.871580    14A     -0.761156    15A     -0.698487
      16A     -0.678858    17A     -0.643801    18A     -0.612332
      19A     -0.606462    20A     -0.554527    21A     -0.541934
      22A     -0.476333    23A     -0.428807    24A     -0.420772
      25A     -0.317984

  @DF-RHF Final Energy:  -321.67806144554044

   => Energetics <=

    Nuclear Repulsion Energy =            274.7641770801795928
    One-Electron Energy =                -981.1304790788490209
    Two-Electron Energy =                 384.6882405531289919
    Total Energy =                       -321.6780614455404361
  Basis Set: (AUG-CC-PVTZ AUX)
    Blend: AUG-CC-PVTZ-RI
    Molecular point group: c1

    Geometry (in Angstrom), charge = 0, multiplicity = 1:

       Center              X                  Y                   Z               Mass
    ------------   -----------------  -----------------  -----------------  -----------------
         O           -2.257700235276     0.010965515735     0.000037738948    15.994914619570
         N           -0.258315235276    -1.111141484265    -0.000046261052    14.003074004430
         C            1.163630764724     1.207018515735     0.000007738948    12.000000000000
         C            1.850364764724    -0.040147484265     0.000017738948    12.000000000000
         C            1.106414764724    -1.185081484265     0.000011738948    12.000000000000
         C           -0.996145435276     0.026510615735    -0.000003861052    12.000000000000
         C           -0.204065235276     1.264907515735    -0.000033261052    12.000000000000
         H            1.737517764724     2.131136515735     0.000006738948     1.007825032230
         H            2.932530764724    -0.093668484265     0.000062738948     1.007825032230
         H            1.533138764724    -2.183067484265     0.000000738948     1.007825032230
         H           -0.735795235276     2.210764515735    -0.000034261052     1.007825032230
         H           -0.817245235276    -1.960472484265     0.000006738948     1.007825032230

  Basis Set: AUG-CC-PVTZ
    Blend: AUG-CC-PVTZ
  Basis Set: (AUG-CC-PVTZ AUX)
    Blend: AUG-CC-PVTZ-JKFIT
	 Reference Energy          =    -321.6780614455404361 [Eh]
	 Singles Energy            =      -0.0000000000000000 [Eh]
	 Same-Spin Energy          =      -0.3356754469437530 [Eh]
	 Opposite-Spin Energy      =      -1.0278341622389875 [Eh]
	 Correlation Energy        =      -1.3635096091827406 [Eh]
	 Total Energy              =    -323.0415710547231924 [Eh]

	 ================> DF-SCS-MP2 Energies <==================
	-----------------------------------------------------------
	 SCS Same-Spin Scale       =       0.3333333333333333 [-]
	 SCS Opposite-Spin Scale   =       1.2000000000000000 [-]
	 SCS Same-Spin Energy      =      -0.1118918156479177 [Eh]
	 SCS Opposite-Spin Energy  =      -1.2334009946867850 [Eh]
	 SCS Correlation Energy    =      -1.3452928103347026 [Eh]
	 SCS Total Energy          =    -323.0233542558751196 [Eh]
	-----------------------------------------------------------

  Dipole Moment: [D]
     X:     4.3730      Y:    -1.3969      Z:    -0.0000     Total:     4.5907

*** Psi4 exiting successfully. Buy a developer a beer!
