                               Psi4 1.3.2 release

  ==> Input File <==

--------------------------------------------------------------------------
#psi4
#
memory 32 gb

molecule  {
0 1
  O       -2.3004000     0.0048630     0.0003410
  N       -0.3010450    -1.1173380    -0.0002690
  C        1.1207170     1.2010130     0.0000540
  C        1.8075300    -0.0461910     0.0000640
  C        1.0639000    -1.1911280     0.0001230
  C       -1.1660782     0.0575603    -0.0002840
  C       -0.2468550     1.2588270    -0.0001630
  H        1.6948200     2.1249460     0.0001000
  H        2.8897160    -0.0994500     0.0003790
  H        1.4903610    -2.1891700     0.0001730
  H       -0.7789320     2.2044920     0.0000230
  H       -0.8600860    -1.9666840     0.0000480
units angstrom
no_reorient  #important for SAPT in psi4, default
symmetry c1  #important for SAPT in psi4, default
}

set PROPERTIES_ORIGIN ["COM"]
properties('MP2/aug-cc-pvtz', properties = ['dipole'])
--------------------------------------------------------------------------

    Molecular point group: c1
  Charge       = 0
  Multiplicity = 1
  Basis Set: AUG-CC-PVTZ
    Blend: AUG-CC-PVTZ
  Basis Set: (AUG-CC-PVTZ AUX)
    Blend: AUG-CC-PVTZ-JKFIT

    Orbital Energies [Eh]
    ---------------------

    Doubly Occupied:

       1A    -20.537389     2A    -15.613566     3A    -11.359862
       4A    -11.309002     5A    -11.268014     6A    -11.239366
       7A    -11.235225     8A     -1.446002     9A     -1.266715
      10A     -1.096175    11A     -1.018269    12A     -0.875611
      13A     -0.847967    14A     -0.744238    15A     -0.693565
      16A     -0.685752    17A     -0.641824    18A     -0.622696
      19A     -0.615307    20A     -0.564171    21A     -0.541301
      22A     -0.513790    23A     -0.430177    24A     -0.417239
      25A     -0.309421

  @DF-RHF Final Energy:  -321.66866182521909

   => Energetics <=

    Nuclear Repulsion Energy =            274.3961666903730929
    One-Electron Energy =                -980.3443633259284979
    Two-Electron Energy =                 384.2795348103363153
    Total Energy =                       -321.6686618252190897
  Basis Set: (AUG-CC-PVTZ AUX)
    Blend: AUG-CC-PVTZ-RI
    Molecular point group: c1

    Geometry (in Angstrom), charge = 0, multiplicity = 1:

       Center              X                  Y                   Z               Mass
    ------------   -----------------  -----------------  -----------------  -----------------
         O           -2.241590327802     0.006259230651     0.000341588228    15.994914619570
         N           -0.242235327802    -1.115941769349    -0.000268411772    14.003074004430
         C            1.179526672198     1.202409230651     0.000054588228    12.000000000000
         C            1.866339672198    -0.044794769349     0.000064588228    12.000000000000
         C            1.122709672198    -1.189731769349     0.000123588228    12.000000000000
         C           -1.107268527802     0.058956530651    -0.000283411772    12.000000000000
         C           -0.188045327802     1.260223230651    -0.000162411772    12.000000000000
         H            1.753629672198     2.126342230651     0.000100588228     1.007825032230
         H            2.948525672198    -0.098053769349     0.000379588228     1.007825032230
         H            1.549170672198    -2.187773769349     0.000173588228     1.007825032230
         H           -0.720122327802     2.205888230651     0.000023588228     1.007825032230
         H           -0.801276327802    -1.965287769349     0.000048588228     1.007825032230

  Basis Set: AUG-CC-PVTZ
    Blend: AUG-CC-PVTZ
  Basis Set: (AUG-CC-PVTZ AUX)
    Blend: AUG-CC-PVTZ-JKFIT
	 Reference Energy          =    -321.6686618252190897 [Eh]
	 Singles Energy            =      -0.0000000000000000 [Eh]
	 Same-Spin Energy          =      -0.3335177903688880 [Eh]
	 Opposite-Spin Energy      =      -1.0242582314350699 [Eh]
	 Correlation Energy        =      -1.3577760218039578 [Eh]
	 Total Energy              =    -323.0264378470230326 [Eh]

	 ================> DF-SCS-MP2 Energies <==================
	-----------------------------------------------------------
	 SCS Same-Spin Scale       =       0.3333333333333333 [-]
	 SCS Opposite-Spin Scale   =       1.2000000000000000 [-]
	 SCS Same-Spin Energy      =      -0.1111725967896293 [Eh]
	 SCS Opposite-Spin Energy  =      -1.2291098777220839 [Eh]
	 SCS Correlation Energy    =      -1.3402824745117132 [Eh]
	 SCS Total Energy          =    -323.0089442997307856 [Eh]
	-----------------------------------------------------------

  Dipole Moment: [D]
     X:     2.9937      Y:    -1.2501      Z:    -0.0000     Total:     3.2443

*** Psi4 exiting successfully. Buy a developer a beer!
