                               Psi4 1.3.2 release

  ==> Input File <==

--------------------------------------------------------------------------
#psi4
#
memory 32 gb

molecule  {
0 1
  O       -2.3004000     0.0048630     0.0003410
  N       -0.3010450    -1.1173380    -0.0002690
  C        1.1207170     1.2010130     0.0000540
  C        1.8075300    -0.0461910     0.0000640
  C        1.0639000    -1.1911280     0.0001230
  C       -1.0661860     0.0622010    -0.0003390
  C       -0.1338631     1.4238507    -0.0001387
  H        1.6948200     2.1249460     0.0001000
  H        2.8897160    -0.0994500     0.0003790
  H        1.4903610    -2.1891700     0.0001730
  H       -0.7789320     2.2044920     0.0000230
  H       -0.8600860    -1.9666840     0.0000480
units angstrom
no_reorient  #important for SAPT in psi4, default
symmetry c1  #important for SAPT in psi4, default
}

set PROPERTIES_ORIGIN ["COM"]
properties('MP2/aug-cc-pvtz', properties = ['dipole'])
--------------------------------------------------------------------------

    Molecular point group: c1
  Charge       = 0
  Multiplicity = 1
  Basis Set: AUG-CC-PVTZ
    Blend: AUG-CC-PVTZ
  Basis Set: (AUG-CC-PVTZ AUX)
    Blend: AUG-CC-PVTZ-JKFIT

    Orbital Energies [Eh]
    ---------------------

    Doubly Occupied:

       1A    -20.526637     2A    -15.623475     3A    -11.369108
       4A    -11.312113     5A    -11.255345     6A    -11.246424
       7A    -11.243210     8A     -1.375618     9A     -1.272273
      10A     -1.117621    11A     -1.027157    12A     -0.878526
      13A     -0.854245    14A     -0.759122    15A     -0.702585
      16A     -0.670609    17A     -0.650188    18A     -0.609703
      19A     -0.600199    20A     -0.576555    21A     -0.531548
      22A     -0.487746    23A     -0.441332    24A     -0.410934
      25A     -0.319208

  @DF-RHF Final Energy:  -321.64723814928772

   => Energetics <=

    Nuclear Repulsion Energy =            272.6386092724720243
    One-Electron Energy =                -976.8487348485460871
    Two-Electron Energy =                 382.5628874267862898
    Total Energy =                       -321.6472381492877162
  Basis Set: (AUG-CC-PVTZ AUX)
    Blend: AUG-CC-PVTZ-RI
    Molecular point group: c1

    Geometry (in Angstrom), charge = 0, multiplicity = 1:

       Center              X                  Y                   Z               Mass
    ------------   -----------------  -----------------  -----------------  -----------------
         O           -2.268470449664    -0.015163692657     0.000345464609    15.994914619570
         N           -0.269115449664    -1.137364692657    -0.000264535391    14.003074004430
         C            1.152646550336     1.180986307343     0.000058464609    12.000000000000
         C            1.839459550336    -0.066217692657     0.000068464609    12.000000000000
         C            1.095829550336    -1.211154692657     0.000127464609    12.000000000000
         C           -1.034256449664     0.042174307343    -0.000334535391    12.000000000000
         C           -0.101933549664     1.403824007343    -0.000134235391    12.000000000000
         H            1.726749550336     2.104919307343     0.000104464609     1.007825032230
         H            2.921645550336    -0.119476692657     0.000383464609     1.007825032230
         H            1.522290550336    -2.209196692657     0.000177464609     1.007825032230
         H           -0.747002449664     2.184465307343     0.000027464609     1.007825032230
         H           -0.828156449664    -1.986710692657     0.000052464609     1.007825032230

  Basis Set: AUG-CC-PVTZ
    Blend: AUG-CC-PVTZ
  Basis Set: (AUG-CC-PVTZ AUX)
    Blend: AUG-CC-PVTZ-JKFIT
	 Reference Energy          =    -321.6472381492877162 [Eh]
	 Singles Energy            =      -0.0000000000000000 [Eh]
	 Same-Spin Energy          =      -0.3332788038887105 [Eh]
	 Opposite-Spin Energy      =      -1.0265585074666870 [Eh]
	 Correlation Energy        =      -1.3598373113553974 [Eh]
	 Total Energy              =    -323.0070754606431365 [Eh]

	 ================> DF-SCS-MP2 Energies <==================
	-----------------------------------------------------------
	 SCS Same-Spin Scale       =       0.3333333333333333 [-]
	 SCS Opposite-Spin Scale   =       1.2000000000000000 [-]
	 SCS Same-Spin Energy      =      -0.1110929346295702 [Eh]
	 SCS Opposite-Spin Energy  =      -1.2318702089600244 [Eh]
	 SCS Correlation Energy    =      -1.3429631435895946 [Eh]
	 SCS Total Energy          =    -322.9902012928773161 [Eh]
	-----------------------------------------------------------

  Dipole Moment: [D]
     X:     3.5365      Y:    -1.2904      Z:    -0.0001     Total:     3.7646

*** Psi4 exiting successfully. Buy a developer a beer!
