                               Psi4 1.3.2 release

  ==> Input File <==

--------------------------------------------------------------------------
#psi4
#
memory 32 gb

molecule  {
0 1
  O       -2.3004000     0.0048630     0.0003410
  N       -0.3010450    -1.1173380    -0.0002690
  C        1.1207170     1.2010130     0.0000540
  C        1.8075300    -0.0461910     0.0000640
  C        1.0639000    -1.1911280     0.0001230
  C       -1.0661860     0.0622010    -0.0003390
  C       -0.2468550     1.2588270    -0.0001630
  H        1.6948200     2.1249460     0.0001000
  H        2.8897160    -0.0994500     0.0003790
  H        1.4903610    -2.1891700     0.0001730
  H       -0.7789320     2.2044920     0.0000230
  H       -0.8600860    -1.9666840     0.0000480
units angstrom
no_reorient  #important for SAPT in psi4, default
symmetry c1  #important for SAPT in psi4, default
}

set PROPERTIES_ORIGIN ["COM"]
properties('MP2/aug-cc-pvtz', properties = ['dipole'])
--------------------------------------------------------------------------

    Molecular point group: c1
  Charge       = 0
  Multiplicity = 1
  Basis Set: AUG-CC-PVTZ
    Blend: AUG-CC-PVTZ
  Basis Set: (AUG-CC-PVTZ AUX)
    Blend: AUG-CC-PVTZ-JKFIT

    Orbital Energies [Eh]
    ---------------------

    Doubly Occupied:

       1A    -20.512001     2A    -15.628729     3A    -11.357040
       4A    -11.317095     5A    -11.276575     6A    -11.246048
       7A    -11.243082     8A     -1.372385     9A     -1.274609
      10A     -1.109137    11A     -1.032620    12A     -0.889020
      13A     -0.862804    14A     -0.756381    15A     -0.696173
      16A     -0.679297    17A     -0.639899    18A     -0.613098
      19A     -0.605733    20A     -0.560247    21A     -0.540276
      22A     -0.485816    23A     -0.426872    24A     -0.426299
      25A     -0.316488

  @DF-RHF Final Energy:  -321.68118169871946

   => Energetics <=

    Nuclear Repulsion Energy =            274.5337814564315977
    One-Electron Energy =                -980.6944702392268027
    Two-Electron Energy =                 384.4795070840757489
    Total Energy =                       -321.6811816987194561
  Basis Set: (AUG-CC-PVTZ AUX)
    Blend: AUG-CC-PVTZ-RI
    Molecular point group: c1

    Geometry (in Angstrom), charge = 0, multiplicity = 1:

       Center              X                  Y                   Z               Mass
    ------------   -----------------  -----------------  -----------------  -----------------
         O           -2.254203362355     0.005673265886     0.000348532884    15.994914619570
         N           -0.254848362355    -1.116527734114    -0.000261467116    14.003074004430
         C            1.166913637645     1.201823265886     0.000061532884    12.000000000000
         C            1.853726637645    -0.045380734114     0.000071532884    12.000000000000
         C            1.110096637645    -1.190317734114     0.000130532884    12.000000000000
         C           -1.019989362355     0.063011265886    -0.000331467116    12.000000000000
         C           -0.200658362355     1.259637265886    -0.000155467116    12.000000000000
         H            1.741016637645     2.125756265886     0.000107532884     1.007825032230
         H            2.935912637645    -0.098639734114     0.000386532884     1.007825032230
         H            1.536557637645    -2.188359734114     0.000180532884     1.007825032230
         H           -0.732735362355     2.205302265886     0.000030532884     1.007825032230
         H           -0.813889362355    -1.965873734114     0.000055532884     1.007825032230

  Basis Set: AUG-CC-PVTZ
    Blend: AUG-CC-PVTZ
  Basis Set: (AUG-CC-PVTZ AUX)
    Blend: AUG-CC-PVTZ-JKFIT
	 Reference Energy          =    -321.6811816987194561 [Eh]
	 Singles Energy            =      -0.0000000000000000 [Eh]
	 Same-Spin Energy          =      -0.3356328789856942 [Eh]
	 Opposite-Spin Energy      =      -1.0274500124547981 [Eh]
	 Correlation Energy        =      -1.3630828914404922 [Eh]
	 Total Energy              =    -323.0442645901599690 [Eh]

	 ================> DF-SCS-MP2 Energies <==================
	-----------------------------------------------------------
	 SCS Same-Spin Scale       =       0.3333333333333333 [-]
	 SCS Opposite-Spin Scale   =       1.2000000000000000 [-]
	 SCS Same-Spin Energy      =      -0.1118776263285647 [Eh]
	 SCS Opposite-Spin Energy  =      -1.2329400149457577 [Eh]
	 SCS Correlation Energy    =      -1.3448176412743225 [Eh]
	 SCS Total Energy          =    -323.0259993399938026 [Eh]
	-----------------------------------------------------------

  Dipole Moment: [D]
     X:     4.0878      Y:    -1.2997      Z:    -0.0002     Total:     4.2894

*** Psi4 exiting successfully. Buy a developer a beer!
