                               Psi4 1.3.2 release

  ==> Input File <==

--------------------------------------------------------------------------
#psi4
#
memory 32 gb

molecule  {
0 1
  O       -2.3004000     0.0048630     0.0003410
  N       -0.3027887    -1.1650188    -0.0002731
  C        1.1207170     1.2010130     0.0000540
  C        1.8075300    -0.0461910     0.0000640
  C        1.0639000    -1.1911280     0.0001230
  C       -1.0661860     0.0622010    -0.0003390
  C       -0.2468550     1.2588270    -0.0001630
  H        1.6948200     2.1249460     0.0001000
  H        2.8897160    -0.0994500     0.0003790
  H        1.4903610    -2.1891700     0.0001730
  H       -0.7789320     2.2044920     0.0000230
  H       -0.8600860    -1.9666840     0.0000480
units angstrom
no_reorient  #important for SAPT in psi4, default
symmetry c1  #important for SAPT in psi4, default
}

set PROPERTIES_ORIGIN ["COM"]
properties('MP2/aug-cc-pvtz', properties = ['dipole'])
--------------------------------------------------------------------------

    Molecular point group: c1
  Charge       = 0
  Multiplicity = 1
  Basis Set: AUG-CC-PVTZ
    Blend: AUG-CC-PVTZ
  Basis Set: (AUG-CC-PVTZ AUX)
    Blend: AUG-CC-PVTZ-JKFIT

    Orbital Energies [Eh]
    ---------------------

    Doubly Occupied:

       1A    -20.516391     2A    -15.625081     3A    -11.361548
       4A    -11.317648     5A    -11.278105     6A    -11.244873
       7A    -11.243303     8A     -1.371728     9A     -1.272503
      10A     -1.111221    11A     -1.028854    12A     -0.892918
      13A     -0.856589    14A     -0.762328    15A     -0.692363
      16A     -0.683069    17A     -0.641660    18A     -0.612789
      19A     -0.600425    20A     -0.563782    21A     -0.540297
      22A     -0.488052    23A     -0.427812    24A     -0.427473
      25A     -0.315356

  @DF-RHF Final Energy:  -321.67850508619784

   => Energetics <=

    Nuclear Repulsion Energy =            273.7192524503443565
    One-Electron Energy =                -979.0431768072506884
    Two-Electron Energy =                 383.6454192707084871
    Total Energy =                       -321.6785050861978448
  Basis Set: (AUG-CC-PVTZ AUX)
    Blend: AUG-CC-PVTZ-RI
    Molecular point group: c1

    Geometry (in Angstrom), charge = 0, multiplicity = 1:

       Center              X                  Y                   Z               Mass
    ------------   -----------------  -----------------  -----------------  -----------------
         O           -2.253946439989     0.012698708310     0.000349136991    15.994914619570
         N           -0.256335139989    -1.157183091690    -0.000264963009    14.003074004430
         C            1.167170560011     1.208848708310     0.000062136991    12.000000000000
         C            1.853983560011    -0.038355291690     0.000072136991    12.000000000000
         C            1.110353560011    -1.183292291690     0.000131136991    12.000000000000
         C           -1.019732439989     0.070036708310    -0.000330863009    12.000000000000
         C           -0.200401439989     1.266662708310    -0.000154863009    12.000000000000
         H            1.741273560011     2.132781708310     0.000108136991     1.007825032230
         H            2.936169560011    -0.091614291690     0.000387136991     1.007825032230
         H            1.536814560011    -2.181334291690     0.000181136991     1.007825032230
         H           -0.732478439989     2.212327708310     0.000031136991     1.007825032230
         H           -0.813632439989    -1.958848291690     0.000056136991     1.007825032230

  Basis Set: AUG-CC-PVTZ
    Blend: AUG-CC-PVTZ
  Basis Set: (AUG-CC-PVTZ AUX)
    Blend: AUG-CC-PVTZ-JKFIT
	 Reference Energy          =    -321.6785050861978448 [Eh]
	 Singles Energy            =      -0.0000000000000000 [Eh]
	 Same-Spin Energy          =      -0.3352792590986704 [Eh]
	 Opposite-Spin Energy      =      -1.0272966727908792 [Eh]
	 Correlation Energy        =      -1.3625759318895496 [Eh]
	 Total Energy              =    -323.0410810180873682 [Eh]

	 ================> DF-SCS-MP2 Energies <==================
	-----------------------------------------------------------
	 SCS Same-Spin Scale       =       0.3333333333333333 [-]
	 SCS Opposite-Spin Scale   =       1.2000000000000000 [-]
	 SCS Same-Spin Energy      =      -0.1117597530328901 [Eh]
	 SCS Opposite-Spin Energy  =      -1.2327560073490551 [Eh]
	 SCS Correlation Energy    =      -1.3445157603819453 [Eh]
	 SCS Total Energy          =    -323.0230208465798114 [Eh]
	-----------------------------------------------------------

  Dipole Moment: [D]
     X:     3.9538      Y:    -1.1989      Z:    -0.0001     Total:     4.1316

*** Psi4 exiting successfully. Buy a developer a beer!
