                               Psi4 1.3.2 release

  ==> Input File <==

--------------------------------------------------------------------------
#psi4
#
memory 32 gb

molecule  {
0 1
  O       -2.3004000     0.0048630     0.0003410
  N       -0.3010450    -1.1173380    -0.0002690
  C        1.1207170     1.2010130     0.0000540
  C        1.8075300    -0.0461910     0.0000640
  C        1.0639000    -1.1911280     0.0001230
  C       -1.1750277     0.2299910    -0.0003490
  C       -0.2468550     1.2588270    -0.0001630
  H        1.6948200     2.1249460     0.0001000
  H        2.8897160    -0.0994500     0.0003790
  H        1.4903610    -2.1891700     0.0001730
  H       -0.7789320     2.2044920     0.0000230
  H       -0.8600860    -1.9666840     0.0000480
units angstrom
no_reorient  #important for SAPT in psi4, default
symmetry c1  #important for SAPT in psi4, default
}

set PROPERTIES_ORIGIN ["COM"]
properties('MP2/aug-cc-pvtz', properties = ['dipole'])
--------------------------------------------------------------------------

    Molecular point group: c1
  Charge       = 0
  Multiplicity = 1
  Basis Set: AUG-CC-PVTZ
    Blend: AUG-CC-PVTZ
  Basis Set: (AUG-CC-PVTZ AUX)
    Blend: AUG-CC-PVTZ-JKFIT

    Orbital Energies [Eh]
    ---------------------

    Doubly Occupied:

       1A    -20.542124     2A    -15.598228     3A    -11.365475
       4A    -11.310581     5A    -11.284428     6A    -11.232061
       7A    -11.230471     8A     -1.438234     9A     -1.241159
      10A     -1.101312    11A     -1.027308    12A     -0.894629
      13A     -0.828109    14A     -0.739046    15A     -0.692295
      16A     -0.688878    17A     -0.637435    18A     -0.623479
      19A     -0.605217    20A     -0.567491    21A     -0.538083
      22A     -0.510361    23A     -0.428707    24A     -0.414638
      25A     -0.310248

  @DF-RHF Final Energy:  -321.64828254961225

   => Energetics <=

    Nuclear Repulsion Energy =            273.7893700038953284
    One-Electron Energy =                -979.1753108579275704
    Two-Electron Energy =                 383.7376583044199947
    Total Energy =                       -321.6482825496122473
  Basis Set: (AUG-CC-PVTZ AUX)
    Blend: AUG-CC-PVTZ-RI
    Molecular point group: c1

    Geometry (in Angstrom), charge = 0, multiplicity = 1:

       Center              X                  Y                   Z               Mass
    ------------   -----------------  -----------------  -----------------  -----------------
         O           -2.240460306111    -0.015512983567     0.000349795548    15.994914619570
         N           -0.241105306111    -1.137713983567    -0.000260204452    14.003074004430
         C            1.180656693889     1.180637016433     0.000062795548    12.000000000000
         C            1.867469693889    -0.066566983567     0.000072795548    12.000000000000
         C            1.123839693889    -1.211503983567     0.000131795548    12.000000000000
         C           -1.115088006111     0.209615016433    -0.000340204452    12.000000000000
         C           -0.186915306111     1.238451016433    -0.000154204452    12.000000000000
         H            1.754759693889     2.104570016433     0.000108795548     1.007825032230
         H            2.949655693889    -0.119825983567     0.000387795548     1.007825032230
         H            1.550300693889    -2.209545983567     0.000181795548     1.007825032230
         H           -0.718992306111     2.184116016433     0.000031795548     1.007825032230
         H           -0.800146306111    -1.987059983567     0.000056795548     1.007825032230

  Basis Set: AUG-CC-PVTZ
    Blend: AUG-CC-PVTZ
  Basis Set: (AUG-CC-PVTZ AUX)
    Blend: AUG-CC-PVTZ-JKFIT
	 Reference Energy          =    -321.6482825496122473 [Eh]
	 Singles Energy            =      -0.0000000000000000 [Eh]
	 Same-Spin Energy          =      -0.3369157792353422 [Eh]
	 Opposite-Spin Energy      =      -1.0283024269750016 [Eh]
	 Correlation Energy        =      -1.3652182062103440 [Eh]
	 Total Energy              =    -323.0135007558225766 [Eh]

	 ================> DF-SCS-MP2 Energies <==================
	-----------------------------------------------------------
	 SCS Same-Spin Scale       =       0.3333333333333333 [-]
	 SCS Opposite-Spin Scale   =       1.2000000000000000 [-]
	 SCS Same-Spin Energy      =      -0.1123052597451141 [Eh]
	 SCS Opposite-Spin Energy  =      -1.2339629123700020 [Eh]
	 SCS Correlation Energy    =      -1.3462681721151162 [Eh]
	 SCS Total Energy          =    -322.9945507217273644 [Eh]
	-----------------------------------------------------------

  Dipole Moment: [D]
     X:     2.9166      Y:    -0.8630      Z:     0.0000     Total:     3.0416

*** Psi4 exiting successfully. Buy a developer a beer!
