                               Psi4 1.3.2 release

  ==> Input File <==

--------------------------------------------------------------------------
#psi4
#
memory 32 gb

molecule  {
0 1
  O       -2.3004000     0.0048630     0.0003410
  N       -0.3010450    -1.1173380    -0.0002690
  C        1.1207170     1.2010130     0.0000540
  C        1.8075300    -0.0461910     0.0000640
  C        1.0639000    -1.1911280     0.0001230
  C       -0.9662938     0.0668417    -0.0003940
  C       -0.2468550     1.2588270    -0.0001630
  H        1.6948200     2.1249460     0.0001000
  H        2.8897160    -0.0994500     0.0003790
  H        1.4903610    -2.1891700     0.0001730
  H       -0.7789320     2.2044920     0.0000230
  H       -0.8600860    -1.9666840     0.0000480
units angstrom
no_reorient  #important for SAPT in psi4, default
symmetry c1  #important for SAPT in psi4, default
}

set PROPERTIES_ORIGIN ["COM"]
properties('MP2/aug-cc-pvtz', properties = ['dipole'])
--------------------------------------------------------------------------

    Molecular point group: c1
  Charge       = 0
  Multiplicity = 1
  Basis Set: AUG-CC-PVTZ
    Blend: AUG-CC-PVTZ
  Basis Set: (AUG-CC-PVTZ AUX)
    Blend: AUG-CC-PVTZ-JKFIT

    Orbital Energies [Eh]
    ---------------------

    Doubly Occupied:

       1A    -20.487416     2A    -15.642267     3A    -11.350727
       4A    -11.324562     5A    -11.285115     6A    -11.256374
       7A    -11.245844     8A     -1.346951     9A     -1.247902
      10A     -1.122960    11A     -1.044285    12A     -0.902380
      13A     -0.876310    14A     -0.768694    15A     -0.706191
      16A     -0.683565    17A     -0.653085    18A     -0.611924
      19A     -0.598409    20A     -0.549004    21A     -0.534373
      22A     -0.456716    23A     -0.434432    24A     -0.406747
      25A     -0.320506

  @DF-RHF Final Energy:  -321.66154120015511

   => Energetics <=

    Nuclear Repulsion Energy =            274.9729787913302630
    One-Electron Energy =                -981.5555613994299620
    Two-Electron Energy =                 384.9210414079446423
    Total Energy =                       -321.6615412001551135
  Basis Set: (AUG-CC-PVTZ AUX)
    Blend: AUG-CC-PVTZ-RI
    Molecular point group: c1

    Geometry (in Angstrom), charge = 0, multiplicity = 1:

       Center              X                  Y                   Z               Mass
    ------------   -----------------  -----------------  -----------------  -----------------
         O           -2.266816396908     0.005087301122     0.000355477539    15.994914619570
         N           -0.267461396908    -1.117113698878    -0.000254522461    14.003074004430
         C            1.154300603092     1.201237301122     0.000068477539    12.000000000000
         C            1.841113603092    -0.045966698878     0.000078477539    12.000000000000
         C            1.097483603092    -1.190903698878     0.000137477539    12.000000000000
         C           -0.932710196908     0.067066001122    -0.000379522461    12.000000000000
         C           -0.213271396908     1.259051301122    -0.000148522461    12.000000000000
         H            1.728403603092     2.125170301122     0.000114477539     1.007825032230
         H            2.923299603092    -0.099225698878     0.000393477539     1.007825032230
         H            1.523944603092    -2.188945698878     0.000187477539     1.007825032230
         H           -0.745348396908     2.204716301122     0.000037477539     1.007825032230
         H           -0.826502396908    -1.966459698878     0.000062477539     1.007825032230

  Basis Set: AUG-CC-PVTZ
    Blend: AUG-CC-PVTZ
  Basis Set: (AUG-CC-PVTZ AUX)
    Blend: AUG-CC-PVTZ-JKFIT
	 Reference Energy          =    -321.6615412001551135 [Eh]
	 Singles Energy            =      -0.0000000000000000 [Eh]
	 Same-Spin Energy          =      -0.3378026493224173 [Eh]
	 Opposite-Spin Energy      =      -1.0306626069723830 [Eh]
	 Correlation Energy        =      -1.3684652562948003 [Eh]
	 Total Energy              =    -323.0300064564499394 [Eh]

	 ================> DF-SCS-MP2 Energies <==================
	-----------------------------------------------------------
	 SCS Same-Spin Scale       =       0.3333333333333333 [-]
	 SCS Opposite-Spin Scale   =       1.2000000000000000 [-]
	 SCS Same-Spin Energy      =      -0.1126008831074724 [Eh]
	 SCS Opposite-Spin Energy  =      -1.2367951283668595 [Eh]
	 SCS Correlation Energy    =      -1.3493960114743320 [Eh]
	 SCS Total Energy          =    -323.0109372116294253 [Eh]
	-----------------------------------------------------------

  Dipole Moment: [D]
     X:     5.0390      Y:    -1.3360      Z:    -0.0003     Total:     5.2132

*** Psi4 exiting successfully. Buy a developer a beer!
