                               Psi4 1.4a3.dev225

  ==> Input File <==

--------------------------------------------------------------------------
#psi4
#
memory 32 gb

molecule  {
0 1
  O       -2.3004660     0.0048580     0.0000370
  N       -0.3010810    -1.1172490    -0.0000470
  C        1.1208650     1.2009110     0.0000070
  C        1.8075990    -0.0462550     0.0000170
  C        1.0636490    -1.1911890     0.0000110
  C       -1.0661180     0.0623530    -0.0000030
  C       -0.2355311     1.2753019    -0.0000344
  H        1.6947520     2.1250290     0.0000060
  H        2.8897650    -0.0997760     0.0000620
  H        1.4903730    -2.1891750     0.0000000
  H       -0.7785610     2.2046570    -0.0000350
  H       -0.8600110    -1.9665800     0.0000060
units angstrom
no_reorient  #important for SAPT in psi4, default
symmetry c1  #important for SAPT in psi4, default
}

set PROPERTIES_ORIGIN ["COM"]
properties('MP2/aug-cc-pvtz', properties = ['dipole'])
--------------------------------------------------------------------------

    Molecular point group: c1
  Charge       = 0
  Multiplicity = 1
  Basis Set: AUG-CC-PVTZ
    Blend: AUG-CC-PVTZ
  Basis Set: (AUG-CC-PVTZ AUX)
    Blend: AUG-CC-PVTZ-JKFIT

    Orbital Energies [Eh]
    ---------------------

    Doubly Occupied:

       1A    -20.514054     2A    -15.628217     3A    -11.359257
       4A    -11.316311     5A    -11.273975     6A    -11.245591
       7A    -11.243409     8A     -1.372909     9A     -1.274528
      10A     -1.109722    11A     -1.031449    12A     -0.886486
      13A     -0.863232    14A     -0.756451    15A     -0.695908
      16A     -0.678243    17A     -0.641487    18A     -0.613156
      19A     -0.605174    20A     -0.560473    21A     -0.541602
      22A     -0.485994    23A     -0.427686    24A     -0.426643
      25A     -0.316615

  @DF-RHF Final Energy:  -321.68130889674399

   => Energetics <=

    Nuclear Repulsion Energy =            274.3260817690137401
    One-Electron Energy =                -980.2776385929915932
    Two-Electron Energy =                 384.2702479272338678
    Total Energy =                       -321.6813088967439853
  Basis Set: (AUG-CC-PVTZ AUX)
    Blend: AUG-CC-PVTZ-RI
    Molecular point group: c1

    Geometry (in Angstrom), charge = 0, multiplicity = 1:

       Center              X                  Y                   Z               Mass
    ------------   -----------------  -----------------  -----------------  -----------------
         O           -2.255691727311     0.003585013823     0.000037587428    15.994914619570
         N           -0.256306727311    -1.118521986177    -0.000046412572    14.003074004430
         C            1.165639272689     1.199638013823     0.000007587428    12.000000000000
         C            1.852373272689    -0.047527986177     0.000017587428    12.000000000000
         C            1.108423272689    -1.192461986177     0.000011587428    12.000000000000
         C           -1.021343727311     0.061080013823    -0.000002412572    12.000000000000
         C           -0.190756827311     1.274028913823    -0.000033812572    12.000000000000
         H            1.739526272689     2.123756013823     0.000006587428     1.007825032230
         H            2.934539272689    -0.101048986177     0.000062587428     1.007825032230
         H            1.535147272689    -2.190447986177     0.000000587428     1.007825032230
         H           -0.733786727311     2.203384013823    -0.000034412572     1.007825032230
         H           -0.815236727311    -1.967852986177     0.000006587428     1.007825032230

  Basis Set: AUG-CC-PVTZ
    Blend: AUG-CC-PVTZ
  Basis Set: (AUG-CC-PVTZ AUX)
    Blend: AUG-CC-PVTZ-JKFIT
	 Reference Energy          =    -321.6813088967439853 [Eh]
	 Singles Energy            =      -0.0000000000000000 [Eh]
	 Same-Spin Energy          =      -0.3352670672375565 [Eh]
	 Opposite-Spin Energy      =      -1.0271585459965800 [Eh]
	 Correlation Energy        =      -1.3624256132341364 [Eh]
	 Total Energy              =    -323.0437345099780941 [Eh]

	 ================> DF-SCS-MP2 Energies <==================
	-----------------------------------------------------------
	 SCS Same-Spin Scale       =       0.3333333333333333 [-]
	 SCS Opposite-Spin Scale   =       1.2000000000000000 [-]
	 SCS Same-Spin Energy      =      -0.1117556890791855 [Eh]
	 SCS Opposite-Spin Energy  =      -1.2325902551958958 [Eh]
	 SCS Correlation Energy    =      -1.3443459442750814 [Eh]
	 SCS Total Energy          =    -323.0256548410190476 [Eh]
	-----------------------------------------------------------

  Dipole Moment: [D]
     X:     4.0254      Y:    -1.3004      Z:     0.0000     Total:     4.2302

*** Psi4 exiting successfully. Buy a developer a beer!
