                               Psi4 1.3.2 release

  ==> Input File <==

--------------------------------------------------------------------------
#psi4
#
memory 32 gb

molecule  {
0 1
  O       -2.2933938    -0.0810918     0.0003720
  N       -0.3010450    -1.1173380    -0.0002690
  C        1.1207170     1.2010130     0.0000540
  C        1.8075300    -0.0461910     0.0000640
  C        1.0639000    -1.1911280     0.0001230
  C       -1.0661860     0.0622010    -0.0003390
  C       -0.2468550     1.2588270    -0.0001630
  H        1.6948200     2.1249460     0.0001000
  H        2.8897160    -0.0994500     0.0003790
  H        1.4903610    -2.1891700     0.0001730
  H       -0.7789320     2.2044920     0.0000230
  H       -0.8600860    -1.9666840     0.0000480
units angstrom
no_reorient  #important for SAPT in psi4, default
symmetry c1  #important for SAPT in psi4, default
}

set PROPERTIES_ORIGIN ["COM"]
properties('MP2/aug-cc-pvtz', properties = ['dipole'])
--------------------------------------------------------------------------

    Molecular point group: c1
  Charge       = 0
  Multiplicity = 1
  Basis Set: AUG-CC-PVTZ
    Blend: AUG-CC-PVTZ
  Basis Set: (AUG-CC-PVTZ AUX)
    Blend: AUG-CC-PVTZ-JKFIT

    Orbital Energies [Eh]
    ---------------------

    Doubly Occupied:

       1A    -20.510686     2A    -15.625737     3A    -11.356979
       4A    -11.316944     5A    -11.279067     6A    -11.245386
       7A    -11.245000     8A     -1.373972     9A     -1.270945
      10A     -1.109689    11A     -1.032914    12A     -0.889884
      13A     -0.861972    14A     -0.755462    15A     -0.696110
      16A     -0.679985    17A     -0.639874    18A     -0.612709
      19A     -0.605155    20A     -0.560503    21A     -0.541117
      22A     -0.484800    23A     -0.426793    24A     -0.426333
      25A     -0.316696

  @DF-RHF Final Energy:  -321.68004163654126

   => Energetics <=

    Nuclear Repulsion Energy =            274.6880378880595686
    One-Electron Energy =                -981.0067299020099654
    Two-Electron Energy =                 384.6386503774090784
    Total Energy =                       -321.6800416365412616
  Basis Set: (AUG-CC-PVTZ AUX)
    Blend: AUG-CC-PVTZ-RI
    Molecular point group: c1

    Geometry (in Angstrom), charge = 0, multiplicity = 1:

       Center              X                  Y                   Z               Mass
    ------------   -----------------  -----------------  -----------------  -----------------
         O           -2.248376318227    -0.065815188995     0.000374315529    15.994914619570
         N           -0.256027518227    -1.102061388995    -0.000266684471    14.003074004430
         C            1.165734481773     1.216289611005     0.000056315529    12.000000000000
         C            1.852547481773    -0.030914388995     0.000066315529    12.000000000000
         C            1.108917481773    -1.175851388995     0.000125315529    12.000000000000
         C           -1.021168518227     0.077477611005    -0.000336684471    12.000000000000
         C           -0.201837518227     1.274103611005    -0.000160684471    12.000000000000
         H            1.739837481773     2.140222611005     0.000102315529     1.007825032230
         H            2.934733481773    -0.084173388995     0.000381315529     1.007825032230
         H            1.535378481773    -2.173893388995     0.000175315529     1.007825032230
         H           -0.733914518227     2.219768611005     0.000025315529     1.007825032230
         H           -0.815068518227    -1.951407388995     0.000050315529     1.007825032230

  Basis Set: AUG-CC-PVTZ
    Blend: AUG-CC-PVTZ
  Basis Set: (AUG-CC-PVTZ AUX)
    Blend: AUG-CC-PVTZ-JKFIT
	 Reference Energy          =    -321.6800416365412616 [Eh]
	 Singles Energy            =      -0.0000000000000000 [Eh]
	 Same-Spin Energy          =      -0.3357305540824649 [Eh]
	 Opposite-Spin Energy      =      -1.0273419238035046 [Eh]
	 Correlation Energy        =      -1.3630724778859695 [Eh]
	 Total Energy              =    -323.0431141144272260 [Eh]

	 ================> DF-SCS-MP2 Energies <==================
	-----------------------------------------------------------
	 SCS Same-Spin Scale       =       0.3333333333333333 [-]
	 SCS Opposite-Spin Scale   =       1.2000000000000000 [-]
	 SCS Same-Spin Energy      =      -0.1119101846941550 [Eh]
	 SCS Opposite-Spin Energy  =      -1.2328103085642055 [Eh]
	 SCS Correlation Energy    =      -1.3447204932583605 [Eh]
	 SCS Total Energy          =    -323.0247621297996261 [Eh]
	-----------------------------------------------------------

  Dipole Moment: [D]
     X:     4.1084      Y:    -1.1321      Z:    -0.0002     Total:     4.2615

*** Psi4 exiting successfully. Buy a developer a beer!
