                               Psi4 1.3.2 release

  ==> Input File <==

--------------------------------------------------------------------------
#psi4
#
memory 32 gb

molecule  {
0 1
  O       -2.2992113    -0.0166683     0.0003491
  N       -0.3010450    -1.1173380    -0.0002690
  C        1.1207170     1.2010130     0.0000540
  C        1.8075300    -0.0461910     0.0000640
  C        1.0639000    -1.1911280     0.0001230
  C       -1.0661860     0.0622010    -0.0003390
  C       -0.2468550     1.2588270    -0.0001630
  H        1.6948200     2.1249460     0.0001000
  H        2.8897160    -0.0994500     0.0003790
  H        1.4903610    -2.1891700     0.0001730
  H       -0.7789320     2.2044920     0.0000230
  H       -0.8600860    -1.9666840     0.0000480
units angstrom
no_reorient  #important for SAPT in psi4, default
symmetry c1  #important for SAPT in psi4, default
}

set PROPERTIES_ORIGIN ["COM"]
properties('MP2/aug-cc-pvtz', properties = ['dipole'])
--------------------------------------------------------------------------

    Molecular point group: c1
  Charge       = 0
  Multiplicity = 1
  Basis Set: AUG-CC-PVTZ
    Blend: AUG-CC-PVTZ
  Basis Set: (AUG-CC-PVTZ AUX)
    Blend: AUG-CC-PVTZ-JKFIT

    Orbital Energies [Eh]
    ---------------------

    Doubly Occupied:

       1A    -20.511690     2A    -15.627994     3A    -11.357011
       4A    -11.317082     5A    -11.277220     6A    -11.245898
       7A    -11.243573     8A     -1.372724     9A     -1.273721
      10A     -1.109293    11A     -1.032719    12A     -0.889244
      13A     -0.862615    14A     -0.756168    15A     -0.696160
      16A     -0.679468    17A     -0.639897    18A     -0.613038
      19A     -0.605580    20A     -0.560306    21A     -0.540514
      22A     -0.485560    23A     -0.426927    24A     -0.426324
      25A     -0.316566

  @DF-RHF Final Energy:  -321.68113772737303

   => Energetics <=

    Nuclear Repulsion Energy =            274.5648673724746800
    One-Electron Energy =                -980.7574227812401659
    Two-Electron Energy =                 384.5114176813924018
    Total Energy =                       -321.6811377273730272
  Basis Set: (AUG-CC-PVTZ AUX)
    Blend: AUG-CC-PVTZ-RI
    Molecular point group: c1

    Geometry (in Angstrom), charge = 0, multiplicity = 1:

       Center              X                  Y                   Z               Mass
    ------------   -----------------  -----------------  -----------------  -----------------
         O           -2.253214722671    -0.012234278178     0.000355269639    15.994914619570
         N           -0.255048422671    -1.112903978178    -0.000262830361    14.003074004430
         C            1.166713577329     1.205447021822     0.000060169639    12.000000000000
         C            1.853526577329    -0.041756978178     0.000070169639    12.000000000000
         C            1.109896577329    -1.186693978178     0.000129169639    12.000000000000
         C           -1.020189422671     0.066635021822    -0.000332830361    12.000000000000
         C           -0.200858422671     1.263261021822    -0.000156830361    12.000000000000
         H            1.740816577329     2.129380021822     0.000106169639     1.007825032230
         H            2.935712577329    -0.095015978178     0.000385169639     1.007825032230
         H            1.536357577329    -2.184735978178     0.000179169639     1.007825032230
         H           -0.732935422671     2.208926021822     0.000029169639     1.007825032230
         H           -0.814089422671    -1.962249978178     0.000054169639     1.007825032230

  Basis Set: AUG-CC-PVTZ
    Blend: AUG-CC-PVTZ
  Basis Set: (AUG-CC-PVTZ AUX)
    Blend: AUG-CC-PVTZ-JKFIT
	 Reference Energy          =    -321.6811377273730272 [Eh]
	 Singles Energy            =      -0.0000000000000000 [Eh]
	 Same-Spin Energy          =      -0.3356486217603371 [Eh]
	 Opposite-Spin Energy      =      -1.0274069204895353 [Eh]
	 Correlation Energy        =      -1.3630555422498722 [Eh]
	 Total Energy              =    -323.0441932696228946 [Eh]

	 ================> DF-SCS-MP2 Energies <==================
	-----------------------------------------------------------
	 SCS Same-Spin Scale       =       0.3333333333333333 [-]
	 SCS Opposite-Spin Scale   =       1.2000000000000000 [-]
	 SCS Same-Spin Energy      =      -0.1118828739201123 [Eh]
	 SCS Opposite-Spin Energy  =      -1.2328883045874424 [Eh]
	 SCS Correlation Energy    =      -1.3447711785075547 [Eh]
	 SCS Total Energy          =    -323.0259089058805557 [Eh]
	-----------------------------------------------------------

  Dipole Moment: [D]
     X:     4.0947      Y:    -1.2576      Z:    -0.0002     Total:     4.2835

*** Psi4 exiting successfully. Buy a developer a beer!
