                               Psi4 1.3.2 release

  ==> Input File <==

--------------------------------------------------------------------------
#psi4
#
memory 32 gb

molecule  {
0 1
  O       -2.3004000     0.0048630     0.0003410
  N       -0.2976383    -1.0697471    -0.0002645
  C        1.1207170     1.2010130     0.0000540
  C        1.8075300    -0.0461910     0.0000640
  C        1.0639000    -1.1911280     0.0001230
  C       -1.0661860     0.0622010    -0.0003390
  C       -0.2468550     1.2588270    -0.0001630
  H        1.6948200     2.1249460     0.0001000
  H        2.8897160    -0.0994500     0.0003790
  H        1.4903610    -2.1891700     0.0001730
  H       -0.7789320     2.2044920     0.0000230
  H       -0.8600860    -1.9666840     0.0000480
units angstrom
no_reorient  #important for SAPT in psi4, default
symmetry c1  #important for SAPT in psi4, default
}

set PROPERTIES_ORIGIN ["COM"]
properties('MP2/aug-cc-pvtz', properties = ['dipole'])
--------------------------------------------------------------------------

    Molecular point group: c1
  Charge       = 0
  Multiplicity = 1
  Basis Set: AUG-CC-PVTZ
    Blend: AUG-CC-PVTZ
  Basis Set: (AUG-CC-PVTZ AUX)
    Blend: AUG-CC-PVTZ-JKFIT

    Orbital Energies [Eh]
    ---------------------

    Doubly Occupied:

       1A    -20.507675     2A    -15.632174     3A    -11.352466
       4A    -11.316893     5A    -11.275055     6A    -11.247470
       7A    -11.243045     8A     -1.373728     9A     -1.277117
      10A     -1.107365    11A     -1.037395    12A     -0.886805
      13A     -0.867620    14A     -0.752131    15A     -0.699345
      16A     -0.675037    17A     -0.637355    18A     -0.613241
      19A     -0.611527    20A     -0.556999    21A     -0.538913
      22A     -0.483825    23A     -0.425408    24A     -0.425044
      25A     -0.317877

  @DF-RHF Final Energy:  -321.67744220965488

   => Energetics <=

    Nuclear Repulsion Energy =            275.3706925149016911
    One-Electron Energy =                -982.3732511673499630
    Two-Electron Energy =                 385.3251164427933304
    Total Energy =                       -321.6774422096548847
  Basis Set: (AUG-CC-PVTZ AUX)
    Blend: AUG-CC-PVTZ-RI
    Molecular point group: c1

    Geometry (in Angstrom), charge = 0, multiplicity = 1:

       Center              X                  Y                   Z               Mass
    ------------   -----------------  -----------------  -----------------  -----------------
         O           -2.254705316489    -0.001338930382     0.000347869839    15.994914619570
         N           -0.251943616489    -1.075949030382    -0.000257630161    14.003074004430
         C            1.166411683511     1.194811069618     0.000060869839    12.000000000000
         C            1.853224683511    -0.052392930382     0.000070869839    12.000000000000
         C            1.109594683511    -1.197329930382     0.000129869839    12.000000000000
         C           -1.020491316489     0.055999069618    -0.000332130161    12.000000000000
         C           -0.201160316489     1.252625069618    -0.000156130161    12.000000000000
         H            1.740514683511     2.118744069618     0.000106869839     1.007825032230
         H            2.935410683511    -0.105651930382     0.000385869839     1.007825032230
         H            1.536055683511    -2.195371930382     0.000179869839     1.007825032230
         H           -0.733237316489     2.198290069618     0.000029869839     1.007825032230
         H           -0.814391316489    -1.972885930382     0.000054869839     1.007825032230

  Basis Set: AUG-CC-PVTZ
    Blend: AUG-CC-PVTZ
  Basis Set: (AUG-CC-PVTZ AUX)
    Blend: AUG-CC-PVTZ-JKFIT
	 Reference Energy          =    -321.6774422096548847 [Eh]
	 Singles Energy            =      -0.0000000000000000 [Eh]
	 Same-Spin Energy          =      -0.3361405460683584 [Eh]
	 Opposite-Spin Energy      =      -1.0280243931187181 [Eh]
	 Correlation Energy        =      -1.3641649391870765 [Eh]
	 Total Energy              =    -323.0416071488419334 [Eh]

	 ================> DF-SCS-MP2 Energies <==================
	-----------------------------------------------------------
	 SCS Same-Spin Scale       =       0.3333333333333333 [-]
	 SCS Opposite-Spin Scale   =       1.2000000000000000 [-]
	 SCS Same-Spin Energy      =      -0.1120468486894528 [Eh]
	 SCS Opposite-Spin Energy  =      -1.2336292717424617 [Eh]
	 SCS Correlation Energy    =      -1.3456761204319145 [Eh]
	 SCS Total Energy          =    -323.0231183300867883 [Eh]
	-----------------------------------------------------------

  Dipole Moment: [D]
     X:     4.2245      Y:    -1.3910      Z:    -0.0002     Total:     4.4476

*** Psi4 exiting successfully. Buy a developer a beer!
