                               Psi4 1.3.2 release

  ==> Input File <==

--------------------------------------------------------------------------
#psi4
#
memory 32 gb

molecule  {
0 1
  O       -2.3004000     0.0048630     0.0003410
  N       -0.3010450    -1.1173380    -0.0002690
  C        1.1207170     1.2010130     0.0000540
  C        1.8075300    -0.0461910     0.0000640
  C        0.9640458    -1.1857298     0.0000943
  C       -1.0661860     0.0622010    -0.0003390
  C       -0.2468550     1.2588270    -0.0001630
  H        1.6948200     2.1249460     0.0001000
  H        2.8897160    -0.0994500     0.0003790
  H        1.4903610    -2.1891700     0.0001730
  H       -0.7789320     2.2044920     0.0000230
  H       -0.8600860    -1.9666840     0.0000480
units angstrom
no_reorient  #important for SAPT in psi4, default
symmetry c1  #important for SAPT in psi4, default
}

set PROPERTIES_ORIGIN ["COM"]
properties('MP2/aug-cc-pvtz', properties = ['dipole'])
--------------------------------------------------------------------------

    Molecular point group: c1
  Charge       = 0
  Multiplicity = 1
  Basis Set: AUG-CC-PVTZ
    Blend: AUG-CC-PVTZ
  Basis Set: (AUG-CC-PVTZ AUX)
    Blend: AUG-CC-PVTZ-JKFIT

    Orbital Energies [Eh]
    ---------------------

    Doubly Occupied:

       1A    -20.512871     2A    -15.641590     3A    -11.358354
       4A    -11.324333     5A    -11.273470     6A    -11.243505
       7A    -11.234986     8A     -1.383874     9A     -1.307957
      10A     -1.106996    11A     -1.023959    12A     -0.890698
      13A     -0.874640    14A     -0.773440    15A     -0.700857
      16A     -0.669900    17A     -0.640818    18A     -0.624392
      19A     -0.604774    20A     -0.563678    21A     -0.526567
      22A     -0.493145    23A     -0.428620    24A     -0.427473
      25A     -0.303358

  @DF-RHF Final Energy:  -321.66773177255271

   => Energetics <=

    Nuclear Repulsion Energy =            275.8089894381622571
    One-Electron Energy =                -983.0849350322120017
    Two-Electron Energy =                 385.6082138214970314
    Total Energy =                       -321.6677317725527132
  Basis Set: (AUG-CC-PVTZ AUX)
    Blend: AUG-CC-PVTZ-RI
    Molecular point group: c1

    Geometry (in Angstrom), charge = 0, multiplicity = 1:

       Center              X                  Y                   Z               Mass
    ------------   -----------------  -----------------  -----------------  -----------------
         O           -2.241595125927     0.004991654278     0.000352156731    15.994914619570
         N           -0.242240125927    -1.117209345722    -0.000257843269    14.003074004430
         C            1.179521874073     1.201141654278     0.000065156731    12.000000000000
         C            1.866334874073    -0.046062345722     0.000075156731    12.000000000000
         C            1.022850674073    -1.185601145722     0.000105456731    12.000000000000
         C           -1.007381125927     0.062329654278    -0.000327843269    12.000000000000
         C           -0.188050125927     1.258955654278    -0.000151843269    12.000000000000
         H            1.753624874073     2.125074654278     0.000111156731     1.007825032230
         H            2.948520874073    -0.099321345722     0.000390156731     1.007825032230
         H            1.549165874073    -2.189041345722     0.000184156731     1.007825032230
         H           -0.720127125927     2.204620654278     0.000034156731     1.007825032230
         H           -0.801281125927    -1.966555345722     0.000059156731     1.007825032230

  Basis Set: AUG-CC-PVTZ
    Blend: AUG-CC-PVTZ
  Basis Set: (AUG-CC-PVTZ AUX)
    Blend: AUG-CC-PVTZ-JKFIT
	 Reference Energy          =    -321.6677317725527132 [Eh]
	 Singles Energy            =      -0.0000000000000000 [Eh]
	 Same-Spin Energy          =      -0.3368458301993654 [Eh]
	 Opposite-Spin Energy      =      -1.0272265224907997 [Eh]
	 Correlation Energy        =      -1.3640723526901652 [Eh]
	 Total Energy              =    -323.0318041252428998 [Eh]

	 ================> DF-SCS-MP2 Energies <==================
	-----------------------------------------------------------
	 SCS Same-Spin Scale       =       0.3333333333333333 [-]
	 SCS Opposite-Spin Scale   =       1.2000000000000000 [-]
	 SCS Same-Spin Energy      =      -0.1122819433997885 [Eh]
	 SCS Opposite-Spin Energy  =      -1.2326718269889596 [Eh]
	 SCS Correlation Energy    =      -1.3449537703887482 [Eh]
	 SCS Total Energy          =    -323.0126855429414832 [Eh]
	-----------------------------------------------------------

  Dipole Moment: [D]
     X:     3.8968      Y:    -1.5519      Z:    -0.0002     Total:     4.1945

*** Psi4 exiting successfully. Buy a developer a beer!
