                               Psi4 1.3.2 release

  ==> Input File <==

--------------------------------------------------------------------------
#psi4
#
memory 32 gb

molecule  {
0 1
  O       -2.3004000     0.0048630     0.0003410
  N       -0.3010450    -1.1173380    -0.0002690
  C        1.1207170     1.2010130     0.0000540
  C        1.8075300    -0.0461910     0.0000640
  C        1.0639000    -1.1911280     0.0001230
  C       -1.2659705     0.0529196    -0.0002289
  C       -0.2468550     1.2588270    -0.0001630
  H        1.6948200     2.1249460     0.0001000
  H        2.8897160    -0.0994500     0.0003790
  H        1.4903610    -2.1891700     0.0001730
  H       -0.7789320     2.2044920     0.0000230
  H       -0.8600860    -1.9666840     0.0000480
units angstrom
no_reorient  #important for SAPT in psi4, default
symmetry c1  #important for SAPT in psi4, default
}

set PROPERTIES_ORIGIN ["COM"]
properties('MP2/aug-cc-pvtz', properties = ['dipole'])
--------------------------------------------------------------------------

    Molecular point group: c1
  Charge       = 0
  Multiplicity = 1
  Basis Set: AUG-CC-PVTZ
    Blend: AUG-CC-PVTZ
  Basis Set: (AUG-CC-PVTZ AUX)
    Blend: AUG-CC-PVTZ-JKFIT

    Orbital Energies [Eh]
    ---------------------

    Doubly Occupied:

       1A    -20.563554     2A    -15.596422     3A    -11.360121
       4A    -11.300295     5A    -11.259639     6A    -11.234896
       7A    -11.224126     8A     -1.540914     9A     -1.248943
      10A     -1.083953    11A     -1.002492    12A     -0.864406
      13A     -0.831754    14A     -0.734824    15A     -0.716558
      16A     -0.704945    17A     -0.658692    18A     -0.641834
      19A     -0.615344    20A     -0.567329    21A     -0.543092
      22A     -0.522926    23A     -0.413904    24A     -0.407388
      25A     -0.300208

  @DF-RHF Final Energy:  -321.60415739222384

   => Energetics <=

    Nuclear Repulsion Energy =            274.6565234031849059
    One-Electron Energy =                -980.6442423890049440
    Two-Electron Energy =                 384.3835615935961982
    Total Energy =                       -321.6041573922238399
  Basis Set: (AUG-CC-PVTZ AUX)
    Blend: AUG-CC-PVTZ-RI
    Molecular point group: c1

    Geometry (in Angstrom), charge = 0, multiplicity = 1:

       Center              X                  Y                   Z               Mass
    ------------   -----------------  -----------------  -----------------  -----------------
         O           -2.228977280622     0.006845195415     0.000334630946    15.994914619570
         N           -0.229622280622    -1.115355804585    -0.000275369054    14.003074004430
         C            1.192139719378     1.202995195415     0.000047630946    12.000000000000
         C            1.878952719378    -0.044208804585     0.000057630946    12.000000000000
         C            1.135322719378    -1.189145804585     0.000116630946    12.000000000000
         C           -1.194547780622     0.054901795415    -0.000235269054    12.000000000000
         C           -0.175432280622     1.260809195415    -0.000169369054    12.000000000000
         H            1.766242719378     2.126928195415     0.000093630946     1.007825032230
         H            2.961138719378    -0.097467804585     0.000372630946     1.007825032230
         H            1.561783719378    -2.187187804585     0.000166630946     1.007825032230
         H           -0.707509280622     2.206474195415     0.000016630946     1.007825032230
         H           -0.788663280622    -1.964701804585     0.000041630946     1.007825032230

  Basis Set: AUG-CC-PVTZ
    Blend: AUG-CC-PVTZ
  Basis Set: (AUG-CC-PVTZ AUX)
    Blend: AUG-CC-PVTZ-JKFIT
	 Reference Energy          =    -321.6041573922238399 [Eh]
	 Singles Energy            =      -0.0000000000000000 [Eh]
	 Same-Spin Energy          =      -0.3316901598590964 [Eh]
	 Opposite-Spin Energy      =      -1.0214629986909614 [Eh]
	 Correlation Energy        =      -1.3531531585500578 [Eh]
	 Total Energy              =    -322.9573105507739115 [Eh]

	 ================> DF-SCS-MP2 Energies <==================
	-----------------------------------------------------------
	 SCS Same-Spin Scale       =       0.3333333333333333 [-]
	 SCS Opposite-Spin Scale   =       1.2000000000000000 [-]
	 SCS Same-Spin Energy      =      -0.1105633866196988 [Eh]
	 SCS Opposite-Spin Energy  =      -1.2257555984291535 [Eh]
	 SCS Correlation Energy    =      -1.3363189850488524 [Eh]
	 SCS Total Energy          =    -322.9404763772727165 [Eh]
	-----------------------------------------------------------

  Dipole Moment: [D]
     X:     1.7578      Y:    -1.1820      Z:     0.0002     Total:     2.1183

*** Psi4 exiting successfully. Buy a developer a beer!
