                               Psi4 1.4a3.dev225

  ==> Input File <==

--------------------------------------------------------------------------
#psi4
#
memory 32 gb

molecule  {
0 1
  O       -2.3004660     0.0048580     0.0000370
  N       -0.3010810    -1.1172490    -0.0000470
  C        1.1208650     1.2009110     0.0000070
  C        1.8075990    -0.0462550     0.0000170
  C        1.0636490    -1.1911890     0.0000110
  C       -1.0661180     0.0623530    -0.0000030
  C       -0.2581309     1.2422981    -0.0000336
  H        1.6947520     2.1250290     0.0000060
  H        2.8897650    -0.0997760     0.0000620
  H        1.4903730    -2.1891750     0.0000000
  H       -0.7785610     2.2046570    -0.0000350
  H       -0.8600110    -1.9665800     0.0000060
units angstrom
no_reorient  #important for SAPT in psi4, default
symmetry c1  #important for SAPT in psi4, default
}

set PROPERTIES_ORIGIN ["COM"]
properties('MP2/aug-cc-pvtz', properties = ['dipole'])
--------------------------------------------------------------------------

    Molecular point group: c1
  Charge       = 0
  Multiplicity = 1
  Basis Set: AUG-CC-PVTZ
    Blend: AUG-CC-PVTZ
  Basis Set: (AUG-CC-PVTZ AUX)
    Blend: AUG-CC-PVTZ-JKFIT

    Orbital Energies [Eh]
    ---------------------

    Doubly Occupied:

       1A    -20.509725     2A    -15.629355     3A    -11.354593
       4A    -11.318050     5A    -11.279331     6A    -11.246590
       7A    -11.242691     8A     -1.371681     9A     -1.274773
      10A     -1.108632    11A     -1.033979    12A     -0.891812
      13A     -0.862277    14A     -0.756502    15A     -0.696654
      16A     -0.680294    17A     -0.638354    18A     -0.612835
      19A     -0.606363    20A     -0.560596    21A     -0.538099
      22A     -0.485584    23A     -0.426787    24A     -0.424965
      25A     -0.316331

  @DF-RHF Final Energy:  -321.68006136634233

   => Energetics <=

    Nuclear Repulsion Energy =            274.7474341059738094
    One-Electron Energy =                -981.1212867443006189
    Two-Electron Energy =                 384.6937912719844235
    Total Energy =                       -321.6800613663423292
  Basis Set: (AUG-CC-PVTZ AUX)
    Blend: AUG-CC-PVTZ-RI
    Molecular point group: c1

    Geometry (in Angstrom), charge = 0, multiplicity = 1:

       Center              X                  Y                   Z               Mass
    ------------   -----------------  -----------------  -----------------  -----------------
         O           -2.252838130550     0.007752286842     0.000037486415    15.994914619570
         N           -0.253453130550    -1.114354713158    -0.000046513585    14.003074004430
         C            1.168492869450     1.203805286842     0.000007486415    12.000000000000
         C            1.855226869450    -0.043360713158     0.000017486415    12.000000000000
         C            1.111276869450    -1.188294713158     0.000011486415    12.000000000000
         C           -1.018490130550     0.065247286842    -0.000002513585    12.000000000000
         C           -0.210503030550     1.245192386842    -0.000033113585    12.000000000000
         H            1.742379869450     2.127923286842     0.000006486415     1.007825032230
         H            2.937392869450    -0.096881713158     0.000062486415     1.007825032230
         H            1.538000869450    -2.186280713158     0.000000486415     1.007825032230
         H           -0.730933130550     2.207551286842    -0.000034513585     1.007825032230
         H           -0.812383130550    -1.963685713158     0.000006486415     1.007825032230

  Basis Set: AUG-CC-PVTZ
    Blend: AUG-CC-PVTZ
  Basis Set: (AUG-CC-PVTZ AUX)
    Blend: AUG-CC-PVTZ-JKFIT
	 Reference Energy          =    -321.6800613663423292 [Eh]
	 Singles Energy            =      -0.0000000000000000 [Eh]
	 Same-Spin Energy          =      -0.3360482068664582 [Eh]
	 Opposite-Spin Energy      =      -1.0278055027332191 [Eh]
	 Correlation Energy        =      -1.3638537095996774 [Eh]
	 Total Energy              =    -323.0439150759419817 [Eh]

	 ================> DF-SCS-MP2 Energies <==================
	-----------------------------------------------------------
	 SCS Same-Spin Scale       =       0.3333333333333333 [-]
	 SCS Opposite-Spin Scale   =       1.2000000000000000 [-]
	 SCS Same-Spin Energy      =      -0.1120160689554861 [Eh]
	 SCS Opposite-Spin Energy  =      -1.2333666032798629 [Eh]
	 SCS Correlation Energy    =      -1.3453826722353490 [Eh]
	 SCS Total Energy          =    -323.0254440385776888 [Eh]
	-----------------------------------------------------------

  Dipole Moment: [D]
     X:     4.1544      Y:    -1.3001      Z:     0.0000     Total:     4.3531

*** Psi4 exiting successfully. Buy a developer a beer!
