                               Psi4 1.3.2 release

  ==> Input File <==

--------------------------------------------------------------------------
#psi4
#
memory 32 gb

molecule  {
0 1
  O       -2.3004000     0.0048630     0.0003410
  N       -0.3010450    -1.1173380    -0.0002690
  C        1.1207170     1.2010130     0.0000540
  C        1.8075300    -0.0461910     0.0000640
  C        1.0639000    -1.1911280     0.0001230
  C       -0.8664015     0.0714824    -0.0004491
  C       -0.2468550     1.2588270    -0.0001630
  H        1.6948200     2.1249460     0.0001000
  H        2.8897160    -0.0994500     0.0003790
  H        1.4903610    -2.1891700     0.0001730
  H       -0.7789320     2.2044920     0.0000230
  H       -0.8600860    -1.9666840     0.0000480
units angstrom
no_reorient  #important for SAPT in psi4, default
symmetry c1  #important for SAPT in psi4, default
}

set PROPERTIES_ORIGIN ["COM"]
properties('MP2/aug-cc-pvtz', properties = ['dipole'])
--------------------------------------------------------------------------

    Molecular point group: c1
  Charge       = 0
  Multiplicity = 1
  Basis Set: AUG-CC-PVTZ
    Blend: AUG-CC-PVTZ
  Basis Set: (AUG-CC-PVTZ AUX)
    Blend: AUG-CC-PVTZ-JKFIT

    Orbital Energies [Eh]
    ---------------------

    Doubly Occupied:

       1A    -20.465107     2A    -15.654183     3A    -11.340976
       4A    -11.331166     5A    -11.293270     6A    -11.265613
       7A    -11.247678     8A     -1.355912     9A     -1.201164
      10A     -1.137429    11A     -1.051755    12A     -0.914232
      13A     -0.888499    14A     -0.780832    15A     -0.719149
      16A     -0.688649    17A     -0.665472    18A     -0.622567
      19A     -0.599180    20A     -0.560447    21A     -0.489109
      22A     -0.443077    23A     -0.435275    24A     -0.381914
      25A     -0.321083

  @DF-RHF Final Energy:  -321.62004284376405

   => Energetics <=

    Nuclear Repulsion Energy =            275.6339823997773237
    One-Electron Energy =                -982.8005738808258229
    Two-Electron Energy =                 385.5465486372844452
    Total Energy =                       -321.6200428437640539
  Basis Set: (AUG-CC-PVTZ AUX)
    Blend: AUG-CC-PVTZ-RI
    Molecular point group: c1

    Geometry (in Angstrom), charge = 0, multiplicity = 1:

       Center              X                  Y                   Z               Mass
    ------------   -----------------  -----------------  -----------------  -----------------
         O           -2.279429444088     0.004501336357     0.000362434821    15.994914619570
         N           -0.280074444088    -1.117699663643    -0.000247565179    14.003074004430
         C            1.141687555912     1.200651336357     0.000075434821    12.000000000000
         C            1.828500555912    -0.046552663643     0.000085434821    12.000000000000
         C            1.084870555912    -1.191489663643     0.000144434821    12.000000000000
         C           -0.845430944088     0.071120736357    -0.000427665179    12.000000000000
         C           -0.225884444088     1.258465336357    -0.000141565179    12.000000000000
         H            1.715790555912     2.124584336357     0.000121434821     1.007825032230
         H            2.910686555912    -0.099811663643     0.000400434821     1.007825032230
         H            1.511331555912    -2.189531663643     0.000194434821     1.007825032230
         H           -0.757961444088     2.204130336357     0.000044434821     1.007825032230
         H           -0.839115444088    -1.967045663643     0.000069434821     1.007825032230

  Basis Set: AUG-CC-PVTZ
    Blend: AUG-CC-PVTZ
  Basis Set: (AUG-CC-PVTZ AUX)
    Blend: AUG-CC-PVTZ-JKFIT
	 Reference Energy          =    -321.6200428437640539 [Eh]
	 Singles Energy            =      -0.0000000000000000 [Eh]
	 Same-Spin Energy          =      -0.3396939607983044 [Eh]
	 Opposite-Spin Energy      =      -1.0335577039796147 [Eh]
	 Correlation Energy        =      -1.3732516647779192 [Eh]
	 Total Energy              =    -322.9932945085419647 [Eh]

	 ================> DF-SCS-MP2 Energies <==================
	-----------------------------------------------------------
	 SCS Same-Spin Scale       =       0.3333333333333333 [-]
	 SCS Opposite-Spin Scale   =       1.2000000000000000 [-]
	 SCS Same-Spin Energy      =      -0.1132313202661015 [Eh]
	 SCS Opposite-Spin Energy  =      -1.2402692447755375 [Eh]
	 SCS Correlation Energy    =      -1.3535005650416390 [Eh]
	 SCS Total Energy          =    -322.9735434088057104 [Eh]
	-----------------------------------------------------------

  Dipole Moment: [D]
     X:     5.9393      Y:    -1.3616      Z:    -0.0004     Total:     6.0934

*** Psi4 exiting successfully. Buy a developer a beer!
