                               Psi4 1.3.2 release

  ==> Input File <==

--------------------------------------------------------------------------
#psi4
#
memory 32 gb

molecule  {
0 1
  O       -2.3004000     0.0048630     0.0003410
  N       -0.2995493    -1.0935277    -0.0002668
  C        1.1207170     1.2010130     0.0000540
  C        1.8075300    -0.0461910     0.0000640
  C        1.0639000    -1.1911280     0.0001230
  C       -1.0661860     0.0622010    -0.0003390
  C       -0.2468550     1.2588270    -0.0001630
  H        1.6948200     2.1249460     0.0001000
  H        2.8897160    -0.0994500     0.0003790
  H        1.4903610    -2.1891700     0.0001730
  H       -0.7789320     2.2044920     0.0000230
  H       -0.8600860    -1.9666840     0.0000480
units angstrom
no_reorient  #important for SAPT in psi4, default
symmetry c1  #important for SAPT in psi4, default
}

set PROPERTIES_ORIGIN ["COM"]
properties('MP2/aug-cc-pvtz', properties = ['dipole'])
--------------------------------------------------------------------------

    Molecular point group: c1
  Charge       = 0
  Multiplicity = 1
  Basis Set: AUG-CC-PVTZ
    Blend: AUG-CC-PVTZ
  Basis Set: (AUG-CC-PVTZ AUX)
    Blend: AUG-CC-PVTZ-JKFIT

    Orbital Energies [Eh]
    ---------------------

    Doubly Occupied:

       1A    -20.509827     2A    -15.630478     3A    -11.354756
       4A    -11.316950     5A    -11.275813     6A    -11.246729
       7A    -11.243039     8A     -1.372962     9A     -1.275820
      10A     -1.108206    11A     -1.034887    12A     -0.887637
      13A     -0.865474    14A     -0.753996    15A     -0.697893
      16A     -0.677177    17A     -0.638737    18A     -0.613186
      19A     -0.608570    20A     -0.558547    21A     -0.539816
      22A     -0.484787    23A     -0.426197    24A     -0.425681
      25A     -0.317150

  @DF-RHF Final Energy:  -321.68010121399800

   => Energetics <=

    Nuclear Repulsion Energy =            274.9496222331305262
    One-Electron Energy =                -981.5308147403397925
    Two-Electron Energy =                 384.9010912932112660
    Total Energy =                       -321.6801012139980003
  Basis Set: (AUG-CC-PVTZ AUX)
    Blend: AUG-CC-PVTZ-RI
    Molecular point group: c1

    Geometry (in Angstrom), charge = 0, multiplicity = 1:

       Center              X                  Y                   Z               Mass
    ------------   -----------------  -----------------  -----------------  -----------------
         O           -2.254423743603     0.002164979705     0.000348208729    15.994914619570
         N           -0.253573043603    -1.096225720295    -0.000259591271    14.003074004430
         C            1.166693256397     1.198314979705     0.000061208729    12.000000000000
         C            1.853506256397    -0.048889020295     0.000071208729    12.000000000000
         C            1.109876256397    -1.193826020295     0.000130208729    12.000000000000
         C           -1.020209743603     0.059502979705    -0.000331791271    12.000000000000
         C           -0.200878743603     1.256128979705    -0.000155791271    12.000000000000
         H            1.740796256397     2.122247979705     0.000107208729     1.007825032230
         H            2.935692256397    -0.102148020295     0.000386208729     1.007825032230
         H            1.536337256397    -2.191868020295     0.000180208729     1.007825032230
         H           -0.732955743603     2.201793979705     0.000030208729     1.007825032230
         H           -0.814109743603    -1.969382020295     0.000055208729     1.007825032230

  Basis Set: AUG-CC-PVTZ
    Blend: AUG-CC-PVTZ
  Basis Set: (AUG-CC-PVTZ AUX)
    Blend: AUG-CC-PVTZ-JKFIT
	 Reference Energy          =    -321.6801012139980003 [Eh]
	 Singles Energy            =      -0.0000000000000000 [Eh]
	 Same-Spin Energy          =      -0.3358683493474630 [Eh]
	 Opposite-Spin Energy      =      -1.0276859784193877 [Eh]
	 Correlation Energy        =      -1.3635543277668507 [Eh]
	 Total Energy              =    -323.0436555417648492 [Eh]

	 ================> DF-SCS-MP2 Energies <==================
	-----------------------------------------------------------
	 SCS Same-Spin Scale       =       0.3333333333333333 [-]
	 SCS Opposite-Spin Scale   =       1.2000000000000000 [-]
	 SCS Same-Spin Energy      =      -0.1119561164491543 [Eh]
	 SCS Opposite-Spin Energy  =      -1.2332231741032651 [Eh]
	 SCS Correlation Energy    =      -1.3451792905524194 [Eh]
	 SCS Total Energy          =    -323.0252805045504374 [Eh]
	-----------------------------------------------------------

  Dipole Moment: [D]
     X:     4.1558      Y:    -1.3466      Z:    -0.0002     Total:     4.3686

*** Psi4 exiting successfully. Buy a developer a beer!
