                               Psi4 1.4a3.dev225

  ==> Input File <==

--------------------------------------------------------------------------
#psi4
#
memory 32 gb

molecule  {
0 1
  O       -2.3004660     0.0048580     0.0000370
  N       -0.3010810    -1.1172490    -0.0000470
  C        1.1208650     1.2009110     0.0000070
  C        1.8075990    -0.0462550     0.0000170
  C        1.0636490    -1.1911890     0.0000110
  C       -1.0661180     0.0623530    -0.0000030
  C       -0.2185812     1.3000547    -0.0000351
  H        1.6947520     2.1250290     0.0000060
  H        2.8897650    -0.0997760     0.0000620
  H        1.4903730    -2.1891750     0.0000000
  H       -0.7785610     2.2046570    -0.0000350
  H       -0.8600110    -1.9665800     0.0000060
units angstrom
no_reorient  #important for SAPT in psi4, default
symmetry c1  #important for SAPT in psi4, default
}

set PROPERTIES_ORIGIN ["COM"]
properties('MP2/aug-cc-pvtz', properties = ['dipole'])
--------------------------------------------------------------------------

    Molecular point group: c1
  Charge       = 0
  Multiplicity = 1
  Basis Set: AUG-CC-PVTZ
    Blend: AUG-CC-PVTZ
  Basis Set: (AUG-CC-PVTZ AUX)
    Blend: AUG-CC-PVTZ-JKFIT

    Orbital Energies [Eh]
    ---------------------

    Doubly Occupied:

       1A    -20.516914     2A    -15.627403     3A    -11.362149
       4A    -11.315221     5A    -11.270203     6A    -11.244972
       7A    -11.243856     8A     -1.373699     9A     -1.274278
      10A     -1.110703    11A     -1.029999    12A     -0.883172
      13A     -0.863341    14A     -0.756581    15A     -0.695807
      16A     -0.676739    17A     -0.643733    18A     -0.613098
      19A     -0.604326    20A     -0.562087    21A     -0.541922
      22A     -0.486312    23A     -0.429816    24A     -0.425767
      25A     -0.316905

  @DF-RHF Final Energy:  -321.67984241262957

   => Energetics <=

    Nuclear Repulsion Energy =            274.0235652845973959
    One-Electron Energy =                -979.6688063164042433
    Two-Electron Energy =                 383.9653986191772219
    Total Energy =                       -321.6798424126295686
  Basis Set: (AUG-CC-PVTZ AUX)
    Blend: AUG-CC-PVTZ-RI
    Molecular point group: c1

    Geometry (in Angstrom), charge = 0, multiplicity = 1:

       Center              X                  Y                   Z               Mass
    ------------   -----------------  -----------------  -----------------  -----------------
         O           -2.257831931194     0.000459565373     0.000037675815    15.994914619570
         N           -0.258446931194    -1.121647434627    -0.000046324185    14.003074004430
         C            1.163499068806     1.196512565373     0.000007675815    12.000000000000
         C            1.850233068806    -0.050653434627     0.000017675815    12.000000000000
         C            1.106283068806    -1.195587434627     0.000011675815    12.000000000000
         C           -1.023483931194     0.057954565373    -0.000002324185    12.000000000000
         C           -0.175947131194     1.295656265373    -0.000034424185    12.000000000000
         H            1.737386068806     2.120630565373     0.000006675815     1.007825032230
         H            2.932399068806    -0.104174434627     0.000062675815     1.007825032230
         H            1.533007068806    -2.193573434627     0.000000675815     1.007825032230
         H           -0.735926931194     2.200258565373    -0.000034324185     1.007825032230
         H           -0.817376931194    -1.970978434627     0.000006675815     1.007825032230

  Basis Set: AUG-CC-PVTZ
    Blend: AUG-CC-PVTZ
  Basis Set: (AUG-CC-PVTZ AUX)
    Blend: AUG-CC-PVTZ-JKFIT
	 Reference Energy          =    -321.6798424126295686 [Eh]
	 Singles Energy            =      -0.0000000000000000 [Eh]
	 Same-Spin Energy          =      -0.3347581380066873 [Eh]
	 Opposite-Spin Energy      =      -1.0267956762846746 [Eh]
	 Correlation Energy        =      -1.3615538142913619 [Eh]
	 Total Energy              =    -323.0413962269209378 [Eh]

	 ================> DF-SCS-MP2 Energies <==================
	-----------------------------------------------------------
	 SCS Same-Spin Scale       =       0.3333333333333333 [-]
	 SCS Opposite-Spin Scale   =       1.2000000000000000 [-]
	 SCS Same-Spin Energy      =      -0.1115860460022291 [Eh]
	 SCS Opposite-Spin Energy  =      -1.2321548115416094 [Eh]
	 SCS Correlation Energy    =      -1.3437408575438385 [Eh]
	 SCS Total Energy          =    -323.0235832701733898 [Eh]
	-----------------------------------------------------------

  Dipole Moment: [D]
     X:     3.9325      Y:    -1.3009      Z:     0.0000     Total:     4.1420

*** Psi4 exiting successfully. Buy a developer a beer!
