                               Psi4 1.4a3.dev225

  ==> Input File <==

--------------------------------------------------------------------------
#psi4
#
memory 32 gb

molecule  {
0 1
  O       -2.3004660     0.0048580     0.0000370
  N       -0.3010810    -1.1172490    -0.0000470
  C        1.1208650     1.2009110     0.0000070
  C        1.8075990    -0.0462550     0.0000170
  C        1.0636490    -1.1911890     0.0000110
  C       -1.0161722     0.0646794    -0.0000046
  C       -0.2468310     1.2588000    -0.0000340
  H        1.6947520     2.1250290     0.0000060
  H        2.8897650    -0.0997760     0.0000620
  H        1.4903730    -2.1891750     0.0000000
  H       -0.7785610     2.2046570    -0.0000350
  H       -0.8600110    -1.9665800     0.0000060
units angstrom
no_reorient  #important for SAPT in psi4, default
symmetry c1  #important for SAPT in psi4, default
}

set PROPERTIES_ORIGIN ["COM"]
properties('MP2/aug-cc-pvtz', properties = ['dipole'])
--------------------------------------------------------------------------

    Molecular point group: c1
  Charge       = 0
  Multiplicity = 1
  Basis Set: AUG-CC-PVTZ
    Blend: AUG-CC-PVTZ
  Basis Set: (AUG-CC-PVTZ AUX)
    Blend: AUG-CC-PVTZ-JKFIT

    Orbital Energies [Eh]
    ---------------------

    Doubly Occupied:

       1A    -20.499513     2A    -15.635738     3A    -11.354333
       4A    -11.320960     5A    -11.280900     6A    -11.251318
       7A    -11.244570     8A     -1.352520     9A     -1.266638
      10A     -1.115950    11A     -1.038882    12A     -0.895836
      13A     -0.869757    14A     -0.762600    15A     -0.700634
      16A     -0.681038    17A     -0.646320    18A     -0.607884
      19A     -0.602884    20A     -0.551475    21A     -0.543391
      22A     -0.470391    23A     -0.430514    24A     -0.418096
      25A     -0.318900

  @DF-RHF Final Energy:  -321.67454444983122

   => Energetics <=

    Nuclear Repulsion Energy =            274.7214239666654976
    One-Electron Energy =                -981.0698512521928478
    Two-Electron Energy =                 384.6738828356961335
    Total Energy =                       -321.6745444498312168
  Basis Set: (AUG-CC-PVTZ AUX)
    Blend: AUG-CC-PVTZ-RI
    Molecular point group: c1

    Geometry (in Angstrom), charge = 0, multiplicity = 1:

       Center              X                  Y                   Z               Mass
    ------------   -----------------  -----------------  -----------------  -----------------
         O           -2.260571408327     0.005374904038     0.000037738948    15.994914619570
         N           -0.261186408327    -1.116732095962    -0.000046261052    14.003074004430
         C            1.160759591673     1.201427904038     0.000007738948    12.000000000000
         C            1.847493591673    -0.045738095962     0.000017738948    12.000000000000
         C            1.103543591673    -1.190672095962     0.000011738948    12.000000000000
         C           -0.976277608327     0.065196304038    -0.000003861052    12.000000000000
         C           -0.206936408327     1.259316904038    -0.000033261052    12.000000000000
         H            1.734646591673     2.125545904038     0.000006738948     1.007825032230
         H            2.929659591673    -0.099259095962     0.000062738948     1.007825032230
         H            1.530267591673    -2.188658095962     0.000000738948     1.007825032230
         H           -0.738666408327     2.205173904038    -0.000034261052     1.007825032230
         H           -0.820116408327    -1.966063095962     0.000006738948     1.007825032230

  Basis Set: AUG-CC-PVTZ
    Blend: AUG-CC-PVTZ
  Basis Set: (AUG-CC-PVTZ AUX)
    Blend: AUG-CC-PVTZ-JKFIT
	 Reference Energy          =    -321.6745444498312168 [Eh]
	 Singles Energy            =      -0.0000000000000000 [Eh]
	 Same-Spin Energy          =      -0.3367436464297190 [Eh]
	 Opposite-Spin Energy      =      -1.0290935615453742 [Eh]
	 Correlation Energy        =      -1.3658372079750933 [Eh]
	 Total Energy              =    -323.0403816578063356 [Eh]

	 ================> DF-SCS-MP2 Energies <==================
	-----------------------------------------------------------
	 SCS Same-Spin Scale       =       0.3333333333333333 [-]
	 SCS Opposite-Spin Scale   =       1.2000000000000000 [-]
	 SCS Same-Spin Energy      =      -0.1122478821432397 [Eh]
	 SCS Opposite-Spin Energy  =      -1.2349122738544491 [Eh]
	 SCS Correlation Energy    =      -1.3471601559976889 [Eh]
	 SCS Total Energy          =    -323.0217046058289156 [Eh]
	-----------------------------------------------------------

  Dipole Moment: [D]
     X:     4.5790      Y:    -1.3197      Z:    -0.0000     Total:     4.7654

*** Psi4 exiting successfully. Buy a developer a beer!
