                               Psi4 1.4a3.dev225

  ==> Input File <==

--------------------------------------------------------------------------
#psi4
#
memory 32 gb

molecule  {
0 1
  O       -2.3004660     0.0048580     0.0000370
  N       -0.3010810    -1.1172490    -0.0000470
  C        1.1208650     1.2009110     0.0000070
  C        1.8075990    -0.0462550     0.0000170
  C        1.0636490    -1.1911890     0.0000110
  C       -1.0552353     0.0455731    -0.0000036
  C       -0.2468310     1.2588000    -0.0000340
  H        1.6947520     2.1250290     0.0000060
  H        2.8897650    -0.0997760     0.0000620
  H        1.4903730    -2.1891750     0.0000000
  H       -0.7785610     2.2046570    -0.0000350
  H       -0.8600110    -1.9665800     0.0000060
units angstrom
no_reorient  #important for SAPT in psi4, default
symmetry c1  #important for SAPT in psi4, default
}

set PROPERTIES_ORIGIN ["COM"]
properties('MP2/aug-cc-pvtz', properties = ['dipole'])
--------------------------------------------------------------------------

    Molecular point group: c1
  Charge       = 0
  Multiplicity = 1
  Basis Set: AUG-CC-PVTZ
    Blend: AUG-CC-PVTZ
  Basis Set: (AUG-CC-PVTZ AUX)
    Blend: AUG-CC-PVTZ-JKFIT

    Orbital Energies [Eh]
    ---------------------

    Doubly Occupied:

       1A    -20.509053     2A    -15.631120     3A    -11.356380
       4A    -11.317520     5A    -11.275850     6A    -11.247858
       7A    -11.244656     8A     -1.368347     9A     -1.276383
      10A     -1.110306    11A     -1.033449    12A     -0.889195
      13A     -0.866503    14A     -0.758310    15A     -0.697062
      16A     -0.679096    17A     -0.641505    18A     -0.610281
      19A     -0.608141    20A     -0.558122    21A     -0.541045
      22A     -0.482017    23A     -0.427359    24A     -0.424644
      25A     -0.317064

  @DF-RHF Final Energy:  -321.68062416976517

   => Energetics <=

    Nuclear Repulsion Energy =            274.6223582015744000
    One-Electron Energy =                -980.8634335679694232
    Two-Electron Energy =                 384.5604511966299128
    Total Energy =                       -321.6806241697651672
  Basis Set: (AUG-CC-PVTZ AUX)
    Blend: AUG-CC-PVTZ-RI
    Molecular point group: c1

    Geometry (in Angstrom), charge = 0, multiplicity = 1:

       Center              X                  Y                   Z               Mass
    ------------   -----------------  -----------------  -----------------  -----------------
         O           -2.255639048943     0.007787388918     0.000037612681    15.994914619570
         N           -0.256254048943    -1.114319611082    -0.000046387319    14.003074004430
         C            1.165691951057     1.203840388918     0.000007612681    12.000000000000
         C            1.852425951057    -0.043325611082     0.000017612681    12.000000000000
         C            1.108475951057    -1.188259611082     0.000011612681    12.000000000000
         C           -1.010408348943     0.048502488918    -0.000002987319    12.000000000000
         C           -0.202004048943     1.261729388918    -0.000033387319    12.000000000000
         H            1.739578951057     2.127958388918     0.000006612681     1.007825032230
         H            2.934591951057    -0.096846611082     0.000062612681     1.007825032230
         H            1.535199951057    -2.186245611082     0.000000612681     1.007825032230
         H           -0.733734048943     2.207586388918    -0.000034387319     1.007825032230
         H           -0.815184048943    -1.963650611082     0.000006612681     1.007825032230

  Basis Set: AUG-CC-PVTZ
    Blend: AUG-CC-PVTZ
  Basis Set: (AUG-CC-PVTZ AUX)
    Blend: AUG-CC-PVTZ-JKFIT
	 Reference Energy          =    -321.6806241697651672 [Eh]
	 Singles Energy            =      -0.0000000000000000 [Eh]
	 Same-Spin Energy          =      -0.3356424432545977 [Eh]
	 Opposite-Spin Energy      =      -1.0275828142587973 [Eh]
	 Correlation Energy        =      -1.3632252575133950 [Eh]
	 Total Energy              =    -323.0438494272785874 [Eh]

	 ================> DF-SCS-MP2 Energies <==================
	-----------------------------------------------------------
	 SCS Same-Spin Scale       =       0.3333333333333333 [-]
	 SCS Opposite-Spin Scale   =       1.2000000000000000 [-]
	 SCS Same-Spin Energy      =      -0.1118808144181992 [Eh]
	 SCS Opposite-Spin Energy  =      -1.2330993771105567 [Eh]
	 SCS Correlation Energy    =      -1.3449801915287560 [Eh]
	 SCS Total Energy          =    -323.0256043612939152 [Eh]
	-----------------------------------------------------------

  Dipole Moment: [D]
     X:     4.2024      Y:    -1.3393      Z:     0.0000     Total:     4.4107

*** Psi4 exiting successfully. Buy a developer a beer!
