                               Psi4 1.3.2 release

  ==> Input File <==

--------------------------------------------------------------------------
#psi4
#
memory 32 gb

molecule  {
0 1
  O       -2.3004000     0.0048630     0.0003410
  N       -0.3010450    -1.1173380    -0.0002690
  C        1.1207170     1.2010130     0.0000540
  C        1.8075300    -0.0461910     0.0000640
  C        1.0639000    -1.1911280     0.0001230
  C       -1.0661860     0.0622010    -0.0003390
  C       -0.2468550     1.2588270    -0.0001630
  H        1.6948200     2.1249460     0.0001000
  H        2.8897160    -0.0994500     0.0003790
  H        1.4903610    -2.1891700     0.0001730
  H       -0.7789320     2.2044920     0.0000230
  H       -0.8051065    -1.8831541     0.0000168
units angstrom
no_reorient  #important for SAPT in psi4, default
symmetry c1  #important for SAPT in psi4, default
}

set PROPERTIES_ORIGIN ["COM"]
properties('MP2/aug-cc-pvtz', properties = ['dipole'])
--------------------------------------------------------------------------

    Molecular point group: c1
  Charge       = 0
  Multiplicity = 1
  Basis Set: AUG-CC-PVTZ
    Blend: AUG-CC-PVTZ
  Basis Set: (AUG-CC-PVTZ AUX)
    Blend: AUG-CC-PVTZ-JKFIT

    Orbital Energies [Eh]
    ---------------------

    Doubly Occupied:

       1A    -20.513126     2A    -15.619376     3A    -11.357726
       4A    -11.317591     5A    -11.277269     6A    -11.246828
       7A    -11.243540     8A     -1.375980     9A     -1.283738
      10A     -1.114787    11A     -1.033774    12A     -0.898856
      13A     -0.865980    14A     -0.771073    15A     -0.698718
      16A     -0.683662    17A     -0.642889    18A     -0.614111
      19A     -0.607344    20A     -0.562461    21A     -0.542174
      22A     -0.486765    23A     -0.427762    24A     -0.427585
      25A     -0.317414

  @DF-RHF Final Energy:  -321.67507908340656

   => Energetics <=

    Nuclear Repulsion Energy =            275.1696835479176002
    One-Electron Energy =                -981.8284668129892907
    Two-Electron Energy =                 384.9837041816650753
    Total Energy =                       -321.6750790834065583
  Basis Set: (AUG-CC-PVTZ AUX)
    Blend: AUG-CC-PVTZ-RI
    Molecular point group: c1

    Geometry (in Angstrom), charge = 0, multiplicity = 1:

       Center              X                  Y                   Z               Mass
    ------------   -----------------  -----------------  -----------------  -----------------
         O           -2.254786394753     0.004787469582     0.000348863745    15.994914619570
         N           -0.255431394753    -1.117413530418    -0.000261136255    14.003074004430
         C            1.166330605247     1.200937469582     0.000061863745    12.000000000000
         C            1.853143605247    -0.046266530418     0.000071863745    12.000000000000
         C            1.109513605247    -1.191203530418     0.000130863745    12.000000000000
         C           -1.020572394753     0.062125469582    -0.000331136255    12.000000000000
         C           -0.201241394753     1.258751469582    -0.000155136255    12.000000000000
         H            1.740433605247     2.124870469582     0.000107863745     1.007825032230
         H            2.935329605247    -0.099525530418     0.000386863745     1.007825032230
         H            1.535974605247    -2.189245530418     0.000180863745     1.007825032230
         H           -0.733318394753     2.204416469582     0.000030863745     1.007825032230
         H           -0.759492894753    -1.883229630418     0.000024663745     1.007825032230

  Basis Set: AUG-CC-PVTZ
    Blend: AUG-CC-PVTZ
  Basis Set: (AUG-CC-PVTZ AUX)
    Blend: AUG-CC-PVTZ-JKFIT
	 Reference Energy          =    -321.6750790834065583 [Eh]
	 Singles Energy            =      -0.0000000000000000 [Eh]
	 Same-Spin Energy          =      -0.3348056009172616 [Eh]
	 Opposite-Spin Energy      =      -1.0258026753650415 [Eh]
	 Correlation Energy        =      -1.3606082762823031 [Eh]
	 Total Energy              =    -323.0356873596888363 [Eh]

	 ================> DF-SCS-MP2 Energies <==================
	-----------------------------------------------------------
	 SCS Same-Spin Scale       =       0.3333333333333333 [-]
	 SCS Opposite-Spin Scale   =       1.2000000000000000 [-]
	 SCS Same-Spin Energy      =      -0.1116018669724205 [Eh]
	 SCS Opposite-Spin Energy  =      -1.2309632104380499 [Eh]
	 SCS Correlation Energy    =      -1.3425650774104705 [Eh]
	 SCS Total Energy          =    -323.0176441608170421 [Eh]
	-----------------------------------------------------------

  Dipole Moment: [D]
     X:     4.1463      Y:    -1.1899      Z:    -0.0002     Total:     4.3137

*** Psi4 exiting successfully. Buy a developer a beer!
