                               Psi4 1.3.2 release

  ==> Input File <==

--------------------------------------------------------------------------
#psi4
#
memory 32 gb

molecule  {
0 1
  O       -2.3004000     0.0048630     0.0003410
  N       -0.3010450    -1.1173380    -0.0002690
  C        1.1207170     1.2010130     0.0000540
  C        1.8075300    -0.0461910     0.0000640
  C        1.0639000    -1.1911280     0.0001230
  C       -1.0661860     0.0622010    -0.0003390
  C       -0.3033510     1.1763151    -0.0001751
  H        1.6948200     2.1249460     0.0001000
  H        2.8897160    -0.0994500     0.0003790
  H        1.4903610    -2.1891700     0.0001730
  H       -0.7789320     2.2044920     0.0000230
  H       -0.8600860    -1.9666840     0.0000480
units angstrom
no_reorient  #important for SAPT in psi4, default
symmetry c1  #important for SAPT in psi4, default
}

set PROPERTIES_ORIGIN ["COM"]
properties('MP2/aug-cc-pvtz', properties = ['dipole'])
--------------------------------------------------------------------------

    Molecular point group: c1
  Charge       = 0
  Multiplicity = 1
  Basis Set: AUG-CC-PVTZ
    Blend: AUG-CC-PVTZ
  Basis Set: (AUG-CC-PVTZ AUX)
    Blend: AUG-CC-PVTZ-JKFIT

    Orbital Energies [Eh]
    ---------------------

    Doubly Occupied:

       1A    -20.499262     2A    -15.631838     3A    -11.342438
       4A    -11.322541     5A    -11.290862     6A    -11.249251
       7A    -11.240499     8A     -1.368846     9A     -1.274831
      10A     -1.107228    11A     -1.041336    12A     -0.903865
      13A     -0.858800    14A     -0.757375    15A     -0.699430
      16A     -0.684363    17A     -0.632432    18A     -0.610914
      19A     -0.609033    20A     -0.565216    21A     -0.523684
      22A     -0.484982    23A     -0.423788    24A     -0.419983
      25A     -0.316170

  @DF-RHF Final Energy:  -321.66506928267069

   => Energetics <=

    Nuclear Repulsion Energy =            275.6629897207600948
    One-Electron Energy =                -982.9381883398660875
    Two-Electron Energy =                 385.6101293364353637
    Total Energy =                       -321.6650692826706859
  Basis Set: (AUG-CC-PVTZ AUX)
    Blend: AUG-CC-PVTZ-RI
    Molecular point group: c1

    Geometry (in Angstrom), charge = 0, multiplicity = 1:

       Center              X                  Y                   Z               Mass
    ------------   -----------------  -----------------  -----------------  -----------------
         O           -2.247069812387     0.016091751471     0.000350060708    15.994914619570
         N           -0.247714812387    -1.106109248529    -0.000259939292    14.003074004430
         C            1.174047187613     1.212241751471     0.000063060708    12.000000000000
         C            1.860860187613    -0.034962248529     0.000073060708    12.000000000000
         C            1.117230187613    -1.179899248529     0.000132060708    12.000000000000
         C           -1.012855812387     0.073429751471    -0.000329939292    12.000000000000
         C           -0.250020812387     1.187543851471    -0.000166039292    12.000000000000
         H            1.748150187613     2.136174751471     0.000109060708     1.007825032230
         H            2.943046187613    -0.088221248529     0.000388060708     1.007825032230
         H            1.543691187613    -2.177941248529     0.000182060708     1.007825032230
         H           -0.725601812387     2.215720751471     0.000032060708     1.007825032230
         H           -0.806755812387    -1.955455248529     0.000057060708     1.007825032230

  Basis Set: AUG-CC-PVTZ
    Blend: AUG-CC-PVTZ
  Basis Set: (AUG-CC-PVTZ AUX)
    Blend: AUG-CC-PVTZ-JKFIT
	 Reference Energy          =    -321.6650692826706859 [Eh]
	 Singles Energy            =      -0.0000000000000000 [Eh]
	 Same-Spin Energy          =      -0.3378896118199032 [Eh]
	 Opposite-Spin Energy      =      -1.0295951516745678 [Eh]
	 Correlation Energy        =      -1.3674847634944711 [Eh]
	 Total Energy              =    -323.0325540461651599 [Eh]

	 ================> DF-SCS-MP2 Energies <==================
	-----------------------------------------------------------
	 SCS Same-Spin Scale       =       0.3333333333333333 [-]
	 SCS Opposite-Spin Scale   =       1.2000000000000000 [-]
	 SCS Same-Spin Energy      =      -0.1126298706066344 [Eh]
	 SCS Opposite-Spin Energy  =      -1.2355141820094813 [Eh]
	 SCS Correlation Energy    =      -1.3481440526161157 [Eh]
	 SCS Total Energy          =    -323.0132133352868209 [Eh]
	-----------------------------------------------------------

  Dipole Moment: [D]
     X:     4.4222      Y:    -1.3037      Z:    -0.0002     Total:     4.6104

*** Psi4 exiting successfully. Buy a developer a beer!
