                               Psi4 1.3.2 release

  ==> Input File <==

--------------------------------------------------------------------------
#psi4
#
memory 32 gb

molecule  {
0 1
  O       -2.3012127     0.0264117     0.0003531
  N       -0.3010450    -1.1173380    -0.0002690
  C        1.1207170     1.2010130     0.0000540
  C        1.8075300    -0.0461910     0.0000640
  C        1.0639000    -1.1911280     0.0001230
  C       -1.0661860     0.0622010    -0.0003390
  C       -0.2468550     1.2588270    -0.0001630
  H        1.6948200     2.1249460     0.0001000
  H        2.8897160    -0.0994500     0.0003790
  H        1.4903610    -2.1891700     0.0001730
  H       -0.7789320     2.2044920     0.0000230
  H       -0.8600860    -1.9666840     0.0000480
units angstrom
no_reorient  #important for SAPT in psi4, default
symmetry c1  #important for SAPT in psi4, default
}

set PROPERTIES_ORIGIN ["COM"]
properties('MP2/aug-cc-pvtz', properties = ['dipole'])
--------------------------------------------------------------------------

    Molecular point group: c1
  Charge       = 0
  Multiplicity = 1
  Basis Set: AUG-CC-PVTZ
    Blend: AUG-CC-PVTZ
  Basis Set: (AUG-CC-PVTZ AUX)
    Blend: AUG-CC-PVTZ-JKFIT

    Orbital Energies [Eh]
    ---------------------

    Doubly Occupied:

       1A    -20.512302     2A    -15.629455     3A    -11.357079
       4A    -11.317092     5A    -11.275915     6A    -11.246189
       7A    -11.242586     8A     -1.372083     9A     -1.275478
      10A     -1.108970    11A     -1.032505    12A     -0.888792
      13A     -0.862981    14A     -0.756581    15A     -0.696185
      16A     -0.679126    17A     -0.639898    18A     -0.613133
      19A     -0.605891    20A     -0.560191    21A     -0.540020
      22A     -0.486074    23A     -0.426767    24A     -0.426264
      25A     -0.316393

  @DF-RHF Final Energy:  -321.68106762518937

   => Energetics <=

    Nuclear Repulsion Energy =            274.5076510081743209
    One-Electron Energy =                -980.6415357781568218
    Two-Electron Energy =                 384.4528171447931300
    Total Energy =                       -321.6810676251893710
  Basis Set: (AUG-CC-PVTZ AUX)
    Blend: AUG-CC-PVTZ-RI
    Molecular point group: c1

    Geometry (in Angstrom), charge = 0, multiplicity = 1:

       Center              X                  Y                   Z               Mass
    ------------   -----------------  -----------------  -----------------  -----------------
         O           -2.254879283505     0.023595281500     0.000358596432    15.994914619570
         N           -0.254711583505    -1.120154418500    -0.000263503568    14.003074004430
         C            1.167050416495     1.198196581500     0.000059496432    12.000000000000
         C            1.853863416495    -0.049007418500     0.000069496432    12.000000000000
         C            1.110233416495    -1.193944418500     0.000128496432    12.000000000000
         C           -1.019852583505     0.059384581500    -0.000333503568    12.000000000000
         C           -0.200521583505     1.256010581500    -0.000157503568    12.000000000000
         H            1.741153416495     2.122129581500     0.000105496432     1.007825032230
         H            2.936049416495    -0.102266418500     0.000384496432     1.007825032230
         H            1.536694416495    -2.191986418500     0.000178496432     1.007825032230
         H           -0.732598583505     2.201675581500     0.000028496432     1.007825032230
         H           -0.813752583505    -1.969500418500     0.000053496432     1.007825032230

  Basis Set: AUG-CC-PVTZ
    Blend: AUG-CC-PVTZ
  Basis Set: (AUG-CC-PVTZ AUX)
    Blend: AUG-CC-PVTZ-JKFIT
	 Reference Energy          =    -321.6810676251893710 [Eh]
	 Singles Energy            =      -0.0000000000000000 [Eh]
	 Same-Spin Energy          =      -0.3356228272113263 [Eh]
	 Opposite-Spin Energy      =      -1.0275036534094721 [Eh]
	 Correlation Energy        =      -1.3631264806207986 [Eh]
	 Total Energy              =    -323.0441941058101634 [Eh]

	 ================> DF-SCS-MP2 Energies <==================
	-----------------------------------------------------------
	 SCS Same-Spin Scale       =       0.3333333333333333 [-]
	 SCS Opposite-Spin Scale   =       1.2000000000000000 [-]
	 SCS Same-Spin Energy      =      -0.1118742757371088 [Eh]
	 SCS Opposite-Spin Energy  =      -1.2330043840913665 [Eh]
	 SCS Correlation Energy    =      -1.3448786598284752 [Eh]
	 SCS Total Energy          =    -323.0259462850178238 [Eh]
	-----------------------------------------------------------

  Dipole Moment: [D]
     X:     4.0797      Y:    -1.3418      Z:    -0.0002     Total:     4.2947

*** Psi4 exiting successfully. Buy a developer a beer!
