                               Psi4 1.3.2 release

  ==> Input File <==

--------------------------------------------------------------------------
#psi4
#
memory 32 gb

molecule  {
0 1
  O       -2.2876454    -0.1238334     0.0003863
  N       -0.3010450    -1.1173380    -0.0002690
  C        1.1207170     1.2010130     0.0000540
  C        1.8075300    -0.0461910     0.0000640
  C        1.0639000    -1.1911280     0.0001230
  C       -1.0661860     0.0622010    -0.0003390
  C       -0.2468550     1.2588270    -0.0001630
  H        1.6948200     2.1249460     0.0001000
  H        2.8897160    -0.0994500     0.0003790
  H        1.4903610    -2.1891700     0.0001730
  H       -0.7789320     2.2044920     0.0000230
  H       -0.8600860    -1.9666840     0.0000480
units angstrom
no_reorient  #important for SAPT in psi4, default
symmetry c1  #important for SAPT in psi4, default
}

set PROPERTIES_ORIGIN ["COM"]
properties('MP2/aug-cc-pvtz', properties = ['dipole'])
--------------------------------------------------------------------------

    Molecular point group: c1
  Charge       = 0
  Multiplicity = 1
  Basis Set: AUG-CC-PVTZ
    Blend: AUG-CC-PVTZ
  Basis Set: (AUG-CC-PVTZ AUX)
    Blend: AUG-CC-PVTZ-JKFIT

    Orbital Energies [Eh]
    ---------------------

    Doubly Occupied:

       1A    -20.509957     2A    -15.624190     3A    -11.357005
       4A    -11.316769     5A    -11.280225     6A    -11.245916
       7A    -11.244993     8A     -1.375005     9A     -1.268999
      10A     -1.109893    11A     -1.032959    12A     -0.890286
      13A     -0.861480    14A     -0.754936    15A     -0.696069
      16A     -0.680335    17A     -0.639839    18A     -0.612365
      19A     -0.604904    20A     -0.560651    21A     -0.541427
      22A     -0.484299    23A     -0.426449    24A     -0.426282
      25A     -0.316694

  @DF-RHF Final Energy:  -321.67848594196124

   => Energetics <=

    Nuclear Repulsion Energy =            274.7953258742967932
    One-Electron Energy =                -981.2237709316138989
    Two-Electron Energy =                 384.7499591153558072
    Total Energy =                       -321.6784859419612417
  Basis Set: (AUG-CC-PVTZ AUX)
    Blend: AUG-CC-PVTZ-RI
    Molecular point group: c1

    Geometry (in Angstrom), charge = 0, multiplicity = 1:

       Center              X                  Y                   Z               Mass
    ------------   -----------------  -----------------  -----------------  -----------------
         O           -2.243595384131    -0.101363301993     0.000386208813    15.994914619570
         N           -0.256994984131    -1.094867901993    -0.000269091187    14.003074004430
         C            1.164767015869     1.223483098007     0.000053908813    12.000000000000
         C            1.851580015869    -0.023720901993     0.000063908813    12.000000000000
         C            1.107950015869    -1.168657901993     0.000122908813    12.000000000000
         C           -1.022135984131     0.084671098007    -0.000339091187    12.000000000000
         C           -0.202804984131     1.281297098007    -0.000163091187    12.000000000000
         H            1.738870015869     2.147416098007     0.000099908813     1.007825032230
         H            2.933766015869    -0.076979901993     0.000378908813     1.007825032230
         H            1.534411015869    -2.166699901993     0.000172908813     1.007825032230
         H           -0.734881984131     2.226962098007     0.000022908813     1.007825032230
         H           -0.816035984131    -1.944213901993     0.000047908813     1.007825032230

  Basis Set: AUG-CC-PVTZ
    Blend: AUG-CC-PVTZ
  Basis Set: (AUG-CC-PVTZ AUX)
    Blend: AUG-CC-PVTZ-JKFIT
	 Reference Energy          =    -321.6784859419612417 [Eh]
	 Singles Energy            =      -0.0000000000000000 [Eh]
	 Same-Spin Energy          =      -0.3358148590852366 [Eh]
	 Opposite-Spin Energy      =      -1.0273527771115383 [Eh]
	 Correlation Energy        =      -1.3631676361967748 [Eh]
	 Total Energy              =    -323.0416535781579910 [Eh]

	 ================> DF-SCS-MP2 Energies <==================
	-----------------------------------------------------------
	 SCS Same-Spin Scale       =       0.3333333333333333 [-]
	 SCS Opposite-Spin Scale   =       1.2000000000000000 [-]
	 SCS Same-Spin Energy      =      -0.1119382863617455 [Eh]
	 SCS Opposite-Spin Energy  =      -1.2328233325338458 [Eh]
	 SCS Correlation Energy    =      -1.3447616188955913 [Eh]
	 SCS Total Energy          =    -323.0232475608568166 [Eh]
	-----------------------------------------------------------

  Dipole Moment: [D]
     X:     4.1117      Y:    -1.0492      Z:    -0.0003     Total:     4.2434

*** Psi4 exiting successfully. Buy a developer a beer!
