                               Psi4 1.4a3.dev225

  ==> Input File <==

--------------------------------------------------------------------------
#psi4
#
memory 32 gb

molecule  {
0 1
  O       -2.3004660     0.0048580     0.0000370
  N       -0.3010810    -1.1172490    -0.0000470
  C        1.1208650     1.2009110     0.0000070
  C        1.8075990    -0.0462550     0.0000170
  C        1.0436783    -1.1901070     0.0000102
  C       -1.0661180     0.0623530    -0.0000030
  C       -0.2468310     1.2588000    -0.0000340
  H        1.6947520     2.1250290     0.0000060
  H        2.8897650    -0.0997760     0.0000620
  H        1.4903730    -2.1891750     0.0000000
  H       -0.7785610     2.2046570    -0.0000350
  H       -0.8600110    -1.9665800     0.0000060
units angstrom
no_reorient  #important for SAPT in psi4, default
symmetry c1  #important for SAPT in psi4, default
}

set PROPERTIES_ORIGIN ["COM"]
properties('MP2/aug-cc-pvtz', properties = ['dipole'])
--------------------------------------------------------------------------

    Molecular point group: c1
  Charge       = 0
  Multiplicity = 1
  Basis Set: AUG-CC-PVTZ
    Blend: AUG-CC-PVTZ
  Basis Set: (AUG-CC-PVTZ AUX)
    Blend: AUG-CC-PVTZ-JKFIT

    Orbital Energies [Eh]
    ---------------------

    Doubly Occupied:

       1A    -20.512102     2A    -15.631338     3A    -11.357327
       4A    -11.318534     5A    -11.276043     6A    -11.245571
       7A    -11.241541     8A     -1.373917     9A     -1.281074
      10A     -1.108772    11A     -1.030788    12A     -0.888806
      13A     -0.865304    14A     -0.759714    15A     -0.697266
      16A     -0.677166    17A     -0.640329    18A     -0.611605
      19A     -0.608930    20A     -0.561247    21A     -0.537869
      22A     -0.486907    23A     -0.427058    24A     -0.427029
      25A     -0.313830

  @DF-RHF Final Energy:  -321.68069541244751

   => Energetics <=

    Nuclear Repulsion Energy =            274.7740408028020056
    One-Electron Energy =                -981.1493354453706388
    Two-Electron Energy =                 384.6945992301211277
    Total Energy =                       -321.6806954124475055
  Basis Set: (AUG-CC-PVTZ AUX)
    Blend: AUG-CC-PVTZ-RI
    Molecular point group: c1

    Geometry (in Angstrom), charge = 0, multiplicity = 1:

       Center              X                  Y                   Z               Mass
    ------------   -----------------  -----------------  -----------------  -----------------
         O           -2.251743299322     0.005532030022     0.000037637935    15.994914619570
         N           -0.252358299322    -1.116574969978    -0.000046362065    14.003074004430
         C            1.169587700678     1.201585030022     0.000007637935    12.000000000000
         C            1.856321700678    -0.045580969978     0.000017637935    12.000000000000
         C            1.092401000678    -1.189432969978     0.000010837935    12.000000000000
         C           -1.017395299322     0.063027030022    -0.000002362065    12.000000000000
         C           -0.198108299322     1.259474030022    -0.000033362065    12.000000000000
         H            1.743474700678     2.125703030022     0.000006637935     1.007825032230
         H            2.938487700678    -0.099101969978     0.000062637935     1.007825032230
         H            1.539095700678    -2.188500969978     0.000000637935     1.007825032230
         H           -0.729838299322     2.205331030022    -0.000034362065     1.007825032230
         H           -0.811288299322    -1.965905969978     0.000006637935     1.007825032230

  Basis Set: AUG-CC-PVTZ
    Blend: AUG-CC-PVTZ
  Basis Set: (AUG-CC-PVTZ AUX)
    Blend: AUG-CC-PVTZ-JKFIT
	 Reference Energy          =    -321.6806954124475055 [Eh]
	 Singles Energy            =      -0.0000000000000000 [Eh]
	 Same-Spin Energy          =      -0.3358895349976480 [Eh]
	 Opposite-Spin Energy      =      -1.0273838910501099 [Eh]
	 Correlation Energy        =      -1.3632734260477579 [Eh]
	 Total Energy              =    -323.0439688384952888 [Eh]

	 ================> DF-SCS-MP2 Energies <==================
	-----------------------------------------------------------
	 SCS Same-Spin Scale       =       0.3333333333333333 [-]
	 SCS Opposite-Spin Scale   =       1.2000000000000000 [-]
	 SCS Same-Spin Energy      =      -0.1119631783325493 [Eh]
	 SCS Opposite-Spin Energy  =      -1.2328606692601318 [Eh]
	 SCS Correlation Energy    =      -1.3448238475926813 [Eh]
	 SCS Total Energy          =    -323.0255192600401983 [Eh]
	-----------------------------------------------------------

  Dipole Moment: [D]
     X:     4.0499      Y:    -1.3457      Z:     0.0000     Total:     4.2676

*** Psi4 exiting successfully. Buy a developer a beer!
