                               Psi4 1.4a3.dev225

  ==> Input File <==

--------------------------------------------------------------------------
#psi4
#
memory 32 gb

molecule  {
0 1
  O       -2.3004660     0.0048580     0.0000370
  N       -0.3010810    -1.1172490    -0.0000470
  C        1.1208650     1.2009110     0.0000070
  C        1.8075990    -0.0462550     0.0000170
  C        1.0636490    -1.1911890     0.0000110
  C       -1.1160638     0.0600266    -0.0000014
  C       -0.2468310     1.2588000    -0.0000340
  H        1.6947520     2.1250290     0.0000060
  H        2.8897650    -0.0997760     0.0000620
  H        1.4903730    -2.1891750     0.0000000
  H       -0.7785610     2.2046570    -0.0000350
  H       -0.8600110    -1.9665800     0.0000060
units angstrom
no_reorient  #important for SAPT in psi4, default
symmetry c1  #important for SAPT in psi4, default
}

set PROPERTIES_ORIGIN ["COM"]
properties('MP2/aug-cc-pvtz', properties = ['dipole'])
--------------------------------------------------------------------------

    Molecular point group: c1
  Charge       = 0
  Multiplicity = 1
  Basis Set: AUG-CC-PVTZ
    Blend: AUG-CC-PVTZ
  Basis Set: (AUG-CC-PVTZ AUX)
    Blend: AUG-CC-PVTZ-JKFIT

    Orbital Energies [Eh]
    ---------------------

    Doubly Occupied:

       1A    -20.524591     2A    -15.621417     3A    -11.358863
       4A    -11.313166     5A    -11.272318     6A    -11.241334
       7A    -11.240692     8A     -1.405096     9A     -1.273126
      10A     -1.102560    11A     -1.025698    12A     -0.882236
      13A     -0.855608    14A     -0.750322    15A     -0.693537
      16A     -0.679748    17A     -0.636822    18A     -0.623334
      19A     -0.607313    20A     -0.563257    21A     -0.539604
      22A     -0.501154    23A     -0.431258    24A     -0.421880
      25A     -0.313248

  @DF-RHF Final Energy:  -321.67988755869663

   => Energetics <=

    Nuclear Repulsion Energy =            274.4217514869273487
    One-Electron Energy =                -980.4469170525823074
    Two-Electron Energy =                 384.3452780069583810
    Total Energy =                       -321.6798875586966346
  Basis Set: (AUG-CC-PVTZ AUX)
    Blend: AUG-CC-PVTZ-RI
    Molecular point group: c1

    Geometry (in Angstrom), charge = 0, multiplicity = 1:

       Center              X                  Y                   Z               Mass
    ------------   -----------------  -----------------  -----------------  -----------------
         O           -2.247958449534     0.005962396627     0.000037334895    15.994914619570
         N           -0.248573449534    -1.116144603373    -0.000046665105    14.003074004430
         C            1.173372550466     1.202015396627     0.000007334895    12.000000000000
         C            1.860106550466    -0.045150603373     0.000017334895    12.000000000000
         C            1.116156550466    -1.190084603373     0.000011334895    12.000000000000
         C           -1.063556249534     0.061130996627    -0.000001065105    12.000000000000
         C           -0.194323449534     1.259904396627    -0.000033665105    12.000000000000
         H            1.747259550466     2.126133396627     0.000006334895     1.007825032230
         H            2.942272550466    -0.098671603373     0.000062334895     1.007825032230
         H            1.542880550466    -2.188070603373     0.000000334895     1.007825032230
         H           -0.726053449534     2.205761396627    -0.000034665105     1.007825032230
         H           -0.807503449534    -1.965475603373     0.000006334895     1.007825032230

  Basis Set: AUG-CC-PVTZ
    Blend: AUG-CC-PVTZ
  Basis Set: (AUG-CC-PVTZ AUX)
    Blend: AUG-CC-PVTZ-JKFIT
	 Reference Energy          =    -321.6798875586966346 [Eh]
	 Singles Energy            =      -0.0000000000000000 [Eh]
	 Same-Spin Energy          =      -0.3345590942037819 [Eh]
	 Opposite-Spin Energy      =      -1.0258290765398665 [Eh]
	 Correlation Energy        =      -1.3603881707436485 [Eh]
	 Total Energy              =    -323.0402757294402818 [Eh]

	 ================> DF-SCS-MP2 Energies <==================
	-----------------------------------------------------------
	 SCS Same-Spin Scale       =       0.3333333333333333 [-]
	 SCS Opposite-Spin Scale   =       1.2000000000000000 [-]
	 SCS Same-Spin Energy      =      -0.1115196980679273 [Eh]
	 SCS Opposite-Spin Energy  =      -1.2309948918478397 [Eh]
	 SCS Correlation Energy    =      -1.3425145899157671 [Eh]
	 SCS Total Energy          =    -323.0224021486124002 [Eh]
	-----------------------------------------------------------

  Dipole Moment: [D]
     X:     3.5621      Y:    -1.2773      Z:     0.0000     Total:     3.7842

*** Psi4 exiting successfully. Buy a developer a beer!
