                               Psi4 1.4a3.dev225

  ==> Input File <==

--------------------------------------------------------------------------
#psi4
#
memory 32 gb

molecule  {
0 1
  O       -2.3004660     0.0048580     0.0000370
  N       -0.3010810    -1.1172490    -0.0000470
  C        1.1208650     1.2009110     0.0000070
  C        1.8075990    -0.0462550     0.0000170
  C        1.0636490    -1.1911890     0.0000110
  C       -1.0661180     0.0623530    -0.0000030
  C       -0.2468310     1.2588000    -0.0000340
  H        1.6947520     2.1250290     0.0000060
  H        2.8897650    -0.0997760     0.0000620
  H        1.4903730    -2.1891750     0.0000000
  H       -0.7785610     2.2046570    -0.0000350
  H       -0.8490165    -1.9498731     0.0000050
units angstrom
no_reorient  #important for SAPT in psi4, default
symmetry c1  #important for SAPT in psi4, default
}

set PROPERTIES_ORIGIN ["COM"]
properties('MP2/aug-cc-pvtz', properties = ['dipole'])
--------------------------------------------------------------------------

    Molecular point group: c1
  Charge       = 0
  Multiplicity = 1
  Basis Set: AUG-CC-PVTZ
    Blend: AUG-CC-PVTZ
  Basis Set: (AUG-CC-PVTZ AUX)
    Blend: AUG-CC-PVTZ-JKFIT

    Orbital Energies [Eh]
    ---------------------

    Doubly Occupied:

       1A    -20.512185     2A    -15.627038     3A    -11.357173
       4A    -11.317234     5A    -11.276746     6A    -11.246217
       7A    -11.243159     8A     -1.372942     9A     -1.276269
      10A     -1.110167    11A     -1.032842    12A     -0.890696
      13A     -0.863509    14A     -0.759320    15A     -0.696699
      16A     -0.680261    17A     -0.640621    18A     -0.613266
      19A     -0.606071    20A     -0.560684    21A     -0.540701
      22A     -0.485974    23A     -0.427003    24A     -0.426589
      25A     -0.316638

  @DF-RHF Final Energy:  -321.68161926060583

   => Energetics <=

    Nuclear Repulsion Energy =            274.6541207481677134
    One-Electron Energy =                -980.9114739377924934
    Two-Electron Energy =                 384.5757339290190089
    Total Energy =                       -321.6816192606058280
  Basis Set: (AUG-CC-PVTZ AUX)
    Blend: AUG-CC-PVTZ-RI
    Molecular point group: c1

    Geometry (in Angstrom), charge = 0, multiplicity = 1:

       Center              X                  Y                   Z               Mass
    ------------   -----------------  -----------------  -----------------  -----------------
         O           -2.254381520564     0.005491481315     0.000037547526    15.994914619570
         N           -0.254996520564    -1.116615518685    -0.000046452474    14.003074004430
         C            1.166949479436     1.201544481315     0.000007547526    12.000000000000
         C            1.853683479436    -0.045621518685     0.000017547526    12.000000000000
         C            1.109733479436    -1.190555518685     0.000011547526    12.000000000000
         C           -1.020033520564     0.062986481315    -0.000002452474    12.000000000000
         C           -0.200746520564     1.259433481315    -0.000033452474    12.000000000000
         H            1.740836479436     2.125662481315     0.000006547526     1.007825032230
         H            2.935849479436    -0.099142518685     0.000062547526     1.007825032230
         H            1.536457479436    -2.188541518685     0.000000547526     1.007825032230
         H           -0.732476520564     2.205290481315    -0.000034452474     1.007825032230
         H           -0.802932020564    -1.949239618685     0.000005547526     1.007825032230

  Basis Set: AUG-CC-PVTZ
    Blend: AUG-CC-PVTZ
  Basis Set: (AUG-CC-PVTZ AUX)
    Blend: AUG-CC-PVTZ-JKFIT
	 Reference Energy          =    -321.6816192606058280 [Eh]
	 Singles Energy            =      -0.0000000000000000 [Eh]
	 Same-Spin Energy          =      -0.3354695705541029 [Eh]
	 Opposite-Spin Energy      =      -1.0270940058900613 [Eh]
	 Correlation Energy        =      -1.3625635764441641 [Eh]
	 Total Energy              =    -323.0441828370500161 [Eh]

	 ================> DF-SCS-MP2 Energies <==================
	-----------------------------------------------------------
	 SCS Same-Spin Scale       =       0.3333333333333333 [-]
	 SCS Opposite-Spin Scale   =       1.2000000000000000 [-]
	 SCS Same-Spin Energy      =      -0.1118231901847010 [Eh]
	 SCS Opposite-Spin Energy  =      -1.2325128070680735 [Eh]
	 SCS Correlation Energy    =      -1.3443359972527744 [Eh]
	 SCS Total Energy          =    -323.0259552578585840 [Eh]
	-----------------------------------------------------------

  Dipole Moment: [D]
     X:     4.1011      Y:    -1.2783      Z:     0.0000     Total:     4.2957

*** Psi4 exiting successfully. Buy a developer a beer!
