                               Psi4 1.3.2 release

  ==> Input File <==

--------------------------------------------------------------------------
#psi4
#
memory 32 gb

molecule  {
0 1
  O       -2.3004000     0.0048630     0.0003410
  N       -0.2858545    -0.9750666    -0.0002540
  C        1.1207170     1.2010130     0.0000540
  C        1.8075300    -0.0461910     0.0000640
  C        1.0639000    -1.1911280     0.0001230
  C       -1.0661860     0.0622010    -0.0003390
  C       -0.2468550     1.2588270    -0.0001630
  H        1.6948200     2.1249460     0.0001000
  H        2.8897160    -0.0994500     0.0003790
  H        1.4903610    -2.1891700     0.0001730
  H       -0.7789320     2.2044920     0.0000230
  H       -0.8600860    -1.9666840     0.0000480
units angstrom
no_reorient  #important for SAPT in psi4, default
symmetry c1  #important for SAPT in psi4, default
}

set PROPERTIES_ORIGIN ["COM"]
properties('MP2/aug-cc-pvtz', properties = ['dipole'])
--------------------------------------------------------------------------

    Molecular point group: c1
  Charge       = 0
  Multiplicity = 1
  Basis Set: AUG-CC-PVTZ
    Blend: AUG-CC-PVTZ
  Basis Set: (AUG-CC-PVTZ AUX)
    Blend: AUG-CC-PVTZ-JKFIT

    Orbital Energies [Eh]
    ---------------------

    Doubly Occupied:

       1A    -20.499480     2A    -15.638453     3A    -11.343543
       4A    -11.317568     5A    -11.272135     6A    -11.250984
       7A    -11.243607     8A     -1.378989     9A     -1.282820
      10A     -1.105201    11A     -1.049344    12A     -0.890130
      13A     -0.869209    14A     -0.750541    15A     -0.701908
      16A     -0.667596    17A     -0.629511    18A     -0.624510
      19A     -0.613271    20A     -0.553694    21A     -0.528973
      22A     -0.480784    23A     -0.422349    24A     -0.421413
      25A     -0.321448

  @DF-RHF Final Energy:  -321.65168319487003

   => Energetics <=

    Nuclear Repulsion Energy =            277.0974955667744553
    One-Electron Energy =                -985.7834314659971824
    Two-Electron Energy =                 387.0342527043526957
    Total Energy =                       -321.6516831948700315
  Basis Set: (AUG-CC-PVTZ AUX)
    Blend: AUG-CC-PVTZ-RI
    Molecular point group: c1

    Geometry (in Angstrom), charge = 0, multiplicity = 1:

       Center              X                  Y                   Z               Mass
    ------------   -----------------  -----------------  -----------------  -----------------
         O           -2.256441579481    -0.015289459764     0.000346322735    15.994914619570
         N           -0.241896079481    -0.995219059764    -0.000248677265    14.003074004430
         C            1.164675420519     1.180860540236     0.000059322735    12.000000000000
         C            1.851488420519    -0.066343459764     0.000069322735    12.000000000000
         C            1.107858420519    -1.211280459764     0.000128322735    12.000000000000
         C           -1.022227579481     0.042048540236    -0.000333677265    12.000000000000
         C           -0.202896579481     1.238674540236    -0.000157677265    12.000000000000
         H            1.738778420519     2.104793540236     0.000105322735     1.007825032230
         H            2.933674420519    -0.119602459764     0.000384322735     1.007825032230
         H            1.534319420519    -2.209322459764     0.000178322735     1.007825032230
         H           -0.734973579481     2.184339540236     0.000028322735     1.007825032230
         H           -0.816127579481    -1.986836459764     0.000053322735     1.007825032230

  Basis Set: AUG-CC-PVTZ
    Blend: AUG-CC-PVTZ
  Basis Set: (AUG-CC-PVTZ AUX)
    Blend: AUG-CC-PVTZ-JKFIT
	 Reference Energy          =    -321.6516831948700315 [Eh]
	 Singles Energy            =      -0.0000000000000000 [Eh]
	 Same-Spin Energy          =      -0.3375722262151476 [Eh]
	 Opposite-Spin Energy      =      -1.0303470521134186 [Eh]
	 Correlation Energy        =      -1.3679192783285661 [Eh]
	 Total Energy              =    -323.0196024731985744 [Eh]

	 ================> DF-SCS-MP2 Energies <==================
	-----------------------------------------------------------
	 SCS Same-Spin Scale       =       0.3333333333333333 [-]
	 SCS Opposite-Spin Scale   =       1.2000000000000000 [-]
	 SCS Same-Spin Energy      =      -0.1125240754050492 [Eh]
	 SCS Opposite-Spin Energy  =      -1.2364164625361023 [Eh]
	 SCS Correlation Energy    =      -1.3489405379411514 [Eh]
	 SCS Total Energy          =    -323.0006237328111638 [Eh]
	-----------------------------------------------------------

  Dipole Moment: [D]
     X:     4.5039      Y:    -1.5355      Z:    -0.0003     Total:     4.7585

*** Psi4 exiting successfully. Buy a developer a beer!
