                               Psi4 1.4a3.dev225

  ==> Input File <==

--------------------------------------------------------------------------
#psi4
#
memory 32 gb

molecule  {
0 1
  O       -2.3004660     0.0048580     0.0000370
  N       -0.3010810    -1.1172490    -0.0000470
  C        1.1208650     1.2009110     0.0000070
  C        1.8075990    -0.0462550     0.0000170
  C        1.1135758    -1.1938940     0.0000131
  C       -1.0661180     0.0623530    -0.0000030
  C       -0.2468310     1.2588000    -0.0000340
  H        1.6947520     2.1250290     0.0000060
  H        2.8897650    -0.0997760     0.0000620
  H        1.4903730    -2.1891750     0.0000000
  H       -0.7785610     2.2046570    -0.0000350
  H       -0.8600110    -1.9665800     0.0000060
units angstrom
no_reorient  #important for SAPT in psi4, default
symmetry c1  #important for SAPT in psi4, default
}

set PROPERTIES_ORIGIN ["COM"]
properties('MP2/aug-cc-pvtz', properties = ['dipole'])
--------------------------------------------------------------------------

    Molecular point group: c1
  Charge       = 0
  Multiplicity = 1
  Basis Set: AUG-CC-PVTZ
    Blend: AUG-CC-PVTZ
  Basis Set: (AUG-CC-PVTZ AUX)
    Blend: AUG-CC-PVTZ-JKFIT

    Orbital Energies [Eh]
    ---------------------

    Doubly Occupied:

       1A    -20.511643     2A    -15.622418     3A    -11.356250
       4A    -11.313975     5A    -11.277915     6A    -11.247286
       7A    -11.246682     8A     -1.369156     9A     -1.259781
      10A     -1.109940    11A     -1.037338    12A     -0.890232
      13A     -0.857200    14A     -0.748941    15A     -0.693867
      16A     -0.684646    17A     -0.638314    18A     -0.615991
      19A     -0.598819    20A     -0.557089    21A     -0.545292
      22A     -0.483837    23A     -0.426187    24A     -0.423915
      25A     -0.322940

  @DF-RHF Final Energy:  -321.67822924173862

   => Energetics <=

    Nuclear Repulsion Energy =            273.9616902302761332
    One-Electron Energy =                -979.6005330911563078
    Two-Electron Energy =                 383.9606136191416113
    Total Energy =                       -321.6782292417386202
  Basis Set: (AUG-CC-PVTZ AUX)
    Blend: AUG-CC-PVTZ-RI
    Molecular point group: c1

    Geometry (in Angstrom), charge = 0, multiplicity = 1:

       Center              X                  Y                   Z               Mass
    ------------   -----------------  -----------------  -----------------  -----------------
         O           -2.260569009264     0.006010201109     0.000037271762    15.994914619570
         N           -0.261184009264    -1.116096798891    -0.000046728238    14.003074004430
         C            1.160761990736     1.202063201109     0.000007271762    12.000000000000
         C            1.847495990736    -0.045102798891     0.000017271762    12.000000000000
         C            1.153472790736    -1.192741798891     0.000013371762    12.000000000000
         C           -1.026221009264     0.063505201109    -0.000002728238    12.000000000000
         C           -0.206934009264     1.259952201109    -0.000033728238    12.000000000000
         H            1.734648990736     2.126181201109     0.000006271762     1.007825032230
         H            2.929661990736    -0.098623798891     0.000062271762     1.007825032230
         H            1.530269990736    -2.188022798891     0.000000271762     1.007825032230
         H           -0.738664009264     2.205809201109    -0.000034728238     1.007825032230
         H           -0.820114009264    -1.965427798891     0.000006271762     1.007825032230

  Basis Set: AUG-CC-PVTZ
    Blend: AUG-CC-PVTZ
  Basis Set: (AUG-CC-PVTZ AUX)
    Blend: AUG-CC-PVTZ-JKFIT
	 Reference Energy          =    -321.6782292417386202 [Eh]
	 Singles Energy            =      -0.0000000000000000 [Eh]
	 Same-Spin Energy          =      -0.3350657890724065 [Eh]
	 Opposite-Spin Energy      =      -1.0277392497845557 [Eh]
	 Correlation Energy        =      -1.3628050388569621 [Eh]
	 Total Energy              =    -323.0410342805955679 [Eh]

	 ================> DF-SCS-MP2 Energies <==================
	-----------------------------------------------------------
	 SCS Same-Spin Scale       =       0.3333333333333333 [-]
	 SCS Opposite-Spin Scale   =       1.2000000000000000 [-]
	 SCS Same-Spin Energy      =      -0.1116885963574688 [Eh]
	 SCS Opposite-Spin Energy  =      -1.2332870997414667 [Eh]
	 SCS Correlation Energy    =      -1.3449756960989354 [Eh]
	 SCS Total Energy          =    -323.0232049378375336 [Eh]
	-----------------------------------------------------------

  Dipole Moment: [D]
     X:     4.1909      Y:    -1.1955      Z:     0.0000     Total:     4.3581

*** Psi4 exiting successfully. Buy a developer a beer!
