                               Psi4 1.4a3.dev225

  ==> Input File <==

--------------------------------------------------------------------------
#psi4
#
memory 32 gb

molecule  {
0 1
  O       -2.3004660     0.0048580     0.0000370
  N       -0.3010810    -1.1172490    -0.0000470
  C        1.1208650     1.2009110     0.0000070
  C        1.8075990    -0.0462550     0.0000170
  C        1.0636490    -1.1911890     0.0000110
  C       -1.0661180     0.0623530    -0.0000030
  C       -0.2468310     1.2588000    -0.0000340
  H        1.6947520     2.1250290     0.0000060
  H        2.8897650    -0.0997760     0.0000620
  H        1.4903730    -2.1891750     0.0000000
  H       -0.7785610     2.2046570    -0.0000350
  H       -0.8874973    -2.0083472     0.0000086
units angstrom
no_reorient  #important for SAPT in psi4, default
symmetry c1  #important for SAPT in psi4, default
}

set PROPERTIES_ORIGIN ["COM"]
properties('MP2/aug-cc-pvtz', properties = ['dipole'])
--------------------------------------------------------------------------

    Molecular point group: c1
  Charge       = 0
  Multiplicity = 1
  Basis Set: AUG-CC-PVTZ
    Blend: AUG-CC-PVTZ
  Basis Set: (AUG-CC-PVTZ AUX)
    Blend: AUG-CC-PVTZ-JKFIT

    Orbital Energies [Eh]
    ---------------------

    Doubly Occupied:

       1A    -20.511421     2A    -15.632821     3A    -11.356729
       4A    -11.316910     5A    -11.276278     6A    -11.245693
       7A    -11.242870     8A     -1.370914     9A     -1.271070
      10A     -1.106806    11A     -1.032107    12A     -0.885536
      13A     -0.861175    14A     -0.749603    15A     -0.695023
      16A     -0.676524    17A     -0.637924    18A     -0.612491
      19A     -0.605000    20A     -0.559024    21A     -0.539131
      22A     -0.485319    23A     -0.426493    24A     -0.425626
      25A     -0.316016

  @DF-RHF Final Energy:  -321.67734269994821

   => Energetics <=

    Nuclear Repulsion Energy =            274.2473639604543223
    One-Electron Energy =                -980.1724012333987730
    Two-Electron Energy =                 384.2476945729962381
    Total Energy =                       -321.6773426999482126
  Basis Set: (AUG-CC-PVTZ AUX)
    Blend: AUG-CC-PVTZ-RI
    Molecular point group: c1

    Geometry (in Angstrom), charge = 0, multiplicity = 1:

       Center              X                  Y                   Z               Mass
    ------------   -----------------  -----------------  -----------------  -----------------
         O           -2.253973449317     0.006111572345     0.000037509350    15.994914619570
         N           -0.254588449317    -1.115995427655    -0.000046490650    14.003074004430
         C            1.167357550683     1.202164572345     0.000007509350    12.000000000000
         C            1.854091550683    -0.045001427655     0.000017509350    12.000000000000
         C            1.110141550683    -1.189935427655     0.000011509350    12.000000000000
         C           -1.019625449317     0.063606572345    -0.000002490650    12.000000000000
         C           -0.200338449317     1.260053572345    -0.000033490650    12.000000000000
         H            1.741244550683     2.126282572345     0.000006509350     1.007825032230
         H            2.936257550683    -0.098522427655     0.000062509350     1.007825032230
         H            1.536865550683    -2.187921427655     0.000000509350     1.007825032230
         H           -0.732068449317     2.205910572345    -0.000034490650     1.007825032230
         H           -0.841004749317    -2.007093627655     0.000009109350     1.007825032230

  Basis Set: AUG-CC-PVTZ
    Blend: AUG-CC-PVTZ
  Basis Set: (AUG-CC-PVTZ AUX)
    Blend: AUG-CC-PVTZ-JKFIT
	 Reference Energy          =    -321.6773426999482126 [Eh]
	 Singles Energy            =      -0.0000000000000000 [Eh]
	 Same-Spin Energy          =      -0.3360925669705372 [Eh]
	 Opposite-Spin Energy      =      -1.0284405165876880 [Eh]
	 Correlation Energy        =      -1.3645330835582252 [Eh]
	 Total Energy              =    -323.0418757835064412 [Eh]

	 ================> DF-SCS-MP2 Energies <==================
	-----------------------------------------------------------
	 SCS Same-Spin Scale       =       0.3333333333333333 [-]
	 SCS Opposite-Spin Scale   =       1.2000000000000000 [-]
	 SCS Same-Spin Energy      =      -0.1120308556568457 [Eh]
	 SCS Opposite-Spin Energy  =      -1.2341286199052255 [Eh]
	 SCS Correlation Energy    =      -1.3461594755620712 [Eh]
	 SCS Total Energy          =    -323.0235021755102593 [Eh]
	-----------------------------------------------------------

  Dipole Moment: [D]
     X:     4.0594      Y:    -1.3542      Z:     0.0000     Total:     4.2793

*** Psi4 exiting successfully. Buy a developer a beer!
