                               Psi4 1.4a3.dev225

  ==> Input File <==

--------------------------------------------------------------------------
#psi4
#
memory 32 gb

molecule  {
0 1
  O       -2.3004660     0.0048580     0.0000370
  N       -0.3010810    -1.1172490    -0.0000470
  C        1.1208650     1.2009110     0.0000070
  C        1.8075990    -0.0462550     0.0000170
  C        1.0137222    -1.1884840     0.0000089
  C       -1.0661180     0.0623530    -0.0000030
  C       -0.2468310     1.2588000    -0.0000340
  H        1.6947520     2.1250290     0.0000060
  H        2.8897650    -0.0997760     0.0000620
  H        1.4903730    -2.1891750     0.0000000
  H       -0.7785610     2.2046570    -0.0000350
  H       -0.8600110    -1.9665800     0.0000060
units angstrom
no_reorient  #important for SAPT in psi4, default
symmetry c1  #important for SAPT in psi4, default
}

set PROPERTIES_ORIGIN ["COM"]
properties('MP2/aug-cc-pvtz', properties = ['dipole'])
--------------------------------------------------------------------------

    Molecular point group: c1
  Charge       = 0
  Multiplicity = 1
  Basis Set: AUG-CC-PVTZ
    Blend: AUG-CC-PVTZ
  Basis Set: (AUG-CC-PVTZ AUX)
    Blend: AUG-CC-PVTZ-JKFIT

    Orbital Energies [Eh]
    ---------------------

    Doubly Occupied:

       1A    -20.512333     2A    -15.635197     3A    -11.357730
       4A    -11.320709     5A    -11.275142     6A    -11.244817
       7A    -11.239156     8A     -1.376848     9A     -1.291050
      10A     -1.108158    11A     -1.028114    12A     -0.888857
      13A     -0.869037    14A     -0.764814    15A     -0.698776
      16A     -0.674223    17A     -0.640701    18A     -0.614180
      19A     -0.609196    20A     -0.562465    21A     -0.533919
      22A     -0.488934    23A     -0.427861    24A     -0.427284
      25A     -0.309876

  @DF-RHF Final Energy:  -321.67802403886861

   => Energetics <=

    Nuclear Repulsion Energy =            275.1474445070063553
    One-Electron Energy =                -981.8521811988173340
    Two-Electron Energy =                 385.0267126529423081
    Total Energy =                       -321.6780240388686138
  Basis Set: (AUG-CC-PVTZ AUX)
    Blend: AUG-CC-PVTZ-RI
    Molecular point group: c1

    Geometry (in Angstrom), charge = 0, multiplicity = 1:

       Center              X                  Y                   Z               Mass
    ------------   -----------------  -----------------  -----------------  -----------------
         O           -2.247960848597     0.005327099556     0.000037802081    15.994914619570
         N           -0.248575848597    -1.116779900444    -0.000046197919    14.003074004430
         C            1.173370151403     1.201380099556     0.000007802081    12.000000000000
         C            1.860104151403    -0.045785900444     0.000017802081    12.000000000000
         C            1.066227351403    -1.188014900444     0.000009702081    12.000000000000
         C           -1.013612848597     0.062822099556    -0.000002197919    12.000000000000
         C           -0.194325848597     1.259269099556    -0.000033197919    12.000000000000
         H            1.747257151403     2.125498099556     0.000006802081     1.007825032230
         H            2.942270151403    -0.099306900444     0.000062802081     1.007825032230
         H            1.542878151403    -2.188705900444     0.000000802081     1.007825032230
         H           -0.726055848597     2.205126099556    -0.000034197919     1.007825032230
         H           -0.807505848597    -1.966110900444     0.000006802081     1.007825032230

  Basis Set: AUG-CC-PVTZ
    Blend: AUG-CC-PVTZ
  Basis Set: (AUG-CC-PVTZ AUX)
    Blend: AUG-CC-PVTZ-JKFIT
	 Reference Energy          =    -321.6780240388686138 [Eh]
	 Singles Energy            =      -0.0000000000000000 [Eh]
	 Same-Spin Energy          =      -0.3362615840897591 [Eh]
	 Opposite-Spin Energy      =      -1.0273027171989526 [Eh]
	 Correlation Energy        =      -1.3635643012887118 [Eh]
	 Total Energy              =    -323.0415883401573183 [Eh]

	 ================> DF-SCS-MP2 Energies <==================
	-----------------------------------------------------------
	 SCS Same-Spin Scale       =       0.3333333333333333 [-]
	 SCS Opposite-Spin Scale   =       1.2000000000000000 [-]
	 SCS Same-Spin Energy      =      -0.1120871946965864 [Eh]
	 SCS Opposite-Spin Energy  =      -1.2327632606387431 [Eh]
	 SCS Correlation Energy    =      -1.3448504553353295 [Eh]
	 SCS Total Energy          =    -323.0228744942039611 [Eh]
	-----------------------------------------------------------

  Dipole Moment: [D]
     X:     3.9921      Y:    -1.4183      Z:     0.0000     Total:     4.2366

*** Psi4 exiting successfully. Buy a developer a beer!
