                               Psi4 1.3.2 release

  ==> Input File <==

--------------------------------------------------------------------------
#psi4
#
memory 32 gb

molecule  {
0 1
  O       -2.3004000     0.0048630     0.0003410
  N       -0.3012808    -1.2604178    -0.0002797
  C        1.1207170     1.2010130     0.0000540
  C        1.8075300    -0.0461910     0.0000640
  C        1.0639000    -1.1911280     0.0001230
  C       -1.0661860     0.0622010    -0.0003390
  C       -0.2468550     1.2588270    -0.0001630
  H        1.6948200     2.1249460     0.0001000
  H        2.8897160    -0.0994500     0.0003790
  H        1.4903610    -2.1891700     0.0001730
  H       -0.7789320     2.2044920     0.0000230
  H       -0.8600860    -1.9666840     0.0000480
units angstrom
no_reorient  #important for SAPT in psi4, default
symmetry c1  #important for SAPT in psi4, default
}

set PROPERTIES_ORIGIN ["COM"]
properties('MP2/aug-cc-pvtz', properties = ['dipole'])
--------------------------------------------------------------------------

    Molecular point group: c1
  Charge       = 0
  Multiplicity = 1
  Basis Set: AUG-CC-PVTZ
    Blend: AUG-CC-PVTZ
  Basis Set: (AUG-CC-PVTZ AUX)
    Blend: AUG-CC-PVTZ-JKFIT

    Orbital Energies [Eh]
    ---------------------

    Doubly Occupied:

       1A    -20.525203     2A    -15.617341     3A    -11.370067
       4A    -11.319799     5A    -11.281142     6A    -11.244216
       7A    -11.243275     8A     -1.371999     9A     -1.269851
      10A     -1.116000    11A     -1.024468    12A     -0.903375
      13A     -0.844098    14A     -0.775478    15A     -0.692636
      16A     -0.680374    17A     -0.643519    18A     -0.611426
      19A     -0.591280    20A     -0.570349    21A     -0.538413
      22A     -0.493048    23A     -0.429574    24A     -0.427553
      25A     -0.313816

  @DF-RHF Final Energy:  -321.65338541817107

   => Energetics <=

    Nuclear Repulsion Energy =            272.1654357100461539
    One-Electron Energy =                -975.8410384272490319
    Two-Electron Energy =                 382.0222172990318086
    Total Energy =                       -321.6533854181710694
  Basis Set: (AUG-CC-PVTZ AUX)
    Blend: AUG-CC-PVTZ-RI
    Molecular point group: c1

    Geometry (in Angstrom), charge = 0, multiplicity = 1:

       Center              X                  Y                   Z               Mass
    ------------   -----------------  -----------------  -----------------  -----------------
         O           -2.254168618824     0.026755103793     0.000350109456    15.994914619570
         N           -0.255049418824    -1.238525696207    -0.000270590544    14.003074004430
         C            1.166948381176     1.222905103793     0.000063109456    12.000000000000
         C            1.853761381176    -0.024298896207     0.000073109456    12.000000000000
         C            1.110131381176    -1.169235896207     0.000132109456    12.000000000000
         C           -1.019954618824     0.084093103793    -0.000329890544    12.000000000000
         C           -0.200623618824     1.280719103793    -0.000153890544    12.000000000000
         H            1.741051381176     2.146838103793     0.000109109456     1.007825032230
         H            2.935947381176    -0.077557896207     0.000388109456     1.007825032230
         H            1.536592381176    -2.167277896207     0.000182109456     1.007825032230
         H           -0.732700618824     2.226384103793     0.000032109456     1.007825032230
         H           -0.813854618824    -1.944791896207     0.000057109456     1.007825032230

  Basis Set: AUG-CC-PVTZ
    Blend: AUG-CC-PVTZ
  Basis Set: (AUG-CC-PVTZ AUX)
    Blend: AUG-CC-PVTZ-JKFIT
	 Reference Energy          =    -321.6533854181710694 [Eh]
	 Singles Energy            =      -0.0000000000000000 [Eh]
	 Same-Spin Energy          =      -0.3350977822145150 [Eh]
	 Opposite-Spin Energy      =      -1.0283282116305941 [Eh]
	 Correlation Energy        =      -1.3634259938451092 [Eh]
	 Total Energy              =    -323.0168114120161817 [Eh]

	 ================> DF-SCS-MP2 Energies <==================
	-----------------------------------------------------------
	 SCS Same-Spin Scale       =       0.3333333333333333 [-]
	 SCS Opposite-Spin Scale   =       1.2000000000000000 [-]
	 SCS Same-Spin Energy      =      -0.1116992607381717 [Eh]
	 SCS Opposite-Spin Energy  =      -1.2339938539567128 [Eh]
	 SCS Correlation Energy    =      -1.3456931146948845 [Eh]
	 SCS Total Energy          =    -322.9990785328659513 [Eh]
	-----------------------------------------------------------

  Dipole Moment: [D]
     X:     3.6951      Y:    -0.9748      Z:    -0.0000     Total:     3.8215

*** Psi4 exiting successfully. Buy a developer a beer!
