                               Psi4 1.3.2 release

  ==> Input File <==

--------------------------------------------------------------------------
#psi4
#
memory 32 gb

molecule  {
0 1
  O       -2.3004000     0.0048630     0.0003410
  N       -0.3028674    -1.2127315    -0.0002766
  C        1.1207170     1.2010130     0.0000540
  C        1.8075300    -0.0461910     0.0000640
  C        1.0639000    -1.1911280     0.0001230
  C       -1.0661860     0.0622010    -0.0003390
  C       -0.2468550     1.2588270    -0.0001630
  H        1.6948200     2.1249460     0.0001000
  H        2.8897160    -0.0994500     0.0003790
  H        1.4903610    -2.1891700     0.0001730
  H       -0.7789320     2.2044920     0.0000230
  H       -0.8600860    -1.9666840     0.0000480
units angstrom
no_reorient  #important for SAPT in psi4, default
symmetry c1  #important for SAPT in psi4, default
}

set PROPERTIES_ORIGIN ["COM"]
properties('MP2/aug-cc-pvtz', properties = ['dipole'])
--------------------------------------------------------------------------

    Molecular point group: c1
  Charge       = 0
  Multiplicity = 1
  Basis Set: AUG-CC-PVTZ
    Blend: AUG-CC-PVTZ
  Basis Set: (AUG-CC-PVTZ AUX)
    Blend: AUG-CC-PVTZ-JKFIT

    Orbital Energies [Eh]
    ---------------------

    Doubly Occupied:

       1A    -20.520800     2A    -15.621264     3A    -11.365910
       4A    -11.318550     5A    -11.279631     6A    -11.243951
       7A    -11.243686     8A     -1.371635     9A     -1.270897
      10A     -1.113533    11A     -1.026143    12A     -0.897813
      13A     -0.850071    14A     -0.769049    15A     -0.690443
      16A     -0.684041    17A     -0.642822    18A     -0.612249
      19A     -0.595607    20A     -0.567192    21A     -0.539579
      22A     -0.490480    23A     -0.428565    24A     -0.428085
      25A     -0.314470

  @DF-RHF Final Energy:  -321.66925633371534

   => Energetics <=

    Nuclear Repulsion Energy =            272.9293937267870547
    One-Electron Energy =                -977.4243654054303079
    Two-Electron Energy =                 382.8257153449278576
    Total Energy =                       -321.6692563337153388
  Basis Set: (AUG-CC-PVTZ AUX)
    Blend: AUG-CC-PVTZ-RI
    Molecular point group: c1

    Geometry (in Angstrom), charge = 0, multiplicity = 1:

       Center              X                  Y                   Z               Mass
    ------------   -----------------  -----------------  -----------------  -----------------
         O           -2.253934844078     0.019728850982     0.000349652692    15.994914619570
         N           -0.256402244078    -1.197865649018    -0.000267947308    14.003074004430
         C            1.167182155922     1.215878850982     0.000062652692    12.000000000000
         C            1.853995155922    -0.031325149018     0.000072652692    12.000000000000
         C            1.110365155922    -1.176262149018     0.000131652692    12.000000000000
         C           -1.019720844078     0.077066850982    -0.000330347308    12.000000000000
         C           -0.200389844078     1.273692850982    -0.000154347308    12.000000000000
         H            1.741285155922     2.139811850982     0.000108652692     1.007825032230
         H            2.936181155922    -0.084584149018     0.000387652692     1.007825032230
         H            1.536826155922    -2.174304149018     0.000181652692     1.007825032230
         H           -0.732466844078     2.219357850982     0.000031652692     1.007825032230
         H           -0.813620844078    -1.951818149018     0.000056652692     1.007825032230

  Basis Set: AUG-CC-PVTZ
    Blend: AUG-CC-PVTZ
  Basis Set: (AUG-CC-PVTZ AUX)
    Blend: AUG-CC-PVTZ-JKFIT
	 Reference Energy          =    -321.6692563337153388 [Eh]
	 Singles Energy            =      -0.0000000000000000 [Eh]
	 Same-Spin Energy          =      -0.3350954081724862 [Eh]
	 Opposite-Spin Energy      =      -1.0275849136238517 [Eh]
	 Correlation Energy        =      -1.3626803217963379 [Eh]
	 Total Energy              =    -323.0319366555116858 [Eh]

	 ================> DF-SCS-MP2 Energies <==================
	-----------------------------------------------------------
	 SCS Same-Spin Scale       =       0.3333333333333333 [-]
	 SCS Opposite-Spin Scale   =       1.2000000000000000 [-]
	 SCS Same-Spin Energy      =      -0.1116984693908287 [Eh]
	 SCS Opposite-Spin Energy  =      -1.2331018963486220 [Eh]
	 SCS Correlation Energy    =      -1.3448003657394507 [Eh]
	 SCS Total Energy          =    -323.0140566994547839 [Eh]
	-----------------------------------------------------------

  Dipole Moment: [D]
     X:     3.8229      Y:    -1.0902      Z:    -0.0001     Total:     3.9753

*** Psi4 exiting successfully. Buy a developer a beer!
