                               Psi4 1.3.2 release

  ==> Input File <==

--------------------------------------------------------------------------
#psi4
#
memory 32 gb

molecule  {
0 1
  O       -2.3004000     0.0048630     0.0003410
  N       -0.3010450    -1.1173380    -0.0002690
  C        1.1207170     1.2010130     0.0000540
  C        1.8075300    -0.0461910     0.0000640
  C        1.0639000    -1.1911280     0.0001230
  C       -1.0661860     0.0622010    -0.0003390
  C       -0.2468550     1.2588270    -0.0001630
  H        1.6948200     2.1249460     0.0001000
  H        2.8897160    -0.0994500     0.0003790
  H        1.4903610    -2.1891700     0.0001730
  H       -0.7789320     2.2044920     0.0000230
  H       -0.9150655    -2.0502139     0.0000792
units angstrom
no_reorient  #important for SAPT in psi4, default
symmetry c1  #important for SAPT in psi4, default
}

set PROPERTIES_ORIGIN ["COM"]
properties('MP2/aug-cc-pvtz', properties = ['dipole'])
--------------------------------------------------------------------------

    Molecular point group: c1
  Charge       = 0
  Multiplicity = 1
  Basis Set: AUG-CC-PVTZ
    Blend: AUG-CC-PVTZ
  Basis Set: (AUG-CC-PVTZ AUX)
    Blend: AUG-CC-PVTZ-JKFIT

    Orbital Energies [Eh]
    ---------------------

    Doubly Occupied:

       1A    -20.510932     2A    -15.636379     3A    -11.356435
       4A    -11.316650     5A    -11.275924     6A    -11.245320
       7A    -11.242697     8A     -1.369764     9A     -1.267941
      10A     -1.104745    11A     -1.031624    12A     -0.882740
      13A     -0.859477    14A     -0.743390    15A     -0.693920
      16A     -0.673537    17A     -0.635458    18A     -0.611917
      19A     -0.604249    20A     -0.557790    21A     -0.537782
      22A     -0.484892    23A     -0.426132    24A     -0.424969
      25A     -0.315622

  @DF-RHF Final Energy:  -321.67055695037766

   => Energetics <=

    Nuclear Repulsion Energy =            273.9780495296339495
    One-Electron Energy =                -979.6766445148566618
    Two-Electron Energy =                 384.0280380348450535
    Total Energy =                       -321.6705569503776587
  Basis Set: (AUG-CC-PVTZ AUX)
    Blend: AUG-CC-PVTZ-RI
    Molecular point group: c1

    Geometry (in Angstrom), charge = 0, multiplicity = 1:

       Center              X                  Y                   Z               Mass
    ------------   -----------------  -----------------  -----------------  -----------------
         O           -2.253620329957     0.006559062191     0.000348202022    15.994914619570
         N           -0.254265329957    -1.115641937809    -0.000261797978    14.003074004430
         C            1.167496670043     1.202709062191     0.000061202022    12.000000000000
         C            1.854309670043    -0.044494937809     0.000071202022    12.000000000000
         C            1.110679670043    -1.189431937809     0.000130202022    12.000000000000
         C           -1.019406329957     0.063897062191    -0.000331797978    12.000000000000
         C           -0.200075329957     1.260523062191    -0.000155797978    12.000000000000
         H            1.741599670043     2.126642062191     0.000107202022     1.007825032230
         H            2.936495670043    -0.097753937809     0.000386202022     1.007825032230
         H            1.537140670043    -2.187473937809     0.000180202022     1.007825032230
         H           -0.732152329957     2.206188062191     0.000030202022     1.007825032230
         H           -0.868285829957    -2.048517837809     0.000086402022     1.007825032230

  Basis Set: AUG-CC-PVTZ
    Blend: AUG-CC-PVTZ
  Basis Set: (AUG-CC-PVTZ AUX)
    Blend: AUG-CC-PVTZ-JKFIT
	 Reference Energy          =    -321.6705569503776587 [Eh]
	 Singles Energy            =      -0.0000000000000000 [Eh]
	 Same-Spin Energy          =      -0.3365464015148427 [Eh]
	 Opposite-Spin Energy      =      -1.0295015811561399 [Eh]
	 Correlation Energy        =      -1.3660479826709826 [Eh]
	 Total Energy              =    -323.0366049330486362 [Eh]

	 ================> DF-SCS-MP2 Energies <==================
	-----------------------------------------------------------
	 SCS Same-Spin Scale       =       0.3333333333333333 [-]
	 SCS Opposite-Spin Scale   =       1.2000000000000000 [-]
	 SCS Same-Spin Energy      =      -0.1121821338382809 [Eh]
	 SCS Opposite-Spin Energy  =      -1.2354018973873677 [Eh]
	 SCS Correlation Energy    =      -1.3475840312256486 [Eh]
	 SCS Total Energy          =    -323.0181409816033238 [Eh]
	-----------------------------------------------------------

  Dipole Moment: [D]
     X:     4.0280      Y:    -1.4066      Z:    -0.0001     Total:     4.2665

*** Psi4 exiting successfully. Buy a developer a beer!
