                               Psi4 1.3.2 release

  ==> Input File <==

--------------------------------------------------------------------------
#psi4
#
memory 32 gb

molecule  {
0 1
  O       -2.3004000     0.0048630     0.0003410
  N       -0.3010450    -1.1173380    -0.0002690
  C        1.1207170     1.2010130     0.0000540
  C        1.8075300    -0.0461910     0.0000640
  C        1.0639000    -1.1911280     0.0001230
  C       -1.0661860     0.0622010    -0.0003390
  C       -0.2468550     1.2588270    -0.0001630
  H        1.6948200     2.1249460     0.0001000
  H        2.8897160    -0.0994500     0.0003790
  H        1.4903610    -2.1891700     0.0001730
  H       -0.7789320     2.2044920     0.0000230
  H       -0.9700451    -2.1337439     0.0001104
units angstrom
no_reorient  #important for SAPT in psi4, default
symmetry c1  #important for SAPT in psi4, default
}

set PROPERTIES_ORIGIN ["COM"]
properties('MP2/aug-cc-pvtz', properties = ['dipole'])
--------------------------------------------------------------------------

    Molecular point group: c1
  Charge       = 0
  Multiplicity = 1
  Basis Set: AUG-CC-PVTZ
    Blend: AUG-CC-PVTZ
  Basis Set: (AUG-CC-PVTZ AUX)
    Blend: AUG-CC-PVTZ-JKFIT

    Orbital Energies [Eh]
    ---------------------

    Doubly Occupied:

       1A    -20.509935     2A    -15.642323     3A    -11.355907
       4A    -11.316244     5A    -11.275324     6A    -11.244651
       7A    -11.242391     8A     -1.367714     9A     -1.263050
      10A     -1.101363    11A     -1.030765    12A     -0.878775
      13A     -0.856409    14A     -0.733555    15A     -0.692089
      16A     -0.667450    17A     -0.629243    18A     -0.610365
      19A     -0.602889    20A     -0.555160    21A     -0.534260
      22A     -0.484003    23A     -0.425357    24A     -0.423766
      25A     -0.314822

  @DF-RHF Final Energy:  -321.65119330986312

   => Energetics <=

    Nuclear Repulsion Energy =            273.4847838132241691
    One-Electron Energy =                -978.7563353361783811
    Two-Electron Energy =                 383.6203582130911514
    Total Energy =                       -321.6511933098631175
  Basis Set: (AUG-CC-PVTZ AUX)
    Blend: AUG-CC-PVTZ-RI
    Molecular point group: c1

    Geometry (in Angstrom), charge = 0, multiplicity = 1:

       Center              X                  Y                   Z               Mass
    ------------   -----------------  -----------------  -----------------  -----------------
         O           -2.253037296498     0.007444859555     0.000347871160    15.994914619570
         N           -0.253682296498    -1.114756140445    -0.000262128840    14.003074004430
         C            1.168079703502     1.203594859555     0.000060871160    12.000000000000
         C            1.854892703502    -0.043609140445     0.000070871160    12.000000000000
         C            1.111262703502    -1.188546140445     0.000129871160    12.000000000000
         C           -1.018823296498     0.064782859555    -0.000332128840    12.000000000000
         C           -0.199492296498     1.261408859555    -0.000156128840    12.000000000000
         H            1.742182703502     2.127527859555     0.000106871160     1.007825032230
         H            2.937078703502    -0.096868140445     0.000385871160     1.007825032230
         H            1.537723703502    -2.186588140445     0.000179871160     1.007825032230
         H           -0.731569296498     2.207073859555     0.000029871160     1.007825032230
         H           -0.922682396498    -2.131162040445     0.000117271160     1.007825032230

  Basis Set: AUG-CC-PVTZ
    Blend: AUG-CC-PVTZ
  Basis Set: (AUG-CC-PVTZ AUX)
    Blend: AUG-CC-PVTZ-JKFIT
	 Reference Energy          =    -321.6511933098631175 [Eh]
	 Singles Energy            =      -0.0000000000000000 [Eh]
	 Same-Spin Energy          =      -0.3375120225596207 [Eh]
	 Opposite-Spin Energy      =      -1.0318770207659660 [Eh]
	 Correlation Energy        =      -1.3693890433255866 [Eh]
	 Total Energy              =    -323.0205823531887290 [Eh]

	 ================> DF-SCS-MP2 Energies <==================
	-----------------------------------------------------------
	 SCS Same-Spin Scale       =       0.3333333333333333 [-]
	 SCS Opposite-Spin Scale   =       1.2000000000000000 [-]
	 SCS Same-Spin Energy      =      -0.1125040075198736 [Eh]
	 SCS Opposite-Spin Energy  =      -1.2382524249191591 [Eh]
	 SCS Correlation Energy    =      -1.3507564324390327 [Eh]
	 SCS Total Energy          =    -323.0019497423021448 [Eh]
	-----------------------------------------------------------

  Dipole Moment: [D]
     X:     3.9683      Y:    -1.5076      Z:    -0.0001     Total:     4.2451

*** Psi4 exiting successfully. Buy a developer a beer!
