                               Psi4 1.3.2 release

  ==> Input File <==

--------------------------------------------------------------------------
#psi4
#
memory 32 gb

molecule  {
0 1
  O       -2.2996323     0.1341876     0.0002883
  N       -0.3010450    -1.1173380    -0.0002690
  C        1.1207170     1.2010130     0.0000540
  C        1.8075300    -0.0461910     0.0000640
  C        1.0639000    -1.1911280     0.0001230
  C       -1.0661860     0.0622010    -0.0003390
  C       -0.2468550     1.2588270    -0.0001630
  H        1.6948200     2.1249460     0.0001000
  H        2.8897160    -0.0994500     0.0003790
  H        1.4903610    -2.1891700     0.0001730
  H       -0.7789320     2.2044920     0.0000230
  H       -0.8600860    -1.9666840     0.0000480
units angstrom
no_reorient  #important for SAPT in psi4, default
symmetry c1  #important for SAPT in psi4, default
}

set PROPERTIES_ORIGIN ["COM"]
properties('MP2/aug-cc-pvtz', properties = ['dipole'])
--------------------------------------------------------------------------

    Molecular point group: c1
  Charge       = 0
  Multiplicity = 1
  Basis Set: AUG-CC-PVTZ
    Blend: AUG-CC-PVTZ
  Basis Set: (AUG-CC-PVTZ AUX)
    Blend: AUG-CC-PVTZ-JKFIT

    Orbital Energies [Eh]
    ---------------------

    Doubly Occupied:

       1A    -20.513653     2A    -15.632952     3A    -11.357408
       4A    -11.316842     5A    -11.272377     6A    -11.246745
       7A    -11.240011     8A     -1.371124     9A     -1.279560
      10A     -1.107961    11A     -1.031675    12A     -0.887571
      13A     -0.863674    14A     -0.757402    15A     -0.696223
      16A     -0.678263    17A     -0.639876    18A     -0.612929
      19A     -0.606743    20A     -0.559969    21A     -0.538463
      22A     -0.487401    23A     -0.425928    24A     -0.425508
      25A     -0.315660

  @DF-RHF Final Energy:  -321.67815601916891

   => Energetics <=

    Nuclear Repulsion Energy =            274.4508990701836524
    One-Electron Energy =                -980.5262736673981863
    Two-Electron Energy =                 384.3972185780455675
    Total Energy =                       -321.6781560191689096
  Basis Set: (AUG-CC-PVTZ AUX)
    Blend: AUG-CC-PVTZ-RI
    Molecular point group: c1

    Geometry (in Angstrom), charge = 0, multiplicity = 1:

       Center              X                  Y                   Z               Mass
    ------------   -----------------  -----------------  -----------------  -----------------
         O           -2.253564867625     0.113232306592     0.000304702387    15.994914619570
         N           -0.254977567625    -1.138293293408    -0.000252597613    14.003074004430
         C            1.166784432375     1.180057706592     0.000070402387    12.000000000000
         C            1.853597432375    -0.067146293408     0.000080402387    12.000000000000
         C            1.109967432375    -1.212083293408     0.000139402387    12.000000000000
         C           -1.020118567625     0.041245706592    -0.000322597613    12.000000000000
         C           -0.200787567625     1.237871706592    -0.000146597613    12.000000000000
         H            1.740887432375     2.103990706592     0.000116402387     1.007825032230
         H            2.935783432375    -0.120405293408     0.000395402387     1.007825032230
         H            1.536428432375    -2.210125293408     0.000189402387     1.007825032230
         H           -0.732864567625     2.183536706592     0.000039402387     1.007825032230
         H           -0.814018567625    -1.987639293408     0.000064402387     1.007825032230

  Basis Set: AUG-CC-PVTZ
    Blend: AUG-CC-PVTZ
  Basis Set: (AUG-CC-PVTZ AUX)
    Blend: AUG-CC-PVTZ-JKFIT
	 Reference Energy          =    -321.6781560191689096 [Eh]
	 Singles Energy            =      -0.0000000000000000 [Eh]
	 Same-Spin Energy          =      -0.3356570547330008 [Eh]
	 Opposite-Spin Energy      =      -1.0279250271159783 [Eh]
	 Correlation Energy        =      -1.3635820818489792 [Eh]
	 Total Energy              =    -323.0417381010178701 [Eh]

	 ================> DF-SCS-MP2 Energies <==================
	-----------------------------------------------------------
	 SCS Same-Spin Scale       =       0.3333333333333333 [-]
	 SCS Opposite-Spin Scale   =       1.2000000000000000 [-]
	 SCS Same-Spin Energy      =      -0.1118856849110003 [Eh]
	 SCS Opposite-Spin Energy  =      -1.2335100325391739 [Eh]
	 SCS Correlation Energy    =      -1.3453957174501743 [Eh]
	 SCS Total Energy          =    -323.0235517366190834 [Eh]
	-----------------------------------------------------------

  Dipole Moment: [D]
     X:     4.0218      Y:    -1.5524      Z:    -0.0001     Total:     4.3110

*** Psi4 exiting successfully. Buy a developer a beer!
