                               Psi4 1.4a3.dev225

  ==> Input File <==

--------------------------------------------------------------------------
#psi4
#
memory 32 gb

molecule  {
0 1
  O       -2.3004660     0.0048580     0.0000370
  N       -0.3010810    -1.1172490    -0.0000470
  C        1.1208650     1.2009110     0.0000070
  C        1.8075990    -0.0462550     0.0000170
  C        1.0636490    -1.1911890     0.0000110
  C       -1.0933248     0.1043029    -0.0000014
  C       -0.2468310     1.2588000    -0.0000340
  H        1.6947520     2.1250290     0.0000060
  H        2.8897650    -0.0997760     0.0000620
  H        1.4903730    -2.1891750     0.0000000
  H       -0.7785610     2.2046570    -0.0000350
  H       -0.8600110    -1.9665800     0.0000060
units angstrom
no_reorient  #important for SAPT in psi4, default
symmetry c1  #important for SAPT in psi4, default
}

set PROPERTIES_ORIGIN ["COM"]
properties('MP2/aug-cc-pvtz', properties = ['dipole'])
--------------------------------------------------------------------------

    Molecular point group: c1
  Charge       = 0
  Multiplicity = 1
  Basis Set: AUG-CC-PVTZ
    Blend: AUG-CC-PVTZ
  Basis Set: (AUG-CC-PVTZ AUX)
    Blend: AUG-CC-PVTZ-JKFIT

    Orbital Energies [Eh]
    ---------------------

    Doubly Occupied:

       1A    -20.519181     2A    -15.622436     3A    -11.358714
       4A    -11.316011     5A    -11.278563     6A    -11.241782
       7A    -11.239455     8A     -1.385827     9A     -1.267816
      10A     -1.106591    11A     -1.030805    12A     -0.889651
      13A     -0.853463    14A     -0.751882    15A     -0.694454
      16A     -0.679872    17A     -0.635872    18A     -0.620361
      19A     -0.601379    20A     -0.564122    21A     -0.538522
      22A     -0.494698    23A     -0.430925    24A     -0.423523
      25A     -0.314953

  @DF-RHF Final Energy:  -321.67885183122644

   => Energetics <=

    Nuclear Repulsion Energy =            274.3305826308381938
    One-Electron Energy =                -980.2971513303200481
    Two-Electron Energy =                 384.2877168682554156
    Total Energy =                       -321.6788518312264387
  Basis Set: (AUG-CC-PVTZ AUX)
    Blend: AUG-CC-PVTZ-RI
    Molecular point group: c1

    Geometry (in Angstrom), charge = 0, multiplicity = 1:

       Center              X                  Y                   Z               Mass
    ------------   -----------------  -----------------  -----------------  -----------------
         O           -2.250829622586     0.000371784930     0.000037334895    15.994914619570
         N           -0.251444622586    -1.121735215070    -0.000046665105    14.003074004430
         C            1.170501377414     1.196424784930     0.000007334895    12.000000000000
         C            1.857235377414    -0.050741215070     0.000017334895    12.000000000000
         C            1.113285377414    -1.195675215070     0.000011334895    12.000000000000
         C           -1.043688422586     0.099816684930    -0.000001065105    12.000000000000
         C           -0.197194622586     1.254313784930    -0.000033665105    12.000000000000
         H            1.744388377414     2.120542784930     0.000006334895     1.007825032230
         H            2.939401377414    -0.104262215070     0.000062334895     1.007825032230
         H            1.540009377414    -2.193661215070     0.000000334895     1.007825032230
         H           -0.728924622586     2.200170784930    -0.000034665105     1.007825032230
         H           -0.810374622586    -1.971066215070     0.000006334895     1.007825032230

  Basis Set: AUG-CC-PVTZ
    Blend: AUG-CC-PVTZ
  Basis Set: (AUG-CC-PVTZ AUX)
    Blend: AUG-CC-PVTZ-JKFIT
	 Reference Energy          =    -321.6788518312264387 [Eh]
	 Singles Energy            =      -0.0000000000000000 [Eh]
	 Same-Spin Energy          =      -0.3357453469681600 [Eh]
	 Opposite-Spin Energy      =      -1.0273235406782719 [Eh]
	 Correlation Energy        =      -1.3630688876464319 [Eh]
	 Total Energy              =    -323.0419207188728592 [Eh]

	 ================> DF-SCS-MP2 Energies <==================
	-----------------------------------------------------------
	 SCS Same-Spin Scale       =       0.3333333333333333 [-]
	 SCS Opposite-Spin Scale   =       1.2000000000000000 [-]
	 SCS Same-Spin Energy      =      -0.1119151156560533 [Eh]
	 SCS Opposite-Spin Energy  =      -1.2327882488139263 [Eh]
	 SCS Correlation Energy    =      -1.3447033644699797 [Eh]
	 SCS Total Energy          =    -323.0235551956964173 [Eh]
	-----------------------------------------------------------

  Dipole Moment: [D]
     X:     3.8055      Y:    -1.1991      Z:     0.0000     Total:     3.9899

*** Psi4 exiting successfully. Buy a developer a beer!
