                               Psi4 1.4a3.dev225

  ==> Input File <==

--------------------------------------------------------------------------
#psi4
#
memory 32 gb

molecule  {
0 1
  O       -2.3004660     0.0048580     0.0000370
  N       -0.3010810    -1.1172490    -0.0000470
  C        1.1208650     1.2009110     0.0000070
  C        1.8075990    -0.0462550     0.0000170
  C        1.0636490    -1.1911890     0.0000110
  C       -1.0860963     0.0614224    -0.0000024
  C       -0.2468310     1.2588000    -0.0000340
  H        1.6947520     2.1250290     0.0000060
  H        2.8897650    -0.0997760     0.0000620
  H        1.4903730    -2.1891750     0.0000000
  H       -0.7785610     2.2046570    -0.0000350
  H       -0.8600110    -1.9665800     0.0000060
units angstrom
no_reorient  #important for SAPT in psi4, default
symmetry c1  #important for SAPT in psi4, default
}

set PROPERTIES_ORIGIN ["COM"]
properties('MP2/aug-cc-pvtz', properties = ['dipole'])
--------------------------------------------------------------------------

    Molecular point group: c1
  Charge       = 0
  Multiplicity = 1
  Basis Set: AUG-CC-PVTZ
    Blend: AUG-CC-PVTZ
  Basis Set: (AUG-CC-PVTZ AUX)
    Blend: AUG-CC-PVTZ-JKFIT

    Orbital Energies [Eh]
    ---------------------

    Doubly Occupied:

       1A    -20.516998     2A    -15.625883     3A    -11.357874
       4A    -11.315568     5A    -11.274892     6A    -11.243927
       7A    -11.242406     8A     -1.384176     9A     -1.274900
      10A     -1.106485    11A     -1.029924    12A     -0.886314
      13A     -0.859993    14A     -0.753989    15A     -0.694884
      16A     -0.679045    17A     -0.637902    18A     -0.617868
      19A     -0.605806    20A     -0.561917    21A     -0.539673
      22A     -0.492068    23A     -0.429229    24A     -0.424562
      25A     -0.315259

  @DF-RHF Final Energy:  -321.68169842197250

   => Energetics <=

    Nuclear Repulsion Energy =            274.4794956984947021
    One-Electron Energy =                -980.5793083935741379
    Two-Electron Energy =                 384.4181142731069372
    Total Energy =                       -321.6816984219724986
  Basis Set: (AUG-CC-PVTZ AUX)
    Blend: AUG-CC-PVTZ-RI
    Molecular point group: c1

    Geometry (in Angstrom), charge = 0, multiplicity = 1:

       Center              X                  Y                   Z               Mass
    ------------   -----------------  -----------------  -----------------  -----------------
         O           -2.251742339697     0.005786153901     0.000037461162    15.994914619570
         N           -0.252357339697    -1.116320846099    -0.000046538838    14.003074004430
         C            1.169588660303     1.201839153901     0.000007461162    12.000000000000
         C            1.856322660303    -0.045326846099     0.000017461162    12.000000000000
         C            1.112372660303    -1.190260846099     0.000011461162    12.000000000000
         C           -1.037372639697     0.062350553901    -0.000001938838    12.000000000000
         C           -0.198107339697     1.259728153901    -0.000033538838    12.000000000000
         H            1.743475660303     2.125957153901     0.000006461162     1.007825032230
         H            2.938488660303    -0.098847846099     0.000062461162     1.007825032230
         H            1.539096660303    -2.188246846099     0.000000461162     1.007825032230
         H           -0.729837339697     2.205585153901    -0.000034538838     1.007825032230
         H           -0.811287339697    -1.965651846099     0.000006461162     1.007825032230

  Basis Set: AUG-CC-PVTZ
    Blend: AUG-CC-PVTZ
  Basis Set: (AUG-CC-PVTZ AUX)
    Blend: AUG-CC-PVTZ-JKFIT
	 Reference Energy          =    -321.6816984219724986 [Eh]
	 Singles Energy            =      -0.0000000000000000 [Eh]
	 Same-Spin Energy          =      -0.3352055206106656 [Eh]
	 Opposite-Spin Energy      =      -1.0268027657666186 [Eh]
	 Correlation Energy        =      -1.3620082863772842 [Eh]
	 Total Energy              =    -323.0437067083497595 [Eh]

	 ================> DF-SCS-MP2 Energies <==================
	-----------------------------------------------------------
	 SCS Same-Spin Scale       =       0.3333333333333333 [-]
	 SCS Opposite-Spin Scale   =       1.2000000000000000 [-]
	 SCS Same-Spin Energy      =      -0.1117351735368885 [Eh]
	 SCS Opposite-Spin Energy  =      -1.2321633189199421 [Eh]
	 SCS Correlation Energy    =      -1.3438984924568307 [Eh]
	 SCS Total Energy          =    -323.0255969144293431 [Eh]
	-----------------------------------------------------------

  Dipole Moment: [D]
     X:     3.8832      Y:    -1.2915      Z:     0.0000     Total:     4.0923

*** Psi4 exiting successfully. Buy a developer a beer!
