                               Psi4 1.3.2 release

  ==> Input File <==

--------------------------------------------------------------------------
#psi4
#
memory 32 gb

molecule  {
0 1
  O       -2.3004000     0.0048630     0.0003410
  N       -0.3010450    -1.1173380    -0.0002690
  C        1.1207170     1.2010130     0.0000540
  C        1.8075300    -0.0461910     0.0000640
  C        1.0639000    -1.1911280     0.0001230
  C       -1.0661860     0.0622010    -0.0003390
  C       -0.3598469     1.0938033    -0.0001873
  H        1.6948200     2.1249460     0.0001000
  H        2.8897160    -0.0994500     0.0003790
  H        1.4903610    -2.1891700     0.0001730
  H       -0.7789320     2.2044920     0.0000230
  H       -0.8600860    -1.9666840     0.0000480
units angstrom
no_reorient  #important for SAPT in psi4, default
symmetry c1  #important for SAPT in psi4, default
}

set PROPERTIES_ORIGIN ["COM"]
properties('MP2/aug-cc-pvtz', properties = ['dipole'])
--------------------------------------------------------------------------

    Molecular point group: c1
  Charge       = 0
  Multiplicity = 1
  Basis Set: AUG-CC-PVTZ
    Blend: AUG-CC-PVTZ
  Basis Set: (AUG-CC-PVTZ AUX)
    Blend: AUG-CC-PVTZ-JKFIT

    Orbital Energies [Eh]
    ---------------------

    Doubly Occupied:

       1A    -20.482595     2A    -15.635616     3A    -11.330349
       4A    -11.321882     5A    -11.306067     6A    -11.254052
       7A    -11.235544     8A     -1.365080     9A     -1.273901
      10A     -1.107045    11A     -1.055011    12A     -0.918838
      13A     -0.853359    14A     -0.760277    15A     -0.703319
      16A     -0.688952    17A     -0.627068    18A     -0.613442
      19A     -0.606837    20A     -0.571315    21A     -0.498929
      22A     -0.485185    23A     -0.414863    24A     -0.414300
      25A     -0.316731

  @DF-RHF Final Energy:  -321.61739739218785

   => Energetics <=

    Nuclear Repulsion Energy =            276.9793824611471678
    One-Electron Energy =                -985.5124437532867887
    Two-Electron Energy =                 386.9156638999517099
    Total Energy =                       -321.6173973921878542
  Basis Set: (AUG-CC-PVTZ AUX)
    Blend: AUG-CC-PVTZ-RI
    Molecular point group: c1

    Geometry (in Angstrom), charge = 0, multiplicity = 1:

       Center              X                  Y                   Z               Mass
    ------------   -----------------  -----------------  -----------------  -----------------
         O           -2.239936275045     0.026510224429     0.000351601159    15.994914619570
         N           -0.240581275045    -1.095690775571    -0.000258398841    14.003074004430
         C            1.181180724955     1.222660224429     0.000064601159    12.000000000000
         C            1.867993724955    -0.024543775571     0.000074601159    12.000000000000
         C            1.124363724955    -1.169480775571     0.000133601159    12.000000000000
         C           -1.005722275045     0.083848224429    -0.000328398841    12.000000000000
         C           -0.299383175045     1.115450524429    -0.000176698841    12.000000000000
         H            1.755283724955     2.146593224429     0.000110601159     1.007825032230
         H            2.950179724955    -0.077802775571     0.000389601159     1.007825032230
         H            1.550824724955    -2.167522775571     0.000183601159     1.007825032230
         H           -0.718468275045     2.226139224429     0.000033601159     1.007825032230
         H           -0.799622275045    -1.945036775571     0.000058601159     1.007825032230

  Basis Set: AUG-CC-PVTZ
    Blend: AUG-CC-PVTZ
  Basis Set: (AUG-CC-PVTZ AUX)
    Blend: AUG-CC-PVTZ-JKFIT
	 Reference Energy          =    -321.6173973921878542 [Eh]
	 Singles Energy            =      -0.0000000000000000 [Eh]
	 Same-Spin Energy          =      -0.3404458315235127 [Eh]
	 Opposite-Spin Energy      =      -1.0324657617862201 [Eh]
	 Correlation Energy        =      -1.3729115933097327 [Eh]
	 Total Energy              =    -322.9903089854975633 [Eh]

	 ================> DF-SCS-MP2 Energies <==================
	-----------------------------------------------------------
	 SCS Same-Spin Scale       =       0.3333333333333333 [-]
	 SCS Opposite-Spin Scale   =       1.2000000000000000 [-]
	 SCS Same-Spin Energy      =      -0.1134819438411709 [Eh]
	 SCS Opposite-Spin Energy  =      -1.2389589141434640 [Eh]
	 SCS Correlation Energy    =      -1.3524408579846350 [Eh]
	 SCS Total Energy          =    -322.9698382501724723 [Eh]
	-----------------------------------------------------------

  Dipole Moment: [D]
     X:     4.7724      Y:    -1.3322      Z:    -0.0002     Total:     4.9549

*** Psi4 exiting successfully. Buy a developer a beer!
