                               Psi4 1.3.2 release

  ==> Input File <==

--------------------------------------------------------------------------
#psi4
#
memory 32 gb

molecule  {
0 1
  O       -2.3004000     0.0048630     0.0003410
  N       -0.2925727    -1.0223040    -0.0002595
  C        1.1207170     1.2010130     0.0000540
  C        1.8075300    -0.0461910     0.0000640
  C        1.0639000    -1.1911280     0.0001230
  C       -1.0661860     0.0622010    -0.0003390
  C       -0.2468550     1.2588270    -0.0001630
  H        1.6948200     2.1249460     0.0001000
  H        2.8897160    -0.0994500     0.0003790
  H        1.4903610    -2.1891700     0.0001730
  H       -0.7789320     2.2044920     0.0000230
  H       -0.8600860    -1.9666840     0.0000480
units angstrom
no_reorient  #important for SAPT in psi4, default
symmetry c1  #important for SAPT in psi4, default
}

set PROPERTIES_ORIGIN ["COM"]
properties('MP2/aug-cc-pvtz', properties = ['dipole'])
--------------------------------------------------------------------------

    Molecular point group: c1
  Charge       = 0
  Multiplicity = 1
  Basis Set: AUG-CC-PVTZ
    Blend: AUG-CC-PVTZ
  Basis Set: (AUG-CC-PVTZ AUX)
    Blend: AUG-CC-PVTZ-JKFIT

    Orbital Energies [Eh]
    ---------------------

    Doubly Occupied:

       1A    -20.503474     2A    -15.635408     3A    -11.347927
       4A    -11.317047     5A    -11.273567     6A    -11.249123
       7A    -11.243212     8A     -1.375890     9A     -1.279900
      10A     -1.106006    11A     -1.043047    12A     -0.887283
      13A     -0.869715    14A     -0.750170    15A     -0.701273
      16A     -0.670980    17A     -0.633876    18A     -0.617793
      19A     -0.613281    20A     -0.554715    21A     -0.535313
      22A     -0.482131    23A     -0.423723    24A     -0.423544
      25A     -0.319529

  @DF-RHF Final Energy:  -321.66751354201290

   => Energetics <=

    Nuclear Repulsion Energy =            276.2266862775275627
    One-Electron Energy =                -984.0725418049048585
    Two-Electron Energy =                 386.1783419853644546
    Total Energy =                       -321.6675135420128981
  Basis Set: (AUG-CC-PVTZ AUX)
    Blend: AUG-CC-PVTZ-RI
    Molecular point group: c1

    Geometry (in Angstrom), charge = 0, multiplicity = 1:

       Center              X                  Y                   Z               Mass
    ------------   -----------------  -----------------  -----------------  -----------------
         O           -2.255451698285    -0.008329349323     0.000347133123    15.994914619570
         N           -0.247624398285    -1.035496349323    -0.000253366877    14.003074004430
         C            1.165665301715     1.187820650677     0.000060133123    12.000000000000
         C            1.852478301715    -0.059383349323     0.000070133123    12.000000000000
         C            1.108848301715    -1.204320349323     0.000129133123    12.000000000000
         C           -1.021237698285     0.049008650677    -0.000332866877    12.000000000000
         C           -0.201906698285     1.245634650677    -0.000156866877    12.000000000000
         H            1.739768301715     2.111753650677     0.000106133123     1.007825032230
         H            2.934664301715    -0.112642349323     0.000385133123     1.007825032230
         H            1.535309301715    -2.202362349323     0.000179133123     1.007825032230
         H           -0.733983698285     2.191299650677     0.000029133123     1.007825032230
         H           -0.815137698285    -1.979876349323     0.000054133123     1.007825032230

  Basis Set: AUG-CC-PVTZ
    Blend: AUG-CC-PVTZ
  Basis Set: (AUG-CC-PVTZ AUX)
    Blend: AUG-CC-PVTZ-JKFIT
	 Reference Energy          =    -321.6675135420128981 [Eh]
	 Singles Energy            =      -0.0000000000000000 [Eh]
	 Same-Spin Energy          =      -0.3367895320024322 [Eh]
	 Opposite-Spin Energy      =      -1.0289972528975255 [Eh]
	 Correlation Energy        =      -1.3657867848999576 [Eh]
	 Total Energy              =    -323.0333003269128653 [Eh]

	 ================> DF-SCS-MP2 Energies <==================
	-----------------------------------------------------------
	 SCS Same-Spin Scale       =       0.3333333333333333 [-]
	 SCS Opposite-Spin Scale   =       1.2000000000000000 [-]
	 SCS Same-Spin Energy      =      -0.1122631773341441 [Eh]
	 SCS Opposite-Spin Energy  =      -1.2347967034770306 [Eh]
	 SCS Correlation Energy    =      -1.3470598808111747 [Eh]
	 SCS Total Energy          =    -323.0145734228240713 [Eh]
	-----------------------------------------------------------

  Dipole Moment: [D]
     X:     4.3634      Y:    -1.4705      Z:    -0.0003     Total:     4.6046

*** Psi4 exiting successfully. Buy a developer a beer!
