                               Psi4 1.3.2 release

  ==> Input File <==

--------------------------------------------------------------------------
#psi4
#
memory 32 gb

molecule  {
0 1
  O       -2.3004000     0.0048630     0.0003410
  N       -0.3010450    -1.1173380    -0.0002690
  C        1.1207170     1.2010130     0.0000540
  C        1.8075300    -0.0461910     0.0000640
  C        1.1637542    -1.1965262     0.0001517
  C       -1.0661860     0.0622010    -0.0003390
  C       -0.2468550     1.2588270    -0.0001630
  H        1.6948200     2.1249460     0.0001000
  H        2.8897160    -0.0994500     0.0003790
  H        1.4903610    -2.1891700     0.0001730
  H       -0.7789320     2.2044920     0.0000230
  H       -0.8600860    -1.9666840     0.0000480
units angstrom
no_reorient  #important for SAPT in psi4, default
symmetry c1  #important for SAPT in psi4, default
}

set PROPERTIES_ORIGIN ["COM"]
properties('MP2/aug-cc-pvtz', properties = ['dipole'])
--------------------------------------------------------------------------

    Molecular point group: c1
  Charge       = 0
  Multiplicity = 1
  Basis Set: AUG-CC-PVTZ
    Blend: AUG-CC-PVTZ
  Basis Set: (AUG-CC-PVTZ AUX)
    Blend: AUG-CC-PVTZ-JKFIT

    Orbital Energies [Eh]
    ---------------------

    Doubly Occupied:

       1A    -20.511321     2A    -15.616029     3A    -11.355309
       4A    -11.311427     5A    -11.279042     6A    -11.249993
       7A    -11.248535     8A     -1.366816     9A     -1.246692
      10A     -1.110542    11A     -1.042132    12A     -0.891832
      13A     -0.852542    14A     -0.742569    15A     -0.695390
      16A     -0.687007    17A     -0.635877    18A     -0.617848
      19A     -0.593024    20A     -0.555153    21A     -0.546693
      22A     -0.483136    23A     -0.425242    24A     -0.420730
      25A     -0.329239

  @DF-RHF Final Energy:  -321.67016512921526

   => Energetics <=

    Nuclear Repulsion Energy =            273.4232503282552784
    One-Electron Energy =                -978.5585897294720326
    Two-Electron Energy =                 383.4651742720014340
    Total Energy =                       -321.6701651292152633
  Basis Set: (AUG-CC-PVTZ AUX)
    Blend: AUG-CC-PVTZ-RI
    Molecular point group: c1

    Geometry (in Angstrom), charge = 0, multiplicity = 1:

       Center              X                  Y                   Z               Mass
    ------------   -----------------  -----------------  -----------------  -----------------
         O           -2.266811598782     0.006354877495     0.000344909036    15.994914619570
         N           -0.267456598782    -1.115846122505    -0.000265090964    14.003074004430
         C            1.154305401218     1.202504877495     0.000057909036    12.000000000000
         C            1.841118401218    -0.044699122505     0.000067909036    12.000000000000
         C            1.197342601218    -1.195034322505     0.000155609036    12.000000000000
         C           -1.032597598782     0.063692877495    -0.000335090964    12.000000000000
         C           -0.213266598782     1.260318877495    -0.000159090964    12.000000000000
         H            1.728408401218     2.126437877495     0.000103909036     1.007825032230
         H            2.923304401218    -0.097958122505     0.000382909036     1.007825032230
         H            1.523949401218    -2.187678122505     0.000176909036     1.007825032230
         H           -0.745343598782     2.205983877495     0.000026909036     1.007825032230
         H           -0.826497598782    -1.965192122505     0.000051909036     1.007825032230

  Basis Set: AUG-CC-PVTZ
    Blend: AUG-CC-PVTZ
  Basis Set: (AUG-CC-PVTZ AUX)
    Blend: AUG-CC-PVTZ-JKFIT
	 Reference Energy          =    -321.6701651292152633 [Eh]
	 Singles Energy            =      -0.0000000000000000 [Eh]
	 Same-Spin Energy          =      -0.3345723219917693 [Eh]
	 Opposite-Spin Energy      =      -1.0281667307413567 [Eh]
	 Correlation Energy        =      -1.3627390527331260 [Eh]
	 Total Energy              =    -323.0329041819483678 [Eh]

	 ================> DF-SCS-MP2 Energies <==================
	-----------------------------------------------------------
	 SCS Same-Spin Scale       =       0.3333333333333333 [-]
	 SCS Opposite-Spin Scale   =       1.2000000000000000 [-]
	 SCS Same-Spin Energy      =      -0.1115241073305898 [Eh]
	 SCS Opposite-Spin Energy  =      -1.2338000768896280 [Eh]
	 SCS Correlation Energy    =      -1.3453241842202177 [Eh]
	 SCS Total Energy          =    -323.0154893134354666 [Eh]
	-----------------------------------------------------------

  Dipole Moment: [D]
     X:     4.2969      Y:    -1.1023      Z:    -0.0001     Total:     4.4360

*** Psi4 exiting successfully. Buy a developer a beer!
