                               Psi4 1.4a3.dev225

  ==> Input File <==

--------------------------------------------------------------------------
#psi4
#
memory 32 gb

molecule  {
0 1
  O       -2.3004660     0.0048580     0.0000370
  N       -0.3010810    -1.1172490    -0.0000470
  C        1.1208650     1.2009110     0.0000070
  C        1.8075990    -0.0462550     0.0000170
  C        1.0636490    -1.1911890     0.0000110
  C       -1.0661180     0.0623530    -0.0000030
  C       -0.2750808     1.2175453    -0.0000329
  H        1.6947520     2.1250290     0.0000060
  H        2.8897650    -0.0997760     0.0000620
  H        1.4903730    -2.1891750     0.0000000
  H       -0.7785610     2.2046570    -0.0000350
  H       -0.8600110    -1.9665800     0.0000060
units angstrom
no_reorient  #important for SAPT in psi4, default
symmetry c1  #important for SAPT in psi4, default
}

set PROPERTIES_ORIGIN ["COM"]
properties('MP2/aug-cc-pvtz', properties = ['dipole'])
--------------------------------------------------------------------------

    Molecular point group: c1
  Charge       = 0
  Multiplicity = 1
  Basis Set: AUG-CC-PVTZ
    Blend: AUG-CC-PVTZ
  Basis Set: (AUG-CC-PVTZ AUX)
    Blend: AUG-CC-PVTZ-JKFIT

    Orbital Energies [Eh]
    ---------------------

    Doubly Occupied:

       1A    -20.506077     2A    -15.630261     3A    -11.350478
       4A    -11.319582     5A    -11.283555     6A    -11.247483
       7A    -11.242008     8A     -1.370649     9A     -1.274879
      10A     -1.107984    11A     -1.036367    12A     -0.896217
      13A     -0.861161    14A     -0.756719    15A     -0.697561
      16A     -0.681833    17A     -0.636035    18A     -0.612294
      19A     -0.607314    20A     -0.561963    21A     -0.533544
      22A     -0.485305    23A     -0.426154    24A     -0.423022
      25A     -0.316199

  @DF-RHF Final Energy:  -321.67650424231527

   => Energetics <=

    Nuclear Repulsion Energy =            275.0786325487224531
    One-Electron Energy =                -981.7809887086682465
    Two-Electron Energy =                 385.0258519176305185
    Total Energy =                       -321.6765042423152750
  Basis Set: (AUG-CC-PVTZ AUX)
    Blend: AUG-CC-PVTZ-RI
    Molecular point group: c1

    Geometry (in Angstrom), charge = 0, multiplicity = 1:

       Center              X                  Y                   Z               Mass
    ------------   -----------------  -----------------  -----------------  -----------------
         O           -2.250697926667     0.010877735292     0.000037398028    15.994914619570
         N           -0.251312926667    -1.111229264708    -0.000046601972    14.003074004430
         C            1.170633073333     1.206930735292     0.000007398028    12.000000000000
         C            1.857367073333    -0.040235264708     0.000017398028    12.000000000000
         C            1.113417073333    -1.185169264708     0.000011398028    12.000000000000
         C           -1.016349926667     0.068372735292    -0.000002601972    12.000000000000
         C           -0.225312726667     1.223565035292    -0.000032501972    12.000000000000
         H            1.744520073333     2.131048735292     0.000006398028     1.007825032230
         H            2.939533073333    -0.093756264708     0.000062398028     1.007825032230
         H            1.540141073333    -2.183155264708     0.000000398028     1.007825032230
         H           -0.728792926667     2.210676735292    -0.000034601972     1.007825032230
         H           -0.810242926667    -1.960560264708     0.000006398028     1.007825032230

  Basis Set: AUG-CC-PVTZ
    Blend: AUG-CC-PVTZ
  Basis Set: (AUG-CC-PVTZ AUX)
    Blend: AUG-CC-PVTZ-JKFIT
	 Reference Energy          =    -321.6765042423152750 [Eh]
	 Singles Energy            =      -0.0000000000000000 [Eh]
	 Same-Spin Energy          =      -0.3367030562023409 [Eh]
	 Opposite-Spin Energy      =      -1.0284065213795999 [Eh]
	 Correlation Energy        =      -1.3651095775819408 [Eh]
	 Total Energy              =    -323.0416138198972362 [Eh]

	 ================> DF-SCS-MP2 Energies <==================
	-----------------------------------------------------------
	 SCS Same-Spin Scale       =       0.3333333333333333 [-]
	 SCS Opposite-Spin Scale   =       1.2000000000000000 [-]
	 SCS Same-Spin Energy      =      -0.1122343520674470 [Eh]
	 SCS Opposite-Spin Energy  =      -1.2340878256555199 [Eh]
	 SCS Correlation Energy    =      -1.3463221777229668 [Eh]
	 SCS Total Energy          =    -323.0228264200382569 [Eh]
	-----------------------------------------------------------

  Dipole Moment: [D]
     X:     4.2541      Y:    -1.3006      Z:     0.0000     Total:     4.4484

*** Psi4 exiting successfully. Buy a developer a beer!
