                               Psi4 1.3.2 release

  ==> Input File <==

--------------------------------------------------------------------------
#psi4
#
memory 32 gb

molecule  {
0 1
  O       -2.3004000     0.0048630     0.0003410
  N       -0.3010450    -1.1173380    -0.0002690
  C        1.1207170     1.2010130     0.0000540
  C        1.8075300    -0.0461910     0.0000640
  C        1.0639000    -1.1911280     0.0001230
  C       -1.0661860     0.0622010    -0.0003390
  C       -0.1903590     1.3413389    -0.0001509
  H        1.6948200     2.1249460     0.0001000
  H        2.8897160    -0.0994500     0.0003790
  H        1.4903610    -2.1891700     0.0001730
  H       -0.7789320     2.2044920     0.0000230
  H       -0.8600860    -1.9666840     0.0000480
units angstrom
no_reorient  #important for SAPT in psi4, default
symmetry c1  #important for SAPT in psi4, default
}

set PROPERTIES_ORIGIN ["COM"]
properties('MP2/aug-cc-pvtz', properties = ['dipole'])
--------------------------------------------------------------------------

    Molecular point group: c1
  Charge       = 0
  Multiplicity = 1
  Basis Set: AUG-CC-PVTZ
    Blend: AUG-CC-PVTZ
  Basis Set: (AUG-CC-PVTZ AUX)
    Blend: AUG-CC-PVTZ-JKFIT

    Orbital Energies [Eh]
    ---------------------

    Doubly Occupied:

       1A    -20.521002     2A    -15.626052     3A    -11.365827
       4A    -11.313742     5A    -11.264423     6A    -11.244560
       7A    -11.244149     8A     -1.374793     9A     -1.273690
      10A     -1.112640    11A     -1.028331    12A     -0.879555
      13A     -0.861815    14A     -0.757044    15A     -0.696683
      16A     -0.674427    17A     -0.646922    18A     -0.612511
      19A     -0.602933    20A     -0.566727    21A     -0.539526
      22A     -0.486858    23A     -0.433511    24A     -0.422771
      25A     -0.317557

  @DF-RHF Final Energy:  -321.67328732669409

   => Energetics <=

    Nuclear Repulsion Energy =            273.5412837875560399
    One-Electron Energy =                -978.6930418914105303
    Two-Electron Energy =                 383.4784707771603962
    Total Energy =                       -321.6732873266940942
  Basis Set: (AUG-CC-PVTZ AUX)
    Blend: AUG-CC-PVTZ-RI
    Molecular point group: c1

    Geometry (in Angstrom), charge = 0, multiplicity = 1:

       Center              X                  Y                   Z               Mass
    ------------   -----------------  -----------------  -----------------  -----------------
         O           -2.261336912323    -0.004745219699     0.000347005060    15.994914619570
         N           -0.261981912323    -1.126946219699    -0.000262994940    14.003074004430
         C            1.159780087677     1.191404780301     0.000060005060    12.000000000000
         C            1.846593087677    -0.055799219699     0.000070005060    12.000000000000
         C            1.102963087677    -1.200736219699     0.000129005060    12.000000000000
         C           -1.027122912323     0.052592780301    -0.000332994940    12.000000000000
         C           -0.151295912323     1.331730680301    -0.000144894940    12.000000000000
         H            1.733883087677     2.115337780301     0.000106005060     1.007825032230
         H            2.928779087677    -0.109058219699     0.000385005060     1.007825032230
         H            1.529424087677    -2.198778219699     0.000179005060     1.007825032230
         H           -0.739868912323     2.194883780301     0.000029005060     1.007825032230
         H           -0.821022912323    -1.976292219699     0.000054005060     1.007825032230

  Basis Set: AUG-CC-PVTZ
    Blend: AUG-CC-PVTZ
  Basis Set: (AUG-CC-PVTZ AUX)
    Blend: AUG-CC-PVTZ-JKFIT
	 Reference Energy          =    -321.6732873266940942 [Eh]
	 Singles Energy            =      -0.0000000000000000 [Eh]
	 Same-Spin Energy          =      -0.3340567778271502 [Eh]
	 Opposite-Spin Energy      =      -1.0264196508746779 [Eh]
	 Correlation Energy        =      -1.3604764287018281 [Eh]
	 Total Energy              =    -323.0337637553959098 [Eh]

	 ================> DF-SCS-MP2 Energies <==================
	-----------------------------------------------------------
	 SCS Same-Spin Scale       =       0.3333333333333333 [-]
	 SCS Opposite-Spin Scale   =       1.2000000000000000 [-]
	 SCS Same-Spin Energy      =      -0.1113522592757167 [Eh]
	 SCS Opposite-Spin Energy  =      -1.2317035810496135 [Eh]
	 SCS Correlation Energy    =      -1.3430558403253303 [Eh]
	 SCS Total Energy          =    -323.0163431670194427 [Eh]
	-----------------------------------------------------------

  Dipole Moment: [D]
     X:     3.7856      Y:    -1.3003      Z:    -0.0002     Total:     4.0027

*** Psi4 exiting successfully. Buy a developer a beer!
