                               Psi4 1.4a3.dev225

  ==> Input File <==

--------------------------------------------------------------------------
#psi4
#
memory 32 gb

molecule  {
0 1
  O       -2.3004660     0.0048580     0.0000370
  N       -0.3010810    -1.1172490    -0.0000470
  C        1.1208650     1.2009110     0.0000070
  C        1.8075990    -0.0462550     0.0000170
  C        1.0636490    -1.1911890     0.0000110
  C       -1.0661180     0.0623530    -0.0000030
  C       -0.2468310     1.2588000    -0.0000340
  H        1.6947520     2.1250290     0.0000060
  H        2.8897650    -0.0997760     0.0000620
  H        1.4903730    -2.1891750     0.0000000
  H       -0.7785610     2.2046570    -0.0000350
  H       -0.8710055    -1.9832869     0.0000070
units angstrom
no_reorient  #important for SAPT in psi4, default
symmetry c1  #important for SAPT in psi4, default
}

set PROPERTIES_ORIGIN ["COM"]
properties('MP2/aug-cc-pvtz', properties = ['dipole'])
--------------------------------------------------------------------------

    Molecular point group: c1
  Charge       = 0
  Multiplicity = 1
  Basis Set: AUG-CC-PVTZ
    Blend: AUG-CC-PVTZ
  Basis Set: (AUG-CC-PVTZ AUX)
    Blend: AUG-CC-PVTZ-JKFIT

    Orbital Energies [Eh]
    ---------------------

    Doubly Occupied:

       1A    -20.511745     2A    -15.630447     3A    -11.356914
       4A    -11.317046     5A    -11.276476     6A    -11.245914
       7A    -11.242989     8A     -1.371732     9A     -1.273158
      10A     -1.108173    11A     -1.032413    12A     -0.887544
      13A     -0.862180    14A     -0.753639    15A     -0.695720
      16A     -0.678210    17A     -0.639174    18A     -0.612834
      19A     -0.605452    20A     -0.559750    21A     -0.539842
      22A     -0.485598    23A     -0.426713    24A     -0.426031
      25A     -0.316279

  @DF-RHF Final Energy:  -321.68005613944376

   => Energetics <=

    Nuclear Repulsion Energy =            274.4171159502067212
    One-Electron Energy =                -980.4823979501069289
    Two-Electron Energy =                 384.3852258604564440
    Total Energy =                       -321.6800561394437636
  Basis Set: (AUG-CC-PVTZ AUX)
    Blend: AUG-CC-PVTZ-RI
    Molecular point group: c1

    Geometry (in Angstrom), charge = 0, multiplicity = 1:

       Center              X                  Y                   Z               Mass
    ------------   -----------------  -----------------  -----------------  -----------------
         O           -2.254148337297     0.005845819350     0.000037526317    15.994914619570
         N           -0.254763337297    -1.116261180650    -0.000046473683    14.003074004430
         C            1.167182662703     1.201898819350     0.000007526317    12.000000000000
         C            1.853916662703    -0.045267180650     0.000017526317    12.000000000000
         C            1.109966662703    -1.190201180650     0.000011526317    12.000000000000
         C           -1.019800337297     0.063340819350    -0.000002473683    12.000000000000
         C           -0.200513337297     1.259787819350    -0.000033473683    12.000000000000
         H            1.741069662703     2.126016819350     0.000006526317     1.007825032230
         H            2.936082662703    -0.098788180650     0.000062526317     1.007825032230
         H            1.536690662703    -2.188187180650     0.000000526317     1.007825032230
         H           -0.732243337297     2.205644819350    -0.000034473683     1.007825032230
         H           -0.824687837297    -1.982299080650     0.000007526317     1.007825032230

  Basis Set: AUG-CC-PVTZ
    Blend: AUG-CC-PVTZ
  Basis Set: (AUG-CC-PVTZ AUX)
    Blend: AUG-CC-PVTZ-JKFIT
	 Reference Energy          =    -321.6800561394437636 [Eh]
	 Singles Energy            =      -0.0000000000000000 [Eh]
	 Same-Spin Energy          =      -0.3358210349903948 [Eh]
	 Opposite-Spin Energy      =      -1.0278403986479843 [Eh]
	 Correlation Energy        =      -1.3636614336383790 [Eh]
	 Total Energy              =    -323.0437175730821195 [Eh]

	 ================> DF-SCS-MP2 Energies <==================
	-----------------------------------------------------------
	 SCS Same-Spin Scale       =       0.3333333333333333 [-]
	 SCS Opposite-Spin Scale   =       1.2000000000000000 [-]
	 SCS Same-Spin Energy      =      -0.1119403449967983 [Eh]
	 SCS Opposite-Spin Energy  =      -1.2334084783775812 [Eh]
	 SCS Correlation Energy    =      -1.3453488233743793 [Eh]
	 SCS Total Energy          =    -323.0254049628181292 [Eh]
	-----------------------------------------------------------

  Dipole Moment: [D]
     X:     4.0773      Y:    -1.3219      Z:     0.0000     Total:     4.2862

*** Psi4 exiting successfully. Buy a developer a beer!
