                               Psi4 1.3.2 release

  ==> Input File <==

--------------------------------------------------------------------------
#psi4
#
memory 32 gb

molecule  {
0 1
  O       -2.3004000     0.0048630     0.0003410
  N       -0.3010450    -1.1173380    -0.0002690
  C        1.1207170     1.2010130     0.0000540
  C        1.8075300    -0.0461910     0.0000640
  C        1.2636084    -1.2019244     0.0001804
  C       -1.0661860     0.0622010    -0.0003390
  C       -0.2468550     1.2588270    -0.0001630
  H        1.6948200     2.1249460     0.0001000
  H        2.8897160    -0.0994500     0.0003790
  H        1.4903610    -2.1891700     0.0001730
  H       -0.7789320     2.2044920     0.0000230
  H       -0.8600860    -1.9666840     0.0000480
units angstrom
no_reorient  #important for SAPT in psi4, default
symmetry c1  #important for SAPT in psi4, default
}

set PROPERTIES_ORIGIN ["COM"]
properties('MP2/aug-cc-pvtz', properties = ['dipole'])
--------------------------------------------------------------------------

    Molecular point group: c1
  Charge       = 0
  Multiplicity = 1
  Basis Set: AUG-CC-PVTZ
    Blend: AUG-CC-PVTZ
  Basis Set: (AUG-CC-PVTZ AUX)
    Blend: AUG-CC-PVTZ-JKFIT

    Orbital Energies [Eh]
    ---------------------

    Doubly Occupied:

       1A    -20.510220     2A    -15.602992     3A    -11.352840
       4A    -11.309039     5A    -11.281031     6A    -11.255811
       7A    -11.251595     8A     -1.362888     9A     -1.226102
      10A     -1.111274    11A     -1.051579    12A     -0.895467
      13A     -0.846825    14A     -0.733522    15A     -0.709745
      16A     -0.682876    17A     -0.630569    18A     -0.617470
      19A     -0.583882    20A     -0.560340    21A     -0.533171
      22A     -0.484815    23A     -0.422226    24A     -0.412589
      25A     -0.340729

  @DF-RHF Final Energy:  -321.64207664938300

   => Energetics <=

    Nuclear Repulsion Energy =            272.4205480240153179
    One-Electron Energy =                -976.5860524484761527
    Two-Electron Energy =                 382.5234277750777778
    Total Energy =                       -321.6420766493830001
  Basis Set: (AUG-CC-PVTZ AUX)
    Blend: AUG-CC-PVTZ-RI
    Molecular point group: c1

    Geometry (in Angstrom), charge = 0, multiplicity = 1:

       Center              X                  Y                   Z               Mass
    ------------   -----------------  -----------------  -----------------  -----------------
         O           -2.279419835210     0.007036489103     0.000341285189    15.994914619570
         N           -0.280064835210    -1.115164510897    -0.000268714811    14.003074004430
         C            1.141697164790     1.203186489103     0.000054285189    12.000000000000
         C            1.828510164790    -0.044017510897     0.000064285189    12.000000000000
         C            1.284588564790    -1.199750910897     0.000180685189    12.000000000000
         C           -1.045205835210     0.064374489103    -0.000338714811    12.000000000000
         C           -0.225874835210     1.261000489103    -0.000162714811    12.000000000000
         H            1.715800164790     2.127119489103     0.000100285189     1.007825032230
         H            2.910696164790    -0.097276510897     0.000379285189     1.007825032230
         H            1.511341164790    -2.186996510897     0.000173285189     1.007825032230
         H           -0.757951835210     2.206665489103     0.000023285189     1.007825032230
         H           -0.839105835210    -1.964510510897     0.000048285189     1.007825032230

  Basis Set: AUG-CC-PVTZ
    Blend: AUG-CC-PVTZ
  Basis Set: (AUG-CC-PVTZ AUX)
    Blend: AUG-CC-PVTZ-JKFIT
	 Reference Energy          =    -321.6420766493830001 [Eh]
	 Singles Energy            =      -0.0000000000000000 [Eh]
	 Same-Spin Energy          =      -0.3340298708285776 [Eh]
	 Opposite-Spin Energy      =      -1.0295744594530500 [Eh]
	 Correlation Energy        =      -1.3636043302816276 [Eh]
	 Total Energy              =    -323.0056809796646462 [Eh]

	 ================> DF-SCS-MP2 Energies <==================
	-----------------------------------------------------------
	 SCS Same-Spin Scale       =       0.3333333333333333 [-]
	 SCS Opposite-Spin Scale   =       1.2000000000000000 [-]
	 SCS Same-Spin Energy      =      -0.1113432902761925 [Eh]
	 SCS Opposite-Spin Energy  =      -1.2354893513436600 [Eh]
	 SCS Correlation Energy    =      -1.3468326416198526 [Eh]
	 SCS Total Energy          =    -322.9889092910028694 [Eh]
	-----------------------------------------------------------

  Dipole Moment: [D]
     X:     4.5322      Y:    -0.9478      Z:    -0.0000     Total:     4.6303

*** Psi4 exiting successfully. Buy a developer a beer!
