                               Psi4 1.3.2 release

  ==> Input File <==

--------------------------------------------------------------------------
#psi4
#
memory 32 gb

molecule  {
0 1
  O       -2.3004000     0.0048630     0.0003410
  N       -0.3010450    -1.1173380    -0.0002690
  C        1.1207170     1.2010130     0.0000540
  C        1.8075300    -0.0461910     0.0000640
  C        1.0639000    -1.1911280     0.0001230
  C       -1.0661860     0.0622010    -0.0003390
  C       -0.2468550     1.2588270    -0.0001630
  H        1.6948200     2.1249460     0.0001000
  H        2.8897160    -0.0994500     0.0003790
  H        1.4903610    -2.1891700     0.0001730
  H       -0.7789320     2.2044920     0.0000230
  H       -0.7501269    -1.7996241    -0.0000144
units angstrom
no_reorient  #important for SAPT in psi4, default
symmetry c1  #important for SAPT in psi4, default
}

set PROPERTIES_ORIGIN ["COM"]
properties('MP2/aug-cc-pvtz', properties = ['dipole'])
--------------------------------------------------------------------------

    Molecular point group: c1
  Charge       = 0
  Multiplicity = 1
  Basis Set: AUG-CC-PVTZ
    Blend: AUG-CC-PVTZ
  Basis Set: (AUG-CC-PVTZ AUX)
    Blend: AUG-CC-PVTZ-JKFIT

    Orbital Energies [Eh]
    ---------------------

    Doubly Occupied:

       1A    -20.514285     2A    -15.608700     3A    -11.358498
       4A    -11.318154     5A    -11.277996     6A    -11.247644
       7A    -11.244060     8A     -1.381410     9A     -1.295944
      10A     -1.121840    11A     -1.035100    12A     -0.912818
      13A     -0.868698    14A     -0.785059    15A     -0.701264
      16A     -0.686680    17A     -0.644964    18A     -0.615031
      19A     -0.609082    20A     -0.564446    21A     -0.543722
      22A     -0.487724    23A     -0.429344    24A     -0.428298
      25A     -0.318390

  @DF-RHF Final Energy:  -321.63803453178582

   => Energetics <=

    Nuclear Repulsion Energy =            275.9119739289827749
    One-Electron Energy =                -983.1017141472832463
    Two-Electron Energy =                 385.5517056865146515
    Total Energy =                       -321.6380345317858200
  Basis Set: (AUG-CC-PVTZ AUX)
    Blend: AUG-CC-PVTZ-RI
    Molecular point group: c1

    Geometry (in Angstrom), charge = 0, multiplicity = 1:

       Center              X                  Y                   Z               Mass
    ------------   -----------------  -----------------  -----------------  -----------------
         O           -2.255369428211     0.003901672217     0.000349194607    15.994914619570
         N           -0.256014428211    -1.118299327783    -0.000260805393    14.003074004430
         C            1.165747571789     1.200051672217     0.000062194607    12.000000000000
         C            1.852560571789    -0.047152327783     0.000072194607    12.000000000000
         C            1.108930571789    -1.192089327783     0.000131194607    12.000000000000
         C           -1.021155428211     0.061239672217    -0.000330805393    12.000000000000
         C           -0.201824428211     1.257865672217    -0.000154805393    12.000000000000
         H            1.739850571789     2.123984672217     0.000108194607     1.007825032230
         H            2.934746571789    -0.100411327783     0.000387194607     1.007825032230
         H            1.535391571789    -2.190131327783     0.000181194607     1.007825032230
         H           -0.733901428211     2.203530672217     0.000031194607     1.007825032230
         H           -0.705096328211    -1.800585427783    -0.000006205393     1.007825032230

  Basis Set: AUG-CC-PVTZ
    Blend: AUG-CC-PVTZ
  Basis Set: (AUG-CC-PVTZ AUX)
    Blend: AUG-CC-PVTZ-JKFIT
	 Reference Energy          =    -321.6380345317858200 [Eh]
	 Singles Energy            =      -0.0000000000000000 [Eh]
	 Same-Spin Energy          =      -0.3341227111988299 [Eh]
	 Opposite-Spin Energy      =      -1.0246827631535287 [Eh]
	 Correlation Energy        =      -1.3588054743523585 [Eh]
	 Total Energy              =    -322.9968400061381999 [Eh]

	 ================> DF-SCS-MP2 Energies <==================
	-----------------------------------------------------------
	 SCS Same-Spin Scale       =       0.3333333333333333 [-]
	 SCS Opposite-Spin Scale   =       1.2000000000000000 [-]
	 SCS Same-Spin Energy      =      -0.1113742370662766 [Eh]
	 SCS Opposite-Spin Energy  =      -1.2296193157842343 [Eh]
	 SCS Correlation Energy    =      -1.3409935528505110 [Eh]
	 SCS Total Energy          =    -322.9790280846363544 [Eh]
	-----------------------------------------------------------

  Dipole Moment: [D]
     X:     4.2020      Y:    -1.0801      Z:    -0.0002     Total:     4.3386

*** Psi4 exiting successfully. Buy a developer a beer!
