                               Psi4 1.3.2 release

  ==> Input File <==

--------------------------------------------------------------------------
#psi4
#
memory 32 gb

molecule  {
0 1
  O       -2.3013932     0.0910971     0.0003066
  N       -0.3010450    -1.1173380    -0.0002690
  C        1.1207170     1.2010130     0.0000540
  C        1.8075300    -0.0461910     0.0000640
  C        1.0639000    -1.1911280     0.0001230
  C       -1.0661860     0.0622010    -0.0003390
  C       -0.2468550     1.2588270    -0.0001630
  H        1.6948200     2.1249460     0.0001000
  H        2.8897160    -0.0994500     0.0003790
  H        1.4903610    -2.1891700     0.0001730
  H       -0.7789320     2.2044920     0.0000230
  H       -0.8600860    -1.9666840     0.0000480
units angstrom
no_reorient  #important for SAPT in psi4, default
symmetry c1  #important for SAPT in psi4, default
}

set PROPERTIES_ORIGIN ["COM"]
properties('MP2/aug-cc-pvtz', properties = ['dipole'])
--------------------------------------------------------------------------

    Molecular point group: c1
  Charge       = 0
  Multiplicity = 1
  Basis Set: AUG-CC-PVTZ
    Blend: AUG-CC-PVTZ
  Basis Set: (AUG-CC-PVTZ AUX)
    Blend: AUG-CC-PVTZ-JKFIT

    Orbital Energies [Eh]
    ---------------------

    Doubly Occupied:

       1A    -20.513142     2A    -15.631580     3A    -11.357250
       4A    -11.316989     5A    -11.273840     6A    -11.246552
       7A    -11.241058     8A     -1.371398     9A     -1.277980
      10A     -1.108399    11A     -1.032057    12A     -0.888075
      13A     -0.863435    14A     -0.757110    15A     -0.696212
      16A     -0.678610    17A     -0.639887    18A     -0.613087
      19A     -0.606391    20A     -0.560044    21A     -0.539142
      22A     -0.486862    23A     -0.426165    24A     -0.426088
      25A     -0.316004

  @DF-RHF Final Energy:  -321.67978700590464

   => Energetics <=

    Nuclear Repulsion Energy =            274.4588528082327912
    One-Electron Energy =                -980.5425658185768043
    Two-Electron Energy =                 384.4039260044393700
    Total Energy =                       -321.6797870059046431
  Basis Set: (AUG-CC-PVTZ AUX)
    Blend: AUG-CC-PVTZ-RI
    Molecular point group: c1

    Geometry (in Angstrom), charge = 0, multiplicity = 1:

       Center              X                  Y                   Z               Mass
    ------------   -----------------  -----------------  -----------------  -----------------
         O           -2.255029405035     0.077394014082     0.000319922465    15.994914619570
         N           -0.254681205035    -1.131041085918    -0.000255677535    14.003074004430
         C            1.167080794965     1.187309914082     0.000067322465    12.000000000000
         C            1.853893794965    -0.059894085918     0.000077322465    12.000000000000
         C            1.110263794965    -1.204831085918     0.000136322465    12.000000000000
         C           -1.019822205035     0.048497914082    -0.000325677535    12.000000000000
         C           -0.200491205035     1.245123914082    -0.000149677535    12.000000000000
         H            1.741183794965     2.111242914082     0.000113322465     1.007825032230
         H            2.936079794965    -0.113153085918     0.000392322465     1.007825032230
         H            1.536724794965    -2.202873085918     0.000186322465     1.007825032230
         H           -0.732568205035     2.190788914082     0.000036322465     1.007825032230
         H           -0.813722205035    -1.980387085918     0.000061322465     1.007825032230

  Basis Set: AUG-CC-PVTZ
    Blend: AUG-CC-PVTZ
  Basis Set: (AUG-CC-PVTZ AUX)
    Blend: AUG-CC-PVTZ-JKFIT
	 Reference Energy          =    -321.6797870059046431 [Eh]
	 Singles Energy            =      -0.0000000000000000 [Eh]
	 Same-Spin Energy          =      -0.3356265100142761 [Eh]
	 Opposite-Spin Energy      =      -1.0277265015024142 [Eh]
	 Correlation Energy        =      -1.3633530115166903 [Eh]
	 Total Energy              =    -323.0431400174213081 [Eh]

	 ================> DF-SCS-MP2 Energies <==================
	-----------------------------------------------------------
	 SCS Same-Spin Scale       =       0.3333333333333333 [-]
	 SCS Opposite-Spin Scale   =       1.2000000000000000 [-]
	 SCS Same-Spin Energy      =      -0.1118755033380920 [Eh]
	 SCS Opposite-Spin Energy  =      -1.2332718018028970 [Eh]
	 SCS Correlation Energy    =      -1.3451473051409890 [Eh]
	 SCS Total Energy          =    -323.0249343110456266 [Eh]
	-----------------------------------------------------------

  Dipole Moment: [D]
     X:     4.0485      Y:    -1.4683      Z:    -0.0001     Total:     4.3065

*** Psi4 exiting successfully. Buy a developer a beer!
