                               Psi4 1.3.2 release

  ==> Input File <==

--------------------------------------------------------------------------
#psi4
#
memory 32 gb

molecule  {
0 1
  O       -2.3016492     0.0479714     0.0003651
  N       -0.3010450    -1.1173380    -0.0002690
  C        1.1207170     1.2010130     0.0000540
  C        1.8075300    -0.0461910     0.0000640
  C        1.0639000    -1.1911280     0.0001230
  C       -1.0661860     0.0622010    -0.0003390
  C       -0.2468550     1.2588270    -0.0001630
  H        1.6948200     2.1249460     0.0001000
  H        2.8897160    -0.0994500     0.0003790
  H        1.4903610    -2.1891700     0.0001730
  H       -0.7789320     2.2044920     0.0000230
  H       -0.8600860    -1.9666840     0.0000480
units angstrom
no_reorient  #important for SAPT in psi4, default
symmetry c1  #important for SAPT in psi4, default
}

set PROPERTIES_ORIGIN ["COM"]
properties('MP2/aug-cc-pvtz', properties = ['dipole'])
--------------------------------------------------------------------------

    Molecular point group: c1
  Charge       = 0
  Multiplicity = 1
  Basis Set: AUG-CC-PVTZ
    Blend: AUG-CC-PVTZ
  Basis Set: (AUG-CC-PVTZ AUX)
    Blend: AUG-CC-PVTZ-JKFIT

    Orbital Energies [Eh]
    ---------------------

    Doubly Occupied:

       1A    -20.512592     2A    -15.630173     3A    -11.357127
       4A    -11.317073     5A    -11.275239     6A    -11.246320
       7A    -11.242082     8A     -1.371818     9A     -1.276330
      10A     -1.108792    11A     -1.032372    12A     -0.888558
      13A     -0.863145    14A     -0.756770    15A     -0.696196
      16A     -0.678954    17A     -0.639896    18A     -0.613143
      19A     -0.606054    20A     -0.560138    21A     -0.539746
      22A     -0.486334    23A     -0.426614    24A     -0.426217
      25A     -0.316280

  @DF-RHF Final Energy:  -321.68079664072036

   => Energetics <=

    Nuclear Repulsion Energy =            274.4864600328081110
    One-Electron Energy =                -980.5985881892264615
    Two-Electron Energy =                 384.4313315156979343
    Total Energy =                       -321.6807966407203594
  Basis Set: (AUG-CC-PVTZ AUX)
    Blend: AUG-CC-PVTZ-RI
    Molecular point group: c1

    Geometry (in Angstrom), charge = 0, multiplicity = 1:

       Center              X                  Y                   Z               Mass
    ------------   -----------------  -----------------  -----------------  -----------------
         O           -2.255242319782     0.041526445795     0.000368576811    15.994914619570
         N           -0.254638119782    -1.123782954205    -0.000265523189    14.003074004430
         C            1.167123880218     1.194568045795     0.000057476811    12.000000000000
         C            1.853936880218    -0.052635954205     0.000067476811    12.000000000000
         C            1.110306880218    -1.197572954205     0.000126476811    12.000000000000
         C           -1.019779119782     0.055756045795    -0.000335523189    12.000000000000
         C           -0.200448119782     1.252382045795    -0.000159523189    12.000000000000
         H            1.741226880218     2.118501045795     0.000103476811     1.007825032230
         H            2.936122880218    -0.105894954205     0.000382476811     1.007825032230
         H            1.536767880218    -2.195614954205     0.000176476811     1.007825032230
         H           -0.732525119782     2.198047045795     0.000026476811     1.007825032230
         H           -0.813679119782    -1.973128954205     0.000051476811     1.007825032230

  Basis Set: AUG-CC-PVTZ
    Blend: AUG-CC-PVTZ
  Basis Set: (AUG-CC-PVTZ AUX)
    Blend: AUG-CC-PVTZ-JKFIT
	 Reference Energy          =    -321.6807966407203594 [Eh]
	 Singles Energy            =      -0.0000000000000000 [Eh]
	 Same-Spin Energy          =      -0.3356184301730148 [Eh]
	 Opposite-Spin Energy      =      -1.0275677169556996 [Eh]
	 Correlation Energy        =      -1.3631861471287143 [Eh]
	 Total Energy              =    -323.0439827878490746 [Eh]

	 ================> DF-SCS-MP2 Energies <==================
	-----------------------------------------------------------
	 SCS Same-Spin Scale       =       0.3333333333333333 [-]
	 SCS Opposite-Spin Scale   =       1.2000000000000000 [-]
	 SCS Same-Spin Energy      =      -0.1118728100576716 [Eh]
	 SCS Opposite-Spin Energy  =      -1.2330812603468395 [Eh]
	 SCS Correlation Energy    =      -1.3449540704045111 [Eh]
	 SCS Total Energy          =    -323.0257507111248856 [Eh]
	-----------------------------------------------------------

  Dipole Moment: [D]
     X:     4.0705      Y:    -1.3840      Z:    -0.0002     Total:     4.2993

*** Psi4 exiting successfully. Buy a developer a beer!
