                               Psi4 1.4a3.dev225

  ==> Input File <==

--------------------------------------------------------------------------
#psi4
#
memory 32 gb

molecule  {
0 1
  O       -2.3004660     0.0048580     0.0000370
  N       -0.3010810    -1.1172490    -0.0000470
  C        1.1208650     1.2009110     0.0000070
  C        1.8075990    -0.0462550     0.0000170
  C        1.0636490    -1.1911890     0.0000110
  C       -1.0661180     0.0623530    -0.0000030
  C       -0.2468310     1.2588000    -0.0000340
  H        1.6947520     2.1250290     0.0000060
  H        2.8897650    -0.0997760     0.0000620
  H        1.4903730    -2.1891750     0.0000000
  H       -0.7785610     2.2046570    -0.0000350
  H       -0.8325247    -1.9248128     0.0000034
units angstrom
no_reorient  #important for SAPT in psi4, default
symmetry c1  #important for SAPT in psi4, default
}

set PROPERTIES_ORIGIN ["COM"]
properties('MP2/aug-cc-pvtz', properties = ['dipole'])
--------------------------------------------------------------------------

    Molecular point group: c1
  Charge       = 0
  Multiplicity = 1
  Basis Set: AUG-CC-PVTZ
    Blend: AUG-CC-PVTZ
  Basis Set: (AUG-CC-PVTZ AUX)
    Blend: AUG-CC-PVTZ-JKFIT

    Orbital Energies [Eh]
    ---------------------

    Doubly Occupied:

       1A    -20.512521     2A    -15.624303     3A    -11.357375
       4A    -11.317380     5A    -11.276953     6A    -11.246449
       7A    -11.243293     8A     -1.373960     9A     -1.278873
      10A     -1.111799    11A     -1.033180    12A     -0.893459
      13A     -0.864480    14A     -0.763725    15A     -0.697459
      16A     -0.681638    17A     -0.641565    18A     -0.613575
      19A     -0.606549    20A     -0.561358    21A     -0.541289
      22A     -0.486258    23A     -0.427219    24A     -0.427021
      25A     -0.316914

  @DF-RHF Final Energy:  -321.68089210198087

   => Energetics <=

    Nuclear Repulsion Energy =            274.8406101217006494
    One-Electron Energy =                -981.2458151283462939
    Two-Electron Energy =                 384.7243129046648278
    Total Energy =                       -321.6808921019808736
  Basis Set: (AUG-CC-PVTZ AUX)
    Blend: AUG-CC-PVTZ-RI
    Molecular point group: c1

    Geometry (in Angstrom), charge = 0, multiplicity = 1:

       Center              X                  Y                   Z               Mass
    ------------   -----------------  -----------------  -----------------  -----------------
         O           -2.254556408544     0.005225728320     0.000037564493    15.994914619570
         N           -0.255171408544    -1.116881271680    -0.000046435507    14.003074004430
         C            1.166774591456     1.201278728320     0.000007564493    12.000000000000
         C            1.853508591456    -0.045887271680     0.000017564493    12.000000000000
         C            1.109558591456    -1.190821271680     0.000011564493    12.000000000000
         C           -1.020208408544     0.062720728320    -0.000002435507    12.000000000000
         C           -0.200921408544     1.259167728320    -0.000033435507    12.000000000000
         H            1.740661591456     2.125396728320     0.000006564493     1.007825032230
         H            2.935674591456    -0.099408271680     0.000062564493     1.007825032230
         H            1.536282591456    -2.188807271680     0.000000564493     1.007825032230
         H           -0.732651408544     2.205024728320    -0.000034435507     1.007825032230
         H           -0.786615108544    -1.924445071680     0.000003964493     1.007825032230

  Basis Set: AUG-CC-PVTZ
    Blend: AUG-CC-PVTZ
  Basis Set: (AUG-CC-PVTZ AUX)
    Blend: AUG-CC-PVTZ-JKFIT
	 Reference Energy          =    -321.6808921019808736 [Eh]
	 Singles Energy            =      -0.0000000000000000 [Eh]
	 Same-Spin Energy          =      -0.3352157808967340 [Eh]
	 Opposite-Spin Energy      =      -1.0265782129504513 [Eh]
	 Correlation Energy        =      -1.3617939938471852 [Eh]
	 Total Energy              =    -323.0426860958280599 [Eh]

	 ================> DF-SCS-MP2 Energies <==================
	-----------------------------------------------------------
	 SCS Same-Spin Scale       =       0.3333333333333333 [-]
	 SCS Opposite-Spin Scale   =       1.2000000000000000 [-]
	 SCS Same-Spin Energy      =      -0.1117385936322447 [Eh]
	 SCS Opposite-Spin Energy  =      -1.2318938555405414 [Eh]
	 SCS Correlation Energy    =      -1.3436324491727860 [Eh]
	 SCS Total Energy          =    -323.0245245511536609 [Eh]
	-----------------------------------------------------------

  Dipole Moment: [D]
     X:     4.1187      Y:    -1.2454      Z:     0.0000     Total:     4.3029

*** Psi4 exiting successfully. Buy a developer a beer!
