                               Psi4 1.3.2 release

  ==> Input File <==

--------------------------------------------------------------------------
#psi4
#
memory 32 gb

molecule  {
0 1
  O       -2.3004000     0.0048630     0.0003410
  N       -0.3021249    -1.1411708    -0.0002711
  C        1.1207170     1.2010130     0.0000540
  C        1.8075300    -0.0461910     0.0000640
  C        1.0639000    -1.1911280     0.0001230
  C       -1.0661860     0.0622010    -0.0003390
  C       -0.2468550     1.2588270    -0.0001630
  H        1.6948200     2.1249460     0.0001000
  H        2.8897160    -0.0994500     0.0003790
  H        1.4903610    -2.1891700     0.0001730
  H       -0.7789320     2.2044920     0.0000230
  H       -0.8600860    -1.9666840     0.0000480
units angstrom
no_reorient  #important for SAPT in psi4, default
symmetry c1  #important for SAPT in psi4, default
}

set PROPERTIES_ORIGIN ["COM"]
properties('MP2/aug-cc-pvtz', properties = ['dipole'])
--------------------------------------------------------------------------

    Molecular point group: c1
  Charge       = 0
  Multiplicity = 1
  Basis Set: AUG-CC-PVTZ
    Blend: AUG-CC-PVTZ
  Basis Set: (AUG-CC-PVTZ AUX)
    Blend: AUG-CC-PVTZ-JKFIT

    Orbital Energies [Eh]
    ---------------------

    Doubly Occupied:

       1A    -20.514191     2A    -15.626929     3A    -11.359308
       4A    -11.317328     5A    -11.277340     6A    -11.245429
       7A    -11.243171     8A     -1.371979     9A     -1.273498
      10A     -1.110146    11A     -1.030606    12A     -0.890814
      13A     -0.859793    14A     -0.759195    15A     -0.694276
      16A     -0.681309    17A     -0.640865    18A     -0.612969
      19A     -0.603018    20A     -0.562013    21A     -0.540408
      22A     -0.486907    23A     -0.427416    24A     -0.426897
      25A     -0.315891

  @DF-RHF Final Energy:  -321.68065709736123

   => Energetics <=

    Nuclear Repulsion Energy =            274.1235516638188301
    One-Electron Energy =                -979.8650280436717139
    Two-Electron Energy =                 384.0608192824916500
    Total Energy =                       -321.6806570973612338
  Basis Set: (AUG-CC-PVTZ AUX)
    Blend: AUG-CC-PVTZ-RI
    Molecular point group: c1

    Geometry (in Angstrom), charge = 0, multiplicity = 1:

       Center              X                  Y                   Z               Mass
    ------------   -----------------  -----------------  -----------------  -----------------
         O           -2.254044246416     0.009184867290     0.000348842304    15.994914619570
         N           -0.255769146416    -1.136848932710    -0.000263257696    14.003074004430
         C            1.167072753584     1.205334867290     0.000061842304    12.000000000000
         C            1.853885753584    -0.041869132710     0.000071842304    12.000000000000
         C            1.110255753584    -1.186806132710     0.000130842304    12.000000000000
         C           -1.019830246416     0.066522867290    -0.000331157696    12.000000000000
         C           -0.200499246416     1.263148867290    -0.000155157696    12.000000000000
         H            1.741175753584     2.129267867290     0.000107842304     1.007825032230
         H            2.936071753584    -0.095128132710     0.000386842304     1.007825032230
         H            1.536716753584    -2.184848132710     0.000180842304     1.007825032230
         H           -0.732576246416     2.208813867290     0.000030842304     1.007825032230
         H           -0.813730246416    -1.962362132710     0.000055842304     1.007825032230

  Basis Set: AUG-CC-PVTZ
    Blend: AUG-CC-PVTZ
  Basis Set: (AUG-CC-PVTZ AUX)
    Blend: AUG-CC-PVTZ-JKFIT
	 Reference Energy          =    -321.6806570973612338 [Eh]
	 Singles Energy            =      -0.0000000000000000 [Eh]
	 Same-Spin Energy          =      -0.3354358740015770 [Eh]
	 Opposite-Spin Energy      =      -1.0273193340654996 [Eh]
	 Correlation Energy        =      -1.3627552080670766 [Eh]
	 Total Energy              =    -323.0434123054283191 [Eh]

	 ================> DF-SCS-MP2 Energies <==================
	-----------------------------------------------------------
	 SCS Same-Spin Scale       =       0.3333333333333333 [-]
	 SCS Opposite-Spin Scale   =       1.2000000000000000 [-]
	 SCS Same-Spin Energy      =      -0.1118119580005257 [Eh]
	 SCS Opposite-Spin Energy  =      -1.2327832008785995 [Eh]
	 SCS Correlation Energy    =      -1.3445951588791252 [Eh]
	 SCS Total Energy          =    -323.0252522562403783 [Eh]
	-----------------------------------------------------------

  Dipole Moment: [D]
     X:     4.0204      Y:    -1.2504      Z:    -0.0002     Total:     4.2104

*** Psi4 exiting successfully. Buy a developer a beer!
