                               Psi4 1.3.2 release

  ==> Input File <==

--------------------------------------------------------------------------
#psi4
#
memory 32 gb

molecule  {
0 1
  O       -2.3004000     0.0048630     0.0003410
  N       -0.3010450    -1.1173380    -0.0002690
  C        1.1207170     1.2010130     0.0000540
  C        1.8075300    -0.0461910     0.0000640
  C        1.0639000    -1.1911280     0.0001230
  C       -1.0117652    -0.0216940    -0.0003340
  C       -0.2468550     1.2588270    -0.0001630
  H        1.6948200     2.1249460     0.0001000
  H        2.8897160    -0.0994500     0.0003790
  H        1.4903610    -2.1891700     0.0001730
  H       -0.7789320     2.2044920     0.0000230
  H       -0.8600860    -1.9666840     0.0000480
units angstrom
no_reorient  #important for SAPT in psi4, default
symmetry c1  #important for SAPT in psi4, default
}

set PROPERTIES_ORIGIN ["COM"]
properties('MP2/aug-cc-pvtz', properties = ['dipole'])
--------------------------------------------------------------------------

    Molecular point group: c1
  Charge       = 0
  Multiplicity = 1
  Basis Set: AUG-CC-PVTZ
    Blend: AUG-CC-PVTZ
  Basis Set: (AUG-CC-PVTZ AUX)
    Blend: AUG-CC-PVTZ-JKFIT

    Orbital Energies [Eh]
    ---------------------

    Doubly Occupied:

       1A    -20.497092     2A    -15.639540     3A    -11.353341
       4A    -11.318672     5A    -11.272930     6A    -11.255499
       7A    -11.251630     8A     -1.366067     9A     -1.272590
      10A     -1.115812    11A     -1.037253    12A     -0.894504
      13A     -0.877841    14A     -0.765966    15A     -0.701060
      16A     -0.678491    17A     -0.647333    18A     -0.620842
      19A     -0.601297    20A     -0.550282    21A     -0.539535
      22A     -0.467447    23A     -0.430511    24A     -0.413099
      25A     -0.319580

  @DF-RHF Final Energy:  -321.66858870453063

   => Energetics <=

    Nuclear Repulsion Energy =            275.0298432840910436
    One-Electron Energy =                -981.6204389642126671
    Two-Electron Energy =                 384.9220069755909890
    Total Energy =                       -321.6685887045306345
  Basis Set: (AUG-CC-PVTZ AUX)
    Blend: AUG-CC-PVTZ-RI
    Molecular point group: c1

    Geometry (in Angstrom), charge = 0, multiplicity = 1:

       Center              X                  Y                   Z               Mass
    ------------   -----------------  -----------------  -----------------  -----------------
         O           -2.261074884163     0.016266390613     0.000347901551    15.994914619570
         N           -0.261719884163    -1.105934609387    -0.000262098449    14.003074004430
         C            1.160042115837     1.212416390613     0.000060901551    12.000000000000
         C            1.846855115837    -0.034787609387     0.000070901551    12.000000000000
         C            1.103225115837    -1.179724609387     0.000129901551    12.000000000000
         C           -0.972440084163    -0.010290609387    -0.000327098449    12.000000000000
         C           -0.207529884163     1.270230390613    -0.000156098449    12.000000000000
         H            1.734145115837     2.136349390613     0.000106901551     1.007825032230
         H            2.929041115837    -0.088046609387     0.000385901551     1.007825032230
         H            1.529686115837    -2.177766609387     0.000179901551     1.007825032230
         H           -0.739606884163     2.215895390613     0.000029901551     1.007825032230
         H           -0.820760884163    -1.955280609387     0.000054901551     1.007825032230

  Basis Set: AUG-CC-PVTZ
    Blend: AUG-CC-PVTZ
  Basis Set: (AUG-CC-PVTZ AUX)
    Blend: AUG-CC-PVTZ-JKFIT
	 Reference Energy          =    -321.6685887045306345 [Eh]
	 Singles Energy            =      -0.0000000000000000 [Eh]
	 Same-Spin Energy          =      -0.3357851077945958 [Eh]
	 Opposite-Spin Energy      =      -1.0283850059606445 [Eh]
	 Correlation Energy        =      -1.3641701137552404 [Eh]
	 Total Energy              =    -323.0327588182858563 [Eh]

	 ================> DF-SCS-MP2 Energies <==================
	-----------------------------------------------------------
	 SCS Same-Spin Scale       =       0.3333333333333333 [-]
	 SCS Opposite-Spin Scale   =       1.2000000000000000 [-]
	 SCS Same-Spin Energy      =      -0.1119283692648653 [Eh]
	 SCS Opposite-Spin Energy  =      -1.2340620071527735 [Eh]
	 SCS Correlation Energy    =      -1.3459903764176389 [Eh]
	 SCS Total Energy          =    -323.0145790809482946 [Eh]
	-----------------------------------------------------------

  Dipole Moment: [D]
     X:     4.6609      Y:    -1.4900      Z:    -0.0003     Total:     4.8932

*** Psi4 exiting successfully. Buy a developer a beer!
