                               Psi4 1.3.2 release

  ==> Input File <==

--------------------------------------------------------------------------
#psi4
#
memory 32 gb

molecule  {
0 1
  O       -2.3004000     0.0048630     0.0003410
  N       -0.3010450    -1.1173380    -0.0002690
  C        1.1207170     1.2010130     0.0000540
  C        1.8075300    -0.0461910     0.0000640
  C        1.0639000    -1.1911280     0.0001230
  C       -1.1206068     0.1460960    -0.0003440
  C       -0.2468550     1.2588270    -0.0001630
  H        1.6948200     2.1249460     0.0001000
  H        2.8897160    -0.0994500     0.0003790
  H        1.4903610    -2.1891700     0.0001730
  H       -0.7789320     2.2044920     0.0000230
  H       -0.8600860    -1.9666840     0.0000480
units angstrom
no_reorient  #important for SAPT in psi4, default
symmetry c1  #important for SAPT in psi4, default
}

set PROPERTIES_ORIGIN ["COM"]
properties('MP2/aug-cc-pvtz', properties = ['dipole'])
--------------------------------------------------------------------------

    Molecular point group: c1
  Charge       = 0
  Multiplicity = 1
  Basis Set: AUG-CC-PVTZ
    Blend: AUG-CC-PVTZ
  Basis Set: (AUG-CC-PVTZ AUX)
    Blend: AUG-CC-PVTZ-JKFIT

    Orbital Energies [Eh]
    ---------------------

    Doubly Occupied:

       1A    -20.526509     2A    -15.615244     3A    -11.360586
       4A    -11.314541     5A    -11.280529     6A    -11.237751
       7A    -11.236397     8A     -1.402357     9A     -1.259162
      10A     -1.104473    11A     -1.029329    12A     -0.891011
      13A     -0.844317    14A     -0.747399    15A     -0.693283
      16A     -0.681234    17A     -0.631840    18A     -0.627310
      19A     -0.599578    20A     -0.566370    21A     -0.537459
      22A     -0.502221    23A     -0.432632    24A     -0.420620
      25A     -0.313466

  @DF-RHF Final Energy:  -321.67202690386921

   => Energetics <=

    Nuclear Repulsion Energy =            274.1447955803721470
    One-Electron Energy =                -979.9224161904965058
    Two-Electron Energy =                 384.1055937062551493
    Total Energy =                       -321.6720269038692095
  Basis Set: (AUG-CC-PVTZ AUX)
    Blend: AUG-CC-PVTZ-RI
    Molecular point group: c1

    Geometry (in Angstrom), charge = 0, multiplicity = 1:

       Center              X                  Y                   Z               Mass
    ------------   -----------------  -----------------  -----------------  -----------------
         O           -2.247331840546    -0.004919858841     0.000349164216    15.994914619570
         N           -0.247976840546    -1.127120858841    -0.000260835784    14.003074004430
         C            1.173785159454     1.191230141159     0.000062164216    12.000000000000
         C            1.860598159454    -0.055973858841     0.000072164216    12.000000000000
         C            1.116968159454    -1.200910858841     0.000131164216    12.000000000000
         C           -1.067538640546     0.136313141159    -0.000335835784    12.000000000000
         C           -0.193786840546     1.249044141159    -0.000154835784    12.000000000000
         H            1.747888159454     2.115163141159     0.000108164216     1.007825032230
         H            2.942784159454    -0.109232858841     0.000387164216     1.007825032230
         H            1.543429159454    -2.198952858841     0.000181164216     1.007825032230
         H           -0.725863840546     2.194709141159     0.000031164216     1.007825032230
         H           -0.807017840546    -1.976466858841     0.000056164216     1.007825032230

  Basis Set: AUG-CC-PVTZ
    Blend: AUG-CC-PVTZ
  Basis Set: (AUG-CC-PVTZ AUX)
    Blend: AUG-CC-PVTZ-JKFIT
	 Reference Energy          =    -321.6720269038692095 [Eh]
	 Singles Energy            =      -0.0000000000000000 [Eh]
	 Same-Spin Energy          =      -0.3359926228273675 [Eh]
	 Opposite-Spin Energy      =      -1.0274352711234886 [Eh]
	 Correlation Energy        =      -1.3634278939508562 [Eh]
	 Total Energy              =    -323.0354547978200799 [Eh]

	 ================> DF-SCS-MP2 Energies <==================
	-----------------------------------------------------------
	 SCS Same-Spin Scale       =       0.3333333333333333 [-]
	 SCS Opposite-Spin Scale   =       1.2000000000000000 [-]
	 SCS Same-Spin Energy      =      -0.1119975409424558 [Eh]
	 SCS Opposite-Spin Energy  =      -1.2329223253481862 [Eh]
	 SCS Correlation Energy    =      -1.3449198662906421 [Eh]
	 SCS Total Energy          =    -323.0169467701598478 [Eh]
	-----------------------------------------------------------

  Dipole Moment: [D]
     X:     3.5157      Y:    -1.0921      Z:    -0.0001     Total:     3.6814

*** Psi4 exiting successfully. Buy a developer a beer!
