                               Psi4 1.3.2 release

  ==> Input File <==

--------------------------------------------------------------------------
#psi4
#
memory 32 gb

molecule  {
0 1
  O       -2.2976471    -0.0381755     0.0003161
  N       -0.3010450    -1.1173380    -0.0002690
  C        1.1207170     1.2010130     0.0000540
  C        1.8075300    -0.0461910     0.0000640
  C        1.0639000    -1.1911280     0.0001230
  C       -1.0661860     0.0622010    -0.0003390
  C       -0.2468550     1.2588270    -0.0001630
  H        1.6948200     2.1249460     0.0001000
  H        2.8897160    -0.0994500     0.0003790
  H        1.4903610    -2.1891700     0.0001730
  H       -0.7789320     2.2044920     0.0000230
  H       -0.8600860    -1.9666840     0.0000480
units angstrom
no_reorient  #important for SAPT in psi4, default
symmetry c1  #important for SAPT in psi4, default
}

set PROPERTIES_ORIGIN ["COM"]
properties('MP2/aug-cc-pvtz', properties = ['dipole'])
--------------------------------------------------------------------------

    Molecular point group: c1
  Charge       = 0
  Multiplicity = 1
  Basis Set: AUG-CC-PVTZ
    Blend: AUG-CC-PVTZ
  Basis Set: (AUG-CC-PVTZ AUX)
    Blend: AUG-CC-PVTZ-JKFIT

    Orbital Energies [Eh]
    ---------------------

    Doubly Occupied:

       1A    -20.511367     2A    -15.627251     3A    -11.356990
       4A    -11.317053     5A    -11.277851     6A    -11.245737
       7A    -11.244056     8A     -1.373101     9A     -1.272815
      10A     -1.109436    11A     -1.032801    12A     -0.889462
      13A     -0.862413    14A     -0.755945    15A     -0.696145
      16A     -0.679640    17A     -0.639893    18A     -0.612953
      19A     -0.605433    20A     -0.560369    21A     -0.540733
      22A     -0.485306    23A     -0.426933    24A     -0.426338
      25A     -0.316627

  @DF-RHF Final Energy:  -321.68093427325402

   => Energetics <=

    Nuclear Repulsion Energy =            274.6009228146134546
    One-Electron Energy =                -980.8304199848230382
    Two-Electron Energy =                 384.5485628969555592
    Total Energy =                       -321.6809342732540244
  Basis Set: (AUG-CC-PVTZ AUX)
    Blend: AUG-CC-PVTZ-RI
    Molecular point group: c1

    Geometry (in Angstrom), charge = 0, multiplicity = 1:

       Center              X                  Y                   Z               Mass
    ------------   -----------------  -----------------  -----------------  -----------------
         O           -2.251913780302    -0.030121778316     0.000327823598    15.994914619570
         N           -0.255311680302    -1.109284278316    -0.000257276402    14.003074004430
         C            1.166450319698     1.209066721684     0.000065723598    12.000000000000
         C            1.853263319698    -0.038137278316     0.000075723598    12.000000000000
         C            1.109633319698    -1.183074278316     0.000134723598    12.000000000000
         C           -1.020452680302     0.070254721684    -0.000327276402    12.000000000000
         C           -0.201121680302     1.266880721684    -0.000151276402    12.000000000000
         H            1.740553319698     2.132999721684     0.000111723598     1.007825032230
         H            2.935449319698    -0.091396278316     0.000390723598     1.007825032230
         H            1.536094319698    -2.181116278316     0.000184723598     1.007825032230
         H           -0.733198680302     2.212545721684     0.000034723598     1.007825032230
         H           -0.814352680302    -1.958630278316     0.000059723598     1.007825032230

  Basis Set: AUG-CC-PVTZ
    Blend: AUG-CC-PVTZ
  Basis Set: (AUG-CC-PVTZ AUX)
    Blend: AUG-CC-PVTZ-JKFIT
	 Reference Energy          =    -321.6809342732540244 [Eh]
	 Singles Energy            =      -0.0000000000000000 [Eh]
	 Same-Spin Energy          =      -0.3356701066338894 [Eh]
	 Opposite-Spin Energy      =      -1.0273744902386313 [Eh]
	 Correlation Energy        =      -1.3630445968725207 [Eh]
	 Total Energy              =    -323.0439788701265229 [Eh]

	 ================> DF-SCS-MP2 Energies <==================
	-----------------------------------------------------------
	 SCS Same-Spin Scale       =       0.3333333333333333 [-]
	 SCS Opposite-Spin Scale   =       1.2000000000000000 [-]
	 SCS Same-Spin Energy      =      -0.1118900355446298 [Eh]
	 SCS Opposite-Spin Energy  =      -1.2328493882863574 [Eh]
	 SCS Correlation Energy    =      -1.3447394238309871 [Eh]
	 SCS Total Energy          =    -323.0256736970850397 [Eh]
	-----------------------------------------------------------

  Dipole Moment: [D]
     X:     4.1004      Y:    -1.2156      Z:    -0.0001     Total:     4.2768

*** Psi4 exiting successfully. Buy a developer a beer!
