                               Psi4 1.3.2 release

  ==> Input File <==

--------------------------------------------------------------------------
#psi4
#
memory 32 gb

molecule  {
0 1
  O       -2.3004000     0.0048630     0.0003410
  N       -0.3010450    -1.1173380    -0.0002690
  C        1.1207170     1.2010130     0.0000540
  C        1.8075300    -0.0461910     0.0000640
  C        1.0639000    -1.1911280     0.0001230
  C       -0.9573443    -0.1055890    -0.0003290
  C       -0.2468550     1.2588270    -0.0001630
  H        1.6948200     2.1249460     0.0001000
  H        2.8897160    -0.0994500     0.0003790
  H        1.4903610    -2.1891700     0.0001730
  H       -0.7789320     2.2044920     0.0000230
  H       -0.8600860    -1.9666840     0.0000480
units angstrom
no_reorient  #important for SAPT in psi4, default
symmetry c1  #important for SAPT in psi4, default
}

set PROPERTIES_ORIGIN ["COM"]
properties('MP2/aug-cc-pvtz', properties = ['dipole'])
--------------------------------------------------------------------------

    Molecular point group: c1
  Charge       = 0
  Multiplicity = 1
  Basis Set: AUG-CC-PVTZ
    Blend: AUG-CC-PVTZ
  Basis Set: (AUG-CC-PVTZ AUX)
    Blend: AUG-CC-PVTZ-JKFIT

    Orbital Energies [Eh]
    ---------------------

    Doubly Occupied:

       1A    -20.481372     2A    -15.648433     3A    -11.347369
       4A    -11.319540     5A    -11.269735     6A    -11.265981
       7A    -11.261217     8A     -1.393683     9A     -1.245562
      10A     -1.124522    11A     -1.042795    12A     -0.911552
      13A     -0.884472    14A     -0.776052    15A     -0.706269
      16A     -0.678094    17A     -0.652723    18A     -0.643711
      19A     -0.594931    20A     -0.553840    21A     -0.514712
      22A     -0.457798    23A     -0.426632    24A     -0.394662
      25A     -0.322793

  @DF-RHF Final Energy:  -321.62537926964779

   => Energetics <=

    Nuclear Repulsion Energy =            275.7100060317717407
    One-Electron Energy =                -982.8338714631044013
    Two-Electron Energy =                 385.4984861616848661
    Total Energy =                       -321.6253792696477944
  Basis Set: (AUG-CC-PVTZ AUX)
    Blend: AUG-CC-PVTZ-RI
    Molecular point group: c1

    Geometry (in Angstrom), charge = 0, multiplicity = 1:

       Center              X                  Y                   Z               Mass
    ------------   -----------------  -----------------  -----------------  -----------------
         O           -2.267946418599     0.026859515340     0.000347270219    15.994914619570
         N           -0.268591418599    -1.095341484660    -0.000262729781    14.003074004430
         C            1.153170581401     1.223009515340     0.000060270219    12.000000000000
         C            1.839983581401    -0.024194484660     0.000070270219    12.000000000000
         C            1.096353581401    -1.169131484660     0.000129270219    12.000000000000
         C           -0.924890718599    -0.083592484660    -0.000322729781    12.000000000000
         C           -0.214401418599     1.280823515340    -0.000156729781    12.000000000000
         H            1.727273581401     2.146942515340     0.000106270219     1.007825032230
         H            2.922169581401    -0.077453484660     0.000385270219     1.007825032230
         H            1.522814581401    -2.167173484660     0.000179270219     1.007825032230
         H           -0.746478418599     2.226488515340     0.000029270219     1.007825032230
         H           -0.827632418599    -1.944687484660     0.000054270219     1.007825032230

  Basis Set: AUG-CC-PVTZ
    Blend: AUG-CC-PVTZ
  Basis Set: (AUG-CC-PVTZ AUX)
    Blend: AUG-CC-PVTZ-JKFIT
	 Reference Energy          =    -321.6253792696477944 [Eh]
	 Singles Energy            =      -0.0000000000000000 [Eh]
	 Same-Spin Energy          =      -0.3360672888157303 [Eh]
	 Opposite-Spin Energy      =      -1.0297507239945212 [Eh]
	 Correlation Energy        =      -1.3658180128102515 [Eh]
	 Total Energy              =    -322.9911972824580744 [Eh]

	 ================> DF-SCS-MP2 Energies <==================
	-----------------------------------------------------------
	 SCS Same-Spin Scale       =       0.3333333333333333 [-]
	 SCS Opposite-Spin Scale   =       1.2000000000000000 [-]
	 SCS Same-Spin Energy      =      -0.1120224296052434 [Eh]
	 SCS Opposite-Spin Energy  =      -1.2357008687934254 [Eh]
	 SCS Correlation Energy    =      -1.3477232983986689 [Eh]
	 SCS Total Energy          =    -322.9731025680464427 [Eh]
	-----------------------------------------------------------

  Dipole Moment: [D]
     X:     5.2797      Y:    -1.6695      Z:    -0.0004     Total:     5.5374

*** Psi4 exiting successfully. Buy a developer a beer!
