                               Psi4 1.4a3.dev225

  ==> Input File <==

--------------------------------------------------------------------------
#psi4
#
memory 32 gb

molecule  {
0 1
  O       -2.3004660     0.0048580     0.0000370
  N       -0.3010810    -1.1172490    -0.0000470
  C        1.1208650     1.2009110     0.0000070
  C        1.8075990    -0.0462550     0.0000170
  C        1.0836197    -1.1922710     0.0000118
  C       -1.0661180     0.0623530    -0.0000030
  C       -0.2468310     1.2588000    -0.0000340
  H        1.6947520     2.1250290     0.0000060
  H        2.8897650    -0.0997760     0.0000620
  H        1.4903730    -2.1891750     0.0000000
  H       -0.7785610     2.2046570    -0.0000350
  H       -0.8600110    -1.9665800     0.0000060
units angstrom
no_reorient  #important for SAPT in psi4, default
symmetry c1  #important for SAPT in psi4, default
}

set PROPERTIES_ORIGIN ["COM"]
properties('MP2/aug-cc-pvtz', properties = ['dipole'])
--------------------------------------------------------------------------

    Molecular point group: c1
  Charge       = 0
  Multiplicity = 1
  Basis Set: AUG-CC-PVTZ
    Blend: AUG-CC-PVTZ
  Basis Set: (AUG-CC-PVTZ AUX)
    Blend: AUG-CC-PVTZ-JKFIT

    Orbital Energies [Eh]
    ---------------------

    Doubly Occupied:

       1A    -20.511834     2A    -15.626227     3A    -11.356740
       4A    -11.315809     5A    -11.277151     6A    -11.246553
       7A    -11.244554     8A     -1.370932     9A     -1.268501
      10A     -1.109486    11A     -1.034493    12A     -0.889442
      13A     -0.860485    14A     -0.753315    15A     -0.695155
      16A     -0.681444    17A     -0.639387    18A     -0.614352
      19A     -0.602824    20A     -0.559041    21A     -0.542494
      22A     -0.484858    23A     -0.426621    24A     -0.425450
      25A     -0.319070

  @DF-RHF Final Energy:  -321.68066095042383

   => Energetics <=

    Nuclear Repulsion Energy =            274.3005818362623245
    One-Electron Energy =                -980.2500490120103223
    Two-Electron Energy =                 384.2688062253241128
    Total Energy =                       -321.6806609504238281
  Basis Set: (AUG-CC-PVTZ AUX)
    Blend: AUG-CC-PVTZ-RI
    Molecular point group: c1

    Geometry (in Angstrom), charge = 0, multiplicity = 1:

       Center              X                  Y                   Z               Mass
    ------------   -----------------  -----------------  -----------------  -----------------
         O           -2.256786558539     0.005805270643     0.000037435908    15.994914619570
         N           -0.257401558539    -1.116301729357    -0.000046564092    14.003074004430
         C            1.164544441461     1.201858270643     0.000007435908    12.000000000000
         C            1.851278441461    -0.045307729357     0.000017435908    12.000000000000
         C            1.127299141461    -1.191323729357     0.000012235908    12.000000000000
         C           -1.022438558539     0.063300270643    -0.000002564092    12.000000000000
         C           -0.203151558539     1.259747270643    -0.000033564092    12.000000000000
         H            1.738431441461     2.125976270643     0.000006435908     1.007825032230
         H            2.933444441461    -0.098828729357     0.000062435908     1.007825032230
         H            1.534052441461    -2.188227729357     0.000000435908     1.007825032230
         H           -0.734881558539     2.205604270643    -0.000034564092     1.007825032230
         H           -0.816331558539    -1.965632729357     0.000006435908     1.007825032230

  Basis Set: AUG-CC-PVTZ
    Blend: AUG-CC-PVTZ
  Basis Set: (AUG-CC-PVTZ AUX)
    Blend: AUG-CC-PVTZ-JKFIT
	 Reference Energy          =    -321.6806609504238281 [Eh]
	 Singles Energy            =      -0.0000000000000000 [Eh]
	 Same-Spin Energy          =      -0.3354042594037060 [Eh]
	 Opposite-Spin Energy      =      -1.0275542896995378 [Eh]
	 Correlation Energy        =      -1.3629585491032437 [Eh]
	 Total Energy              =    -323.0436194995270967 [Eh]

	 ================> DF-SCS-MP2 Energies <==================
	-----------------------------------------------------------
	 SCS Same-Spin Scale       =       0.3333333333333333 [-]
	 SCS Opposite-Spin Scale   =       1.2000000000000000 [-]
	 SCS Same-Spin Energy      =      -0.1118014198012353 [Eh]
	 SCS Opposite-Spin Energy  =      -1.2330651476394452 [Eh]
	 SCS Correlation Energy    =      -1.3448665674406806 [Eh]
	 SCS Total Energy          =    -323.0255275178645320 [Eh]
	-----------------------------------------------------------

  Dipole Moment: [D]
     X:     4.1293      Y:    -1.2568      Z:     0.0000     Total:     4.3163

*** Psi4 exiting successfully. Buy a developer a beer!
