                               Psi4 1.4a3.dev225

  ==> Input File <==

--------------------------------------------------------------------------
#psi4
#
memory 32 gb

molecule  {
0 1
  O       -2.3004660     0.0048580     0.0000370
  N       -0.3010810    -1.1172490    -0.0000470
  C        1.1208650     1.2009110     0.0000070
  C        1.8075990    -0.0462550     0.0000170
  C        1.0636490    -1.1911890     0.0000110
  C       -1.0461397     0.0632836    -0.0000036
  C       -0.2468310     1.2588000    -0.0000340
  H        1.6947520     2.1250290     0.0000060
  H        2.8897650    -0.0997760     0.0000620
  H        1.4903730    -2.1891750     0.0000000
  H       -0.7785610     2.2046570    -0.0000350
  H       -0.8600110    -1.9665800     0.0000060
units angstrom
no_reorient  #important for SAPT in psi4, default
symmetry c1  #important for SAPT in psi4, default
}

set PROPERTIES_ORIGIN ["COM"]
properties('MP2/aug-cc-pvtz', properties = ['dipole'])
--------------------------------------------------------------------------

    Molecular point group: c1
  Charge       = 0
  Multiplicity = 1
  Basis Set: AUG-CC-PVTZ
    Blend: AUG-CC-PVTZ
  Basis Set: (AUG-CC-PVTZ AUX)
    Blend: AUG-CC-PVTZ-JKFIT

    Orbital Energies [Eh]
    ---------------------

    Doubly Occupied:

       1A    -20.506957     2A    -15.631608     3A    -11.356067
       4A    -11.318686     5A    -11.278328     6A    -11.248183
       7A    -11.243701     8A     -1.362571     9A     -1.272866
      10A     -1.111840    11A     -1.035217    12A     -0.891777
      13A     -0.865650    14A     -0.758904    15A     -0.697802
      16A     -0.679823    17A     -0.642356    18A     -0.608418
      19A     -0.606287    20A     -0.557579    21A     -0.541310
      22A     -0.479513    23A     -0.428018    24A     -0.423783
      25A     -0.317533

  @DF-RHF Final Energy:  -321.67937067002242

   => Energetics <=

    Nuclear Repulsion Energy =            274.6005678031596631
    One-Electron Energy =                -980.8303268379690962
    Two-Electron Energy =                 384.5503883647869543
    Total Energy =                       -321.6793706700224220
  Basis Set: (AUG-CC-PVTZ AUX)
    Blend: AUG-CC-PVTZ-RI
    Molecular point group: c1

    Geometry (in Angstrom), charge = 0, multiplicity = 1:

       Center              X                  Y                   Z               Mass
    ------------   -----------------  -----------------  -----------------  -----------------
         O           -2.256787518164     0.005551146764     0.000037612681    15.994914619570
         N           -0.257402518164    -1.116555853236    -0.000046387319    14.003074004430
         C            1.164543481836     1.201604146764     0.000007612681    12.000000000000
         C            1.851277481836    -0.045561853236     0.000017612681    12.000000000000
         C            1.107327481836    -1.190495853236     0.000011612681    12.000000000000
         C           -1.002461218164     0.063976746764    -0.000002987319    12.000000000000
         C           -0.203152518164     1.259493146764    -0.000033387319    12.000000000000
         H            1.738430481836     2.125722146764     0.000006612681     1.007825032230
         H            2.933443481836    -0.099082853236     0.000062612681     1.007825032230
         H            1.534051481836    -2.188481853236     0.000000612681     1.007825032230
         H           -0.734882518164     2.205350146764    -0.000034387319     1.007825032230
         H           -0.816332518164    -1.965886853236     0.000006612681     1.007825032230

  Basis Set: AUG-CC-PVTZ
    Blend: AUG-CC-PVTZ
  Basis Set: (AUG-CC-PVTZ AUX)
    Blend: AUG-CC-PVTZ-JKFIT
	 Reference Energy          =    -321.6793706700224220 [Eh]
	 Singles Energy            =      -0.0000000000000000 [Eh]
	 Same-Spin Energy          =      -0.3360843131945303 [Eh]
	 Opposite-Spin Energy      =      -1.0281162743165846 [Eh]
	 Correlation Energy        =      -1.3642005875111149 [Eh]
	 Total Energy              =    -323.0435712575335288 [Eh]

	 ================> DF-SCS-MP2 Energies <==================
	-----------------------------------------------------------
	 SCS Same-Spin Scale       =       0.3333333333333333 [-]
	 SCS Opposite-Spin Scale   =       1.2000000000000000 [-]
	 SCS Same-Spin Energy      =      -0.1120281043981768 [Eh]
	 SCS Opposite-Spin Energy  =      -1.2337395291799014 [Eh]
	 SCS Correlation Energy    =      -1.3457676335780782 [Eh]
	 SCS Total Energy          =    -323.0251383036004995 [Eh]
	-----------------------------------------------------------

  Dipole Moment: [D]
     X:     4.2892      Y:    -1.3084      Z:     0.0000     Total:     4.4844

*** Psi4 exiting successfully. Buy a developer a beer!
