                               Psi4 1.3.2 release

  ==> Input File <==

--------------------------------------------------------------------------
#psi4
#
memory 32 gb

molecule  {
0 1
  O       -2.3004000     0.0048630     0.0003410
  N       -0.3010450    -1.1173380    -0.0002690
  C        1.1207170     1.2010130     0.0000540
  C        1.8075300    -0.0461910     0.0000640
  C        0.8641916    -1.1803316     0.0000656
  C       -1.0661860     0.0622010    -0.0003390
  C       -0.2468550     1.2588270    -0.0001630
  H        1.6948200     2.1249460     0.0001000
  H        2.8897160    -0.0994500     0.0003790
  H        1.4903610    -2.1891700     0.0001730
  H       -0.7789320     2.2044920     0.0000230
  H       -0.8600860    -1.9666840     0.0000480
units angstrom
no_reorient  #important for SAPT in psi4, default
symmetry c1  #important for SAPT in psi4, default
}

set PROPERTIES_ORIGIN ["COM"]
properties('MP2/aug-cc-pvtz', properties = ['dipole'])
--------------------------------------------------------------------------

    Molecular point group: c1
  Charge       = 0
  Multiplicity = 1
  Basis Set: AUG-CC-PVTZ
    Blend: AUG-CC-PVTZ
  Basis Set: (AUG-CC-PVTZ AUX)
    Blend: AUG-CC-PVTZ-JKFIT

    Orbital Energies [Eh]
    ---------------------

    Doubly Occupied:

       1A    -20.514530     2A    -15.653925     3A    -11.359549
       4A    -11.330597     5A    -11.269751     6A    -11.240966
       7A    -11.226251     8A     -1.412063     9A     -1.336324
      10A     -1.104502    11A     -1.017531    12A     -0.902218
      13A     -0.882315    14A     -0.789065    15A     -0.703146
      16A     -0.662683    17A     -0.651733    18A     -0.640226
      19A     -0.595656    20A     -0.563076    21A     -0.509545
      22A     -0.503430    23A     -0.428365    24A     -0.426740
      25A     -0.291027

  @DF-RHF Final Energy:  -321.61907322792030

   => Energetics <=

    Nuclear Repulsion Energy =            277.3139137719932705
    One-Electron Energy =                -985.8355509441518052
    Two-Electron Energy =                 386.9025639442382385
    Total Energy =                       -321.6190732279202962
  Basis Set: (AUG-CC-PVTZ AUX)
    Blend: AUG-CC-PVTZ-RI
    Molecular point group: c1

    Geometry (in Angstrom), charge = 0, multiplicity = 1:

       Center              X                  Y                   Z               Mass
    ------------   -----------------  -----------------  -----------------  -----------------
         O           -2.228986889500     0.004310042669     0.000355780579    15.994914619570
         N           -0.229631889500    -1.117890957331    -0.000254219421    14.003074004430
         C            1.192130110500     1.200460042669     0.000068780579    12.000000000000
         C            1.878943110500    -0.046743957331     0.000078780579    12.000000000000
         C            0.935604710500    -1.180884557331     0.000080380579    12.000000000000
         C           -0.994772889500     0.061648042669    -0.000324219421    12.000000000000
         C           -0.175441889500     1.258274042669    -0.000148219421    12.000000000000
         H            1.766233110500     2.124393042669     0.000114780579     1.007825032230
         H            2.961129110500    -0.100002957331     0.000393780579     1.007825032230
         H            1.561774110500    -2.189722957331     0.000187780579     1.007825032230
         H           -0.707518889500     2.203939042669     0.000037780579     1.007825032230
         H           -0.788672889500    -1.967236957331     0.000062780579     1.007825032230

  Basis Set: AUG-CC-PVTZ
    Blend: AUG-CC-PVTZ
  Basis Set: (AUG-CC-PVTZ AUX)
    Blend: AUG-CC-PVTZ-JKFIT
	 Reference Energy          =    -321.6190732279202962 [Eh]
	 Singles Energy            =      -0.0000000000000000 [Eh]
	 Same-Spin Energy          =      -0.3377411585027182 [Eh]
	 Opposite-Spin Energy      =      -1.0272863758583552 [Eh]
	 Correlation Energy        =      -1.3650275343610736 [Eh]
	 Total Energy              =    -322.9841007622813436 [Eh]

	 ================> DF-SCS-MP2 Energies <==================
	-----------------------------------------------------------
	 SCS Same-Spin Scale       =       0.3333333333333333 [-]
	 SCS Opposite-Spin Scale   =       1.2000000000000000 [-]
	 SCS Same-Spin Energy      =      -0.1125803861675727 [Eh]
	 SCS Opposite-Spin Energy  =      -1.2327436510300263 [Eh]
	 SCS Correlation Energy    =      -1.3453240371975990 [Eh]
	 SCS Total Energy          =    -322.9643972651178956 [Eh]
	-----------------------------------------------------------

  Dipole Moment: [D]
     X:     3.7119      Y:    -1.8778      Z:    -0.0003     Total:     4.1599

*** Psi4 exiting successfully. Buy a developer a beer!
