                               Psi4 1.4a3.dev225

  ==> Input File <==

--------------------------------------------------------------------------
#psi4
#
memory 32 gb

molecule  {
-1 1
  O        1.8724200    -0.7415990     0.3394840
  O        2.1027790     1.3758310    -0.4300950
  O       -3.3072830    -0.3512340    -0.9359590
  O       -2.5979240    -0.0254400     1.2183870
  C       -0.0530340     0.6334400     0.4456770
  C       -0.9697120    -0.0967620    -0.5425230
  C        1.3896910     0.5173160     0.0754460
  C       -2.4534200    -0.1528480    -0.0313600
  C        3.2289120    -0.9370400    -0.0704660
  H       -0.2367594     0.1872259     1.4255857
  H       -0.3042490     1.6964080     0.4822290
  H       -0.9505240     0.3810480    -1.5282220
  H       -0.6173950    -1.1275390    -0.6764200
  H        3.4625260    -1.9695390     0.1897820
  H        3.8993660    -0.2498350     0.4514950
  H        3.3382080    -0.7798600    -1.1461020
units angstrom
no_reorient  #important for SAPT in psi4, default
symmetry c1  #important for SAPT in psi4, default
}

set PROPERTIES_ORIGIN ["COM"]
properties('MP2/aug-cc-pvtz', properties = ['dipole'])
--------------------------------------------------------------------------

    Molecular point group: c1
  Charge       = -1
  Multiplicity = 1
  Basis Set: AUG-CC-PVTZ
    Blend: AUG-CC-PVTZ
  Basis Set: (AUG-CC-PVTZ AUX)
    Blend: AUG-CC-PVTZ-JKFIT

    Orbital Energies [Eh]
    ---------------------

    Doubly Occupied:

       1A    -20.496182     2A    -20.434644     3A    -20.308979
       4A    -20.306459     5A    -11.266278     6A    -11.190995
       7A    -11.154665     8A    -11.100899     9A    -11.079605
      10A     -1.342304    11A     -1.239720    12A     -1.177414
      13A     -1.081242    14A     -0.935580    15A     -0.857309
      16A     -0.756622    17A     -0.662012    18A     -0.576614
      19A     -0.568855    20A     -0.560675    21A     -0.530387
      22A     -0.488305    23A     -0.466421    24A     -0.452105
      25A     -0.431210    26A     -0.419083    27A     -0.411190
      28A     -0.387479    29A     -0.360591    30A     -0.352699
      31A     -0.337793    32A     -0.327852    33A     -0.225849
      34A     -0.209255    35A     -0.208115

  @DF-RHF Final Energy:  -493.10845811511490

   => Energetics <=

    Nuclear Repulsion Energy =            435.1372510688552211
    One-Electron Energy =               -1551.0806487596121315
    Two-Electron Energy =                 622.8349395756420108
    Total Energy =                       -493.1084581151148996
  Basis Set: (AUG-CC-PVTZ AUX)
    Blend: AUG-CC-PVTZ-RI
    Molecular point group: c1

    Geometry (in Angstrom), charge = -1, multiplicity = 1:

       Center              X                  Y                   Z               Mass
    ------------   -----------------  -----------------  -----------------  -----------------
         O            1.937308824504    -0.755429167731     0.333520229559    15.994914619570
         O            2.167667824504     1.362000832269    -0.436058770441    15.994914619570
         O           -3.242394175496    -0.365064167731    -0.941922770441    15.994914619570
         O           -2.533035175496    -0.039270167731     1.212423229559    15.994914619570
         C            0.011854824504     0.619609832269     0.439713229559    12.000000000000
         C           -0.904823175496    -0.110592167731    -0.548486770441    12.000000000000
         C            1.454579824504     0.503485832269     0.069482229559    12.000000000000
         C           -2.388531175496    -0.166678167731    -0.037323770441    12.000000000000
         C            3.293800824504    -0.950870167731    -0.076429770441    12.000000000000
         H           -0.171870575496     0.173395732269     1.419621929559     1.007825032230
         H           -0.239360175496     1.682577832269     0.476265229559     1.007825032230
         H           -0.885635175496     0.367217832269    -1.534185770441     1.007825032230
         H           -0.552506175496    -1.141369167731    -0.682383770441     1.007825032230
         H            3.527414824504    -1.983369167731     0.183818229559     1.007825032230
         H            3.964254824504    -0.263665167731     0.445531229559     1.007825032230
         H            3.403096824504    -0.793690167731    -1.152065770441     1.007825032230

  Basis Set: AUG-CC-PVTZ
    Blend: AUG-CC-PVTZ
  Basis Set: (AUG-CC-PVTZ AUX)
    Blend: AUG-CC-PVTZ-JKFIT
	 Reference Energy          =    -493.1084581151148996 [Eh]
	 Singles Energy            =      -0.0000000000000000 [Eh]
	 Same-Spin Energy          =      -0.4837481572741221 [Eh]
	 Opposite-Spin Energy      =      -1.4759802743715702 [Eh]
	 Correlation Energy        =      -1.9597284316456922 [Eh]
	 Total Energy              =    -495.0681865467606144 [Eh]

	 ================> DF-SCS-MP2 Energies <==================
	-----------------------------------------------------------
	 SCS Same-Spin Scale       =       0.3333333333333333 [-]
	 SCS Opposite-Spin Scale   =       1.2000000000000000 [-]
	 SCS Same-Spin Energy      =      -0.1612493857580407 [Eh]
	 SCS Opposite-Spin Energy  =      -1.7711763292458842 [Eh]
	 SCS Correlation Energy    =      -1.9324257150039248 [Eh]
	 SCS Total Energy          =    -495.0408838301188439 [Eh]
	-----------------------------------------------------------

  Dipole Moment: [D]
     X:    11.3432      Y:    -0.7345      Z:    -0.0887     Total:    11.3673

*** Psi4 exiting successfully. Buy a developer a beer!
