                               Psi4 1.4a3.dev225

  ==> Input File <==

--------------------------------------------------------------------------
#psi4
#
memory 32 gb

molecule  {
-1 1
  O        1.8724200    -0.7415990     0.3394840
  O        2.1027790     1.3758310    -0.4300950
  O       -3.3072830    -0.3512340    -0.9359590
  O       -2.5979240    -0.0254400     1.2183870
  C       -0.0530340     0.6334400     0.4456770
  C       -0.9697120    -0.0967620    -0.5425230
  C        1.3896910     0.5173160     0.0754460
  C       -2.4534200    -0.1528480    -0.0313600
  C        3.2289120    -0.9370400    -0.0704660
  H       -0.2424870     0.2042160     1.4320630
  H       -0.3042490     1.6964080     0.4822290
  H       -0.9505240     0.3810480    -1.5282220
  H       -0.6173950    -1.1275390    -0.6764200
  H        3.4582400    -1.9505961     0.1850073
  H        3.8993660    -0.2498350     0.4514950
  H        3.3382080    -0.7798600    -1.1461020
units angstrom
no_reorient  #important for SAPT in psi4, default
symmetry c1  #important for SAPT in psi4, default
}

set PROPERTIES_ORIGIN ["COM"]
properties('MP2/aug-cc-pvtz', properties = ['dipole'])
--------------------------------------------------------------------------

    Molecular point group: c1
  Charge       = -1
  Multiplicity = 1
  Basis Set: AUG-CC-PVTZ
    Blend: AUG-CC-PVTZ
  Basis Set: (AUG-CC-PVTZ AUX)
    Blend: AUG-CC-PVTZ-JKFIT

    Orbital Energies [Eh]
    ---------------------

    Doubly Occupied:

       1A    -20.495917     2A    -20.434565     3A    -20.308938
       4A    -20.306409     5A    -11.266227     6A    -11.188456
       7A    -11.154615     8A    -11.100653     9A    -11.079526
      10A     -1.342107    11A     -1.239604    12A     -1.177367
      13A     -1.081201    14A     -0.935550    15A     -0.859013
      16A     -0.756888    17A     -0.661978    18A     -0.577190
      19A     -0.568730    20A     -0.561487    21A     -0.530483
      22A     -0.488521    23A     -0.467055    24A     -0.452297
      25A     -0.431901    26A     -0.419152    27A     -0.411285
      28A     -0.386773    29A     -0.360548    30A     -0.352929
      31A     -0.337885    32A     -0.327599    33A     -0.225798
      34A     -0.209207    35A     -0.208079

  @DF-RHF Final Energy:  -493.10848523361108

   => Energetics <=

    Nuclear Repulsion Energy =            435.2121049186079631
    One-Electron Energy =               -1551.2293177120748169
    Two-Electron Energy =                 622.9087275598557198
    Total Energy =                       -493.1084852336110771
  Basis Set: (AUG-CC-PVTZ AUX)
    Blend: AUG-CC-PVTZ-RI
    Molecular point group: c1

    Geometry (in Angstrom), charge = -1, multiplicity = 1:

       Center              X                  Y                   Z               Mass
    ------------   -----------------  -----------------  -----------------  -----------------
         O            1.937385842097    -0.755705539185     0.333507134353    15.994914619570
         O            2.167744842097     1.361724460815    -0.436071865647    15.994914619570
         O           -3.242317157903    -0.365340539185    -0.941935865647    15.994914619570
         O           -2.532958157903    -0.039546539185     1.212410134353    15.994914619570
         C            0.011931842097     0.619333460815     0.439700134353    12.000000000000
         C           -0.904746157903    -0.110868539185    -0.548499865647    12.000000000000
         C            1.454656842097     0.503209460815     0.069469134353    12.000000000000
         C           -2.388454157903    -0.166954539185    -0.037336865647    12.000000000000
         C            3.293877842097    -0.951146539185    -0.076442865647    12.000000000000
         H           -0.177521157903     0.190109460815     1.426086134353     1.007825032230
         H           -0.239283157903     1.682301460815     0.476252134353     1.007825032230
         H           -0.885558157903     0.366941460815    -1.534198865647     1.007825032230
         H           -0.552429157903    -1.141645539185    -0.682396865647     1.007825032230
         H            3.523205842097    -1.964702639185     0.179030434353     1.007825032230
         H            3.964331842097    -0.263941539185     0.445518134353     1.007825032230
         H            3.403173842097    -0.793966539185    -1.152078865647     1.007825032230

  Basis Set: AUG-CC-PVTZ
    Blend: AUG-CC-PVTZ
  Basis Set: (AUG-CC-PVTZ AUX)
    Blend: AUG-CC-PVTZ-JKFIT
	 Reference Energy          =    -493.1084852336110771 [Eh]
	 Singles Energy            =      -0.0000000000000000 [Eh]
	 Same-Spin Energy          =      -0.4837494951474832 [Eh]
	 Opposite-Spin Energy      =      -1.4758584705663809 [Eh]
	 Correlation Energy        =      -1.9596079657138641 [Eh]
	 Total Energy              =    -495.0680931993249487 [Eh]

	 ================> DF-SCS-MP2 Energies <==================
	-----------------------------------------------------------
	 SCS Same-Spin Scale       =       0.3333333333333333 [-]
	 SCS Opposite-Spin Scale   =       1.2000000000000000 [-]
	 SCS Same-Spin Energy      =      -0.1612498317158277 [Eh]
	 SCS Opposite-Spin Energy  =      -1.7710301646796569 [Eh]
	 SCS Correlation Energy    =      -1.9322799963954846 [Eh]
	 SCS Total Energy          =    -495.0407652300065706 [Eh]
	-----------------------------------------------------------

  Dipole Moment: [D]
     X:    11.3528      Y:    -0.7408      Z:    -0.0840     Total:    11.3773

*** Psi4 exiting successfully. Buy a developer a beer!
