                               Psi4 1.4a3.dev225

  ==> Input File <==

--------------------------------------------------------------------------
#psi4
#
memory 32 gb

molecule  {
-1 1
  O        1.8724200    -0.7415990     0.3394840
  O        2.1027790     1.3758310    -0.4300950
  O       -3.3072830    -0.3512340    -0.9359590
  O       -2.5979240    -0.0254400     1.2183870
  C       -0.0530340     0.6334400     0.4456770
  C       -0.9697120    -0.0967620    -0.5425230
  C        1.3896910     0.5173160     0.0754460
  C       -2.4502283     0.0114844    -0.0304909
  C        3.2289120    -0.9370400    -0.0704660
  H       -0.2424870     0.2042160     1.4320630
  H       -0.3042490     1.6964080     0.4822290
  H       -0.9505240     0.3810480    -1.5282220
  H       -0.6173950    -1.1275390    -0.6764200
  H        3.4625260    -1.9695390     0.1897820
  H        3.8993660    -0.2498350     0.4514950
  H        3.3382080    -0.7798600    -1.1461020
units angstrom
no_reorient  #important for SAPT in psi4, default
symmetry c1  #important for SAPT in psi4, default
}

set PROPERTIES_ORIGIN ["COM"]
properties('MP2/aug-cc-pvtz', properties = ['dipole'])
--------------------------------------------------------------------------

    Molecular point group: c1
  Charge       = -1
  Multiplicity = 1
  Basis Set: AUG-CC-PVTZ
    Blend: AUG-CC-PVTZ
  Basis Set: (AUG-CC-PVTZ AUX)
    Blend: AUG-CC-PVTZ-JKFIT

    Orbital Energies [Eh]
    ---------------------

    Doubly Occupied:

       1A    -20.496949     2A    -20.434916     3A    -20.316282
       4A    -20.302668     5A    -11.266669     6A    -11.191482
       7A    -11.158633     8A    -11.101321     9A    -11.083704
      10A     -1.342915    11A     -1.240175    12A     -1.173181
      13A     -1.068183    14A     -0.937042    15A     -0.858477
      16A     -0.756639    17A     -0.662583    18A     -0.578470
      19A     -0.570008    20A     -0.561150    21A     -0.533296
      22A     -0.489097    23A     -0.467217    24A     -0.452169
      25A     -0.431087    26A     -0.417518    27A     -0.406028
      28A     -0.385042    29A     -0.360774    30A     -0.353476
      31A     -0.338396    32A     -0.325238    33A     -0.224626
      34A     -0.208257    35A     -0.202465

  @DF-RHF Final Energy:  -493.09049279344873

   => Energetics <=

    Nuclear Repulsion Energy =            434.8323500755014379
    One-Electron Energy =               -1550.4534164238150424
    Two-Electron Energy =                 622.5305735548649864
    Total Energy =                       -493.0904927934486750
  Basis Set: (AUG-CC-PVTZ AUX)
    Blend: AUG-CC-PVTZ-RI
    Molecular point group: c1

    Geometry (in Angstrom), charge = -1, multiplicity = 1:

       Center              X                  Y                   Z               Mass
    ------------   -----------------  -----------------  -----------------  -----------------
         O            1.937060584553    -0.770609237518     0.333390819414    15.994914619570
         O            2.167419584553     1.346820762482    -0.436188180586    15.994914619570
         O           -3.242642415447    -0.380244237518    -0.942052180586    15.994914619570
         O           -2.533283415447    -0.054450237518     1.212293819414    15.994914619570
         C            0.011606584553     0.604429762482     0.439583819414    12.000000000000
         C           -0.905071415447    -0.125772237518    -0.548616180586    12.000000000000
         C            1.454331584553     0.488305762482     0.069352819414    12.000000000000
         C           -2.385587715447    -0.017525837518    -0.036584080586    12.000000000000
         C            3.293552584553    -0.966050237518    -0.076559180586    12.000000000000
         H           -0.177846415447     0.175205762482     1.425969819414     1.007825032230
         H           -0.239608415447     1.667397762482     0.476135819414     1.007825032230
         H           -0.885883415447     0.352037762482    -1.534315180586     1.007825032230
         H           -0.552754415447    -1.156549237518    -0.682513180586     1.007825032230
         H            3.527166584553    -1.998549237518     0.183688819414     1.007825032230
         H            3.964006584553    -0.278845237518     0.445401819414     1.007825032230
         H            3.402848584553    -0.808870237518    -1.152195180586     1.007825032230

  Basis Set: AUG-CC-PVTZ
    Blend: AUG-CC-PVTZ
  Basis Set: (AUG-CC-PVTZ AUX)
    Blend: AUG-CC-PVTZ-JKFIT
	 Reference Energy          =    -493.0904927934487318 [Eh]
	 Singles Energy            =      -0.0000000000000000 [Eh]
	 Same-Spin Energy          =      -0.4851098811872143 [Eh]
	 Opposite-Spin Energy      =      -1.4794444915607998 [Eh]
	 Correlation Energy        =      -1.9645543727480141 [Eh]
	 Total Energy              =    -495.0550471661967435 [Eh]

	 ================> DF-SCS-MP2 Energies <==================
	-----------------------------------------------------------
	 SCS Same-Spin Scale       =       0.3333333333333333 [-]
	 SCS Opposite-Spin Scale   =       1.2000000000000000 [-]
	 SCS Same-Spin Energy      =      -0.1617032937290714 [Eh]
	 SCS Opposite-Spin Energy  =      -1.7753333898729597 [Eh]
	 SCS Correlation Energy    =      -1.9370366836020312 [Eh]
	 SCS Total Energy          =    -495.0275294770507912 [Eh]
	-----------------------------------------------------------

  Dipole Moment: [D]
     X:    11.4717      Y:    -0.6303      Z:     0.1207     Total:    11.4897

*** Psi4 exiting successfully. Buy a developer a beer!
