                               Psi4 1.4a3.dev225

  ==> Input File <==

--------------------------------------------------------------------------
#psi4
#
memory 32 gb

molecule  {
-1 1
  O        1.9148968    -0.7281119     0.3217758
  O        2.1027790     1.3758310    -0.4300950
  O       -3.3072830    -0.3512340    -0.9359590
  O       -2.5979240    -0.0254400     1.2183870
  C       -0.0530340     0.6334400     0.4456770
  C       -0.9697120    -0.0967620    -0.5425230
  C        1.3896910     0.5173160     0.0754460
  C       -2.4534200    -0.1528480    -0.0313600
  C        3.2289120    -0.9370400    -0.0704660
  H       -0.2424870     0.2042160     1.4320630
  H       -0.3042490     1.6964080     0.4822290
  H       -0.9505240     0.3810480    -1.5282220
  H       -0.6173950    -1.1275390    -0.6764200
  H        3.4625260    -1.9695390     0.1897820
  H        3.8993660    -0.2498350     0.4514950
  H        3.3382080    -0.7798600    -1.1461020
units angstrom
no_reorient  #important for SAPT in psi4, default
symmetry c1  #important for SAPT in psi4, default
}

set PROPERTIES_ORIGIN ["COM"]
properties('MP2/aug-cc-pvtz', properties = ['dipole'])
--------------------------------------------------------------------------

    Molecular point group: c1
  Charge       = -1
  Multiplicity = 1
  Basis Set: AUG-CC-PVTZ
    Blend: AUG-CC-PVTZ
  Basis Set: (AUG-CC-PVTZ AUX)
    Blend: AUG-CC-PVTZ-JKFIT

    Orbital Energies [Eh]
    ---------------------

    Doubly Occupied:

       1A    -20.492887     2A    -20.433937     3A    -20.310100
       4A    -20.307479     5A    -11.267828     6A    -11.186360
       7A    -11.155837     8A    -11.103793     9A    -11.081142
      10A     -1.350215    11A     -1.242266    12A     -1.178498
      13A     -1.082317    14A     -0.938386    15A     -0.859398
      16A     -0.757379    17A     -0.665808    18A     -0.580470
      19A     -0.571145    20A     -0.566908    21A     -0.532686
      22A     -0.489340    23A     -0.471833    24A     -0.451373
      25A     -0.428107    26A     -0.416325    27A     -0.410781
      28A     -0.388737    29A     -0.359107    30A     -0.352249
      31A     -0.338810    32A     -0.328783    33A     -0.226936
      34A     -0.210445    35A     -0.209150

  @DF-RHF Final Energy:  -493.10910076752884

   => Energetics <=

    Nuclear Repulsion Energy =            435.5066965242789934
    One-Electron Energy =               -1551.7379684155839641
    Two-Electron Energy =                 623.1221711237760701
    Total Energy =                       -493.1091007675288438
  Basis Set: (AUG-CC-PVTZ AUX)
    Blend: AUG-CC-PVTZ-RI
    Molecular point group: c1

    Geometry (in Angstrom), charge = -1, multiplicity = 1:

       Center              X                  Y                   Z               Mass
    ------------   -----------------  -----------------  -----------------  -----------------
         O            1.974644682909    -0.743719066757     0.317923788691    15.994914619570
         O            2.162526882909     1.360223833243    -0.433947011309    15.994914619570
         O           -3.247535117091    -0.366841166757    -0.939811011309    15.994914619570
         O           -2.538176117091    -0.041047166757     1.214534988691    15.994914619570
         C            0.006713882909     0.617832833243     0.441824988691    12.000000000000
         C           -0.909964117091    -0.112369166757    -0.546375011309    12.000000000000
         C            1.449438882909     0.501708833243     0.071593988691    12.000000000000
         C           -2.393672117091    -0.168455166757    -0.035212011309    12.000000000000
         C            3.288659882909    -0.952647166757    -0.074318011309    12.000000000000
         H           -0.182739117091     0.188608833243     1.428210988691     1.007825032230
         H           -0.244501117091     1.680800833243     0.478376988691     1.007825032230
         H           -0.890776117091     0.365440833243    -1.532074011309     1.007825032230
         H           -0.557647117091    -1.143146166757    -0.680272011309     1.007825032230
         H            3.522273882909    -1.985146166757     0.185929988691     1.007825032230
         H            3.959113882909    -0.265442166757     0.447642988691     1.007825032230
         H            3.397955882909    -0.795467166757    -1.149954011309     1.007825032230

  Basis Set: AUG-CC-PVTZ
    Blend: AUG-CC-PVTZ
  Basis Set: (AUG-CC-PVTZ AUX)
    Blend: AUG-CC-PVTZ-JKFIT
	 Reference Energy          =    -493.1091007675288438 [Eh]
	 Singles Energy            =      -0.0000000000000000 [Eh]
	 Same-Spin Energy          =      -0.4833823269402222 [Eh]
	 Opposite-Spin Energy      =      -1.4745923506791310 [Eh]
	 Correlation Energy        =      -1.9579746776193532 [Eh]
	 Total Energy              =    -495.0670754451481912 [Eh]

	 ================> DF-SCS-MP2 Energies <==================
	-----------------------------------------------------------
	 SCS Same-Spin Scale       =       0.3333333333333333 [-]
	 SCS Opposite-Spin Scale   =       1.2000000000000000 [-]
	 SCS Same-Spin Energy      =      -0.1611274423134074 [Eh]
	 SCS Opposite-Spin Energy  =      -1.7695108208149570 [Eh]
	 SCS Correlation Energy    =      -1.9306382631283645 [Eh]
	 SCS Total Energy          =    -495.0397390306571879 [Eh]
	-----------------------------------------------------------

  Dipole Moment: [D]
     X:    11.1649      Y:    -0.7099      Z:    -0.0494     Total:    11.1876

*** Psi4 exiting successfully. Buy a developer a beer!
