                               Psi4 1.4a3.dev225

  ==> Input File <==

--------------------------------------------------------------------------
#psi4
#
memory 32 gb

molecule  {
-1 1
  O        1.8724200    -0.7415990     0.3394840
  O        2.1027790     1.3758310    -0.4300950
  O       -3.3072830    -0.3512340    -0.9359590
  O       -2.5979240    -0.0254400     1.2183870
  C       -0.0530340     0.6334400     0.4456770
  C       -0.9697120    -0.0967620    -0.5425230
  C        1.3896910     0.5173160     0.0754460
  C       -2.4873127    -0.1607226    -0.0672665
  C        3.2289120    -0.9370400    -0.0704660
  H       -0.2424870     0.2042160     1.4320630
  H       -0.3042490     1.6964080     0.4822290
  H       -0.9505240     0.3810480    -1.5282220
  H       -0.6173950    -1.1275390    -0.6764200
  H        3.4625260    -1.9695390     0.1897820
  H        3.8993660    -0.2498350     0.4514950
  H        3.3382080    -0.7798600    -1.1461020
units angstrom
no_reorient  #important for SAPT in psi4, default
symmetry c1  #important for SAPT in psi4, default
}

set PROPERTIES_ORIGIN ["COM"]
properties('MP2/aug-cc-pvtz', properties = ['dipole'])
--------------------------------------------------------------------------

    Molecular point group: c1
  Charge       = -1
  Multiplicity = 1
  Basis Set: AUG-CC-PVTZ
    Blend: AUG-CC-PVTZ
  Basis Set: (AUG-CC-PVTZ AUX)
    Blend: AUG-CC-PVTZ-JKFIT

    Orbital Energies [Eh]
    ---------------------

    Doubly Occupied:

       1A    -20.494659     2A    -20.433160     3A    -20.318518
       4A    -20.299511     5A    -11.264670     6A    -11.189838
       7A    -11.154401     8A    -11.098297     9A    -11.076844
      10A     -1.340757    11A     -1.238212    12A     -1.193967
      13A     -1.079788    14A     -0.932028    15A     -0.854876
      16A     -0.752665    17A     -0.660500    18A     -0.574398
      19A     -0.567142    20A     -0.559235    21A     -0.528442
      22A     -0.486194    23A     -0.464429    24A     -0.451348
      25A     -0.431661    26A     -0.419617    27A     -0.415606
      28A     -0.388269    29A     -0.360249    30A     -0.350779
      31A     -0.338545    32A     -0.329535    33A     -0.227530
      34A     -0.210033    35A     -0.203674

  @DF-RHF Final Energy:  -493.10545025015045

   => Energetics <=

    Nuclear Repulsion Energy =            434.9648963183444721
    One-Electron Energy =               -1550.7619422352549918
    Two-Electron Energy =                 622.6915956667601222
    Total Energy =                       -493.1054502501503976
  Basis Set: (AUG-CC-PVTZ AUX)
    Blend: AUG-CC-PVTZ-RI
    Molecular point group: c1

    Geometry (in Angstrom), charge = -1, multiplicity = 1:

       Center              X                  Y                   Z               Mass
    ------------   -----------------  -----------------  -----------------  -----------------
         O            1.940456736141    -0.754838695825     0.336758691411    15.994914619570
         O            2.170815736141     1.362591304175    -0.432820308589    15.994914619570
         O           -3.239246263859    -0.364473695825    -0.938684308589    15.994914619570
         O           -2.529887263859    -0.038679695825     1.215661691411    15.994914619570
         C            0.015002736141     0.620200304175     0.442951691411    12.000000000000
         C           -0.901675263859    -0.110001695825    -0.545248308589    12.000000000000
         C            1.457727736141     0.504076304175     0.072720691411    12.000000000000
         C           -2.419275963859    -0.173962295825    -0.069991808589    12.000000000000
         C            3.296948736141    -0.950279695825    -0.073191308589    12.000000000000
         H           -0.174450263859     0.190976304175     1.429337691411     1.007825032230
         H           -0.236212263859     1.683168304175     0.479503691411     1.007825032230
         H           -0.882487263859     0.367808304175    -1.530947308589     1.007825032230
         H           -0.549358263859    -1.140778695825    -0.679145308589     1.007825032230
         H            3.530562736141    -1.982778695825     0.187056691411     1.007825032230
         H            3.967402736141    -0.263074695825     0.448769691411     1.007825032230
         H            3.406244736141    -0.793099695825    -1.148827308589     1.007825032230

  Basis Set: AUG-CC-PVTZ
    Blend: AUG-CC-PVTZ
  Basis Set: (AUG-CC-PVTZ AUX)
    Blend: AUG-CC-PVTZ-JKFIT
	 Reference Energy          =    -493.1054502501504544 [Eh]
	 Singles Energy            =      -0.0000000000000000 [Eh]
	 Same-Spin Energy          =      -0.4834383469829473 [Eh]
	 Opposite-Spin Energy      =      -1.4753002989591311 [Eh]
	 Correlation Energy        =      -1.9587386459420784 [Eh]
	 Total Energy              =    -495.0641888960925598 [Eh]

	 ================> DF-SCS-MP2 Energies <==================
	-----------------------------------------------------------
	 SCS Same-Spin Scale       =       0.3333333333333333 [-]
	 SCS Opposite-Spin Scale   =       1.2000000000000000 [-]
	 SCS Same-Spin Energy      =      -0.1611461156609824 [Eh]
	 SCS Opposite-Spin Energy  =      -1.7703603587509573 [Eh]
	 SCS Correlation Energy    =      -1.9315064744119397 [Eh]
	 SCS Total Energy          =    -495.0369567245624012 [Eh]
	-----------------------------------------------------------

  Dipole Moment: [D]
     X:    11.0054      Y:    -0.8093      Z:    -0.4988     Total:    11.0463

*** Psi4 exiting successfully. Buy a developer a beer!
