                               Psi4 1.4a3.dev225

  ==> Input File <==

--------------------------------------------------------------------------
#psi4
#
memory 32 gb

molecule  {
-1 1
  O        1.8724200    -0.7415990     0.3394840
  O        2.1027790     1.3758310    -0.4300950
  O       -3.3232087    -0.3504986    -0.9208207
  O       -2.5979240    -0.0254400     1.2183870
  C       -0.0530340     0.6334400     0.4456770
  C       -0.9697120    -0.0967620    -0.5425230
  C        1.3896910     0.5173160     0.0754460
  C       -2.4534200    -0.1528480    -0.0313600
  C        3.2289120    -0.9370400    -0.0704660
  H       -0.2424870     0.2042160     1.4320630
  H       -0.3042490     1.6964080     0.4822290
  H       -0.9505240     0.3810480    -1.5282220
  H       -0.6173950    -1.1275390    -0.6764200
  H        3.4625260    -1.9695390     0.1897820
  H        3.8993660    -0.2498350     0.4514950
  H        3.3382080    -0.7798600    -1.1461020
units angstrom
no_reorient  #important for SAPT in psi4, default
symmetry c1  #important for SAPT in psi4, default
}

set PROPERTIES_ORIGIN ["COM"]
properties('MP2/aug-cc-pvtz', properties = ['dipole'])
--------------------------------------------------------------------------

    Molecular point group: c1
  Charge       = -1
  Multiplicity = 1
  Basis Set: AUG-CC-PVTZ
    Blend: AUG-CC-PVTZ
  Basis Set: (AUG-CC-PVTZ AUX)
    Blend: AUG-CC-PVTZ-JKFIT

    Orbital Energies [Eh]
    ---------------------

    Doubly Occupied:

       1A    -20.496559     2A    -20.435196     3A    -20.307623
       4A    -20.305796     5A    -11.266896     6A    -11.191260
       7A    -11.154119     8A    -11.101394     9A    -11.080859
      10A     -1.342707    11A     -1.240175    12A     -1.177197
      13A     -1.079398    14A     -0.935974    15A     -0.857751
      16A     -0.757474    17A     -0.662562    18A     -0.577273
      19A     -0.569192    20A     -0.561158    21A     -0.530361
      22A     -0.488236    23A     -0.466484    24A     -0.452314
      25A     -0.431510    26A     -0.419208    27A     -0.410779
      28A     -0.386938    29A     -0.360915    30A     -0.353346
      31A     -0.338322    32A     -0.327955    33A     -0.224121
      34A     -0.210289    35A     -0.206920

  @DF-RHF Final Energy:  -493.10856324307753

   => Energetics <=

    Nuclear Repulsion Energy =            435.0296210749359602
    One-Electron Energy =               -1550.8598462277227554
    Two-Electron Energy =                 622.7216619097093826
    Total Energy =                       -493.1085632430774695
  Basis Set: (AUG-CC-PVTZ AUX)
    Blend: AUG-CC-PVTZ-RI
    Molecular point group: c1

    Geometry (in Angstrom), charge = -1, multiplicity = 1:

       Center              X                  Y                   Z               Mass
    ------------   -----------------  -----------------  -----------------  -----------------
         O            1.939296871638    -0.755649611377     0.331622531419    15.994914619570
         O            2.169655871638     1.361780388623    -0.437956468581    15.994914619570
         O           -3.256331828362    -0.364549211377    -0.928682168581    15.994914619570
         O           -2.531047128362    -0.039490611377     1.210525531419    15.994914619570
         C            0.013842871638     0.619389388623     0.437815531419    12.000000000000
         C           -0.902835128362    -0.110812611377    -0.550384468581    12.000000000000
         C            1.456567871638     0.503265388623     0.067584531419    12.000000000000
         C           -2.386543128362    -0.166898611377    -0.039221468581    12.000000000000
         C            3.295788871638    -0.951090611377    -0.078327468581    12.000000000000
         H           -0.175610128362     0.190165388623     1.424201531419     1.007825032230
         H           -0.237372128362     1.682357388623     0.474367531419     1.007825032230
         H           -0.883647128362     0.366997388623    -1.536083468581     1.007825032230
         H           -0.550518128362    -1.141589611377    -0.684281468581     1.007825032230
         H            3.529402871638    -1.983589611377     0.181920531419     1.007825032230
         H            3.966242871638    -0.263885611377     0.443633531419     1.007825032230
         H            3.405084871638    -0.793910611377    -1.153963468581     1.007825032230

  Basis Set: AUG-CC-PVTZ
    Blend: AUG-CC-PVTZ
  Basis Set: (AUG-CC-PVTZ AUX)
    Blend: AUG-CC-PVTZ-JKFIT
	 Reference Energy          =    -493.1085632430775263 [Eh]
	 Singles Energy            =      -0.0000000000000000 [Eh]
	 Same-Spin Energy          =      -0.4836997767290470 [Eh]
	 Opposite-Spin Energy      =      -1.4759192806917303 [Eh]
	 Correlation Energy        =      -1.9596190574207772 [Eh]
	 Total Energy              =    -495.0681823004982789 [Eh]

	 ================> DF-SCS-MP2 Energies <==================
	-----------------------------------------------------------
	 SCS Same-Spin Scale       =       0.3333333333333333 [-]
	 SCS Opposite-Spin Scale   =       1.2000000000000000 [-]
	 SCS Same-Spin Energy      =      -0.1612332589096823 [Eh]
	 SCS Opposite-Spin Energy  =      -1.7711031368300763 [Eh]
	 SCS Correlation Energy    =      -1.9323363957397586 [Eh]
	 SCS Total Energy          =    -495.0408996388172795 [Eh]
	-----------------------------------------------------------

  Dipole Moment: [D]
     X:    11.4075      Y:    -0.7269      Z:    -0.1166     Total:    11.4313

*** Psi4 exiting successfully. Buy a developer a beer!
