                               Psi4 1.4a3.dev225

  ==> Input File <==

--------------------------------------------------------------------------
#psi4
#
memory 32 gb

molecule  {
-1 1
  O        1.8724200    -0.7415990     0.3394840
  O        2.1027790     1.3758310    -0.4300950
  O       -3.3072830    -0.3512340    -0.9359590
  O       -2.5979240    -0.0254400     1.2183870
  C       -0.0530340     0.6334400     0.4456770
  C       -0.9697120    -0.0967620    -0.5425230
  C        1.3896910     0.5173160     0.0754460
  C       -2.4534200    -0.1528480    -0.0313600
  C        3.2289120    -0.9370400    -0.0704660
  H       -0.2424870     0.2042160     1.4320630
  H       -0.3042490     1.6964080     0.4822290
  H       -0.9505240     0.3810480    -1.5282220
  H       -0.6494961    -1.0336205    -0.6642201
  H        3.4625260    -1.9695390     0.1897820
  H        3.8993660    -0.2498350     0.4514950
  H        3.3382080    -0.7798600    -1.1461020
units angstrom
no_reorient  #important for SAPT in psi4, default
symmetry c1  #important for SAPT in psi4, default
}

set PROPERTIES_ORIGIN ["COM"]
properties('MP2/aug-cc-pvtz', properties = ['dipole'])
--------------------------------------------------------------------------

    Molecular point group: c1
  Charge       = -1
  Multiplicity = 1
  Basis Set: AUG-CC-PVTZ
    Blend: AUG-CC-PVTZ
  Basis Set: (AUG-CC-PVTZ AUX)
    Blend: AUG-CC-PVTZ-JKFIT

    Orbital Energies [Eh]
    ---------------------

    Doubly Occupied:

       1A    -20.496488     2A    -20.434578     3A    -20.308539
       4A    -20.306208     5A    -11.266226     6A    -11.191153
       7A    -11.153854     8A    -11.099687     9A    -11.066930
      10A     -1.342446    11A     -1.239737    12A     -1.177102
      13A     -1.080887    14A     -0.937254    15A     -0.859234
      16A     -0.763815    17A     -0.663025    18A     -0.577533
      19A     -0.569120    20A     -0.561548    21A     -0.532763
      22A     -0.489963    23A     -0.471145    24A     -0.452139
      25A     -0.431823    26A     -0.419201    27A     -0.411145
      28A     -0.390111    29A     -0.360526    30A     -0.352395
      31A     -0.340406    32A     -0.330501    33A     -0.225517
      34A     -0.208581    35A     -0.207855

  @DF-RHF Final Energy:  -493.10282118862904

   => Energetics <=

    Nuclear Repulsion Energy =            435.6059946750342533
    One-Electron Energy =               -1551.9787627295575021
    Two-Electron Energy =                 623.2699468658942124
    Total Energy =                       -493.1028211886290364
  Basis Set: (AUG-CC-PVTZ AUX)
    Blend: AUG-CC-PVTZ-RI
    Molecular point group: c1

    Geometry (in Angstrom), charge = -1, multiplicity = 1:

       Center              X                  Y                   Z               Mass
    ------------   -----------------  -----------------  -----------------  -----------------
         O            1.937599776353    -0.756282198955     0.333376577626    15.994914619570
         O            2.167958776353     1.361147801045    -0.436202422374    15.994914619570
         O           -3.242103223647    -0.365917198955    -0.942066422374    15.994914619570
         O           -2.532744223647    -0.040123198955     1.212279577626    15.994914619570
         C            0.012145776353     0.618756801045     0.439569577626    12.000000000000
         C           -0.904532223647    -0.111445198955    -0.548630422374    12.000000000000
         C            1.454870776353     0.502632801045     0.069338577626    12.000000000000
         C           -2.388240223647    -0.167531198955    -0.037467422374    12.000000000000
         C            3.294091776353    -0.951723198955    -0.076573422374    12.000000000000
         H           -0.177307223647     0.189532801045     1.425955577626     1.007825032230
         H           -0.239069223647     1.681724801045     0.476121577626     1.007825032230
         H           -0.885344223647     0.366364801045    -1.534329422374     1.007825032230
         H           -0.584316323647    -1.048303698955    -0.670327522374     1.007825032230
         H            3.527705776353    -1.984222198955     0.183674577626     1.007825032230
         H            3.964545776353    -0.264518198955     0.445387577626     1.007825032230
         H            3.403387776353    -0.794543198955    -1.152209422374     1.007825032230

  Basis Set: AUG-CC-PVTZ
    Blend: AUG-CC-PVTZ
  Basis Set: (AUG-CC-PVTZ AUX)
    Blend: AUG-CC-PVTZ-JKFIT
	 Reference Energy          =    -493.1028211886290364 [Eh]
	 Singles Energy            =      -0.0000000000000000 [Eh]
	 Same-Spin Energy          =      -0.4837140236651372 [Eh]
	 Opposite-Spin Energy      =      -1.4754919202434458 [Eh]
	 Correlation Energy        =      -1.9592059439085829 [Eh]
	 Total Energy              =    -495.0620271325375938 [Eh]

	 ================> DF-SCS-MP2 Energies <==================
	-----------------------------------------------------------
	 SCS Same-Spin Scale       =       0.3333333333333333 [-]
	 SCS Opposite-Spin Scale   =       1.2000000000000000 [-]
	 SCS Same-Spin Energy      =      -0.1612380078883791 [Eh]
	 SCS Opposite-Spin Energy  =      -1.7705903042921349 [Eh]
	 SCS Correlation Energy    =      -1.9318283121805140 [Eh]
	 SCS Total Energy          =    -495.0346495008095644 [Eh]
	-----------------------------------------------------------

  Dipole Moment: [D]
     X:    11.3648      Y:    -0.7728      Z:    -0.1067     Total:    11.3916

*** Psi4 exiting successfully. Buy a developer a beer!
