                               Psi4 1.4a3.dev225

  ==> Input File <==

--------------------------------------------------------------------------
#psi4
#
memory 32 gb

molecule  {
-1 1
  O        1.8724200    -0.7415990     0.3394840
  O        2.1027790     1.3758310    -0.4300950
  O       -3.3072830    -0.3512340    -0.9359590
  O       -2.5979240    -0.0254400     1.2183870
  C       -0.0530340     0.6334400     0.4456770
  C       -0.9697120    -0.0967620    -0.5425230
  C        1.3896910     0.5173160     0.0754460
  C       -2.4195273    -0.1449734     0.0045465
  C        3.2289120    -0.9370400    -0.0704660
  H       -0.2424870     0.2042160     1.4320630
  H       -0.3042490     1.6964080     0.4822290
  H       -0.9505240     0.3810480    -1.5282220
  H       -0.6173950    -1.1275390    -0.6764200
  H        3.4625260    -1.9695390     0.1897820
  H        3.8993660    -0.2498350     0.4514950
  H        3.3382080    -0.7798600    -1.1461020
units angstrom
no_reorient  #important for SAPT in psi4, default
symmetry c1  #important for SAPT in psi4, default
}

set PROPERTIES_ORIGIN ["COM"]
properties('MP2/aug-cc-pvtz', properties = ['dipole'])
--------------------------------------------------------------------------

    Molecular point group: c1
  Charge       = -1
  Multiplicity = 1
  Basis Set: AUG-CC-PVTZ
    Blend: AUG-CC-PVTZ
  Basis Set: (AUG-CC-PVTZ AUX)
    Blend: AUG-CC-PVTZ-JKFIT

    Orbital Energies [Eh]
    ---------------------

    Doubly Occupied:

       1A    -20.497592     2A    -20.436192     3A    -20.318645
       4A    -20.294774     5A    -11.268030     6A    -11.192043
       7A    -11.154309     8A    -11.103111     9A    -11.082115
      10A     -1.343751    11A     -1.241194    12A     -1.182612
      13A     -1.065020    14A     -0.938655    15A     -0.859632
      16A     -0.760509    17A     -0.663711    18A     -0.579467
      19A     -0.570373    20A     -0.562259    21A     -0.534167
      22A     -0.490021    23A     -0.468589    24A     -0.454249
      25A     -0.432731    26A     -0.421077    27A     -0.406156
      28A     -0.387377    29A     -0.362023    30A     -0.355113
      31A     -0.338678    32A     -0.328478    33A     -0.225301
      34A     -0.206922    35A     -0.202344

  @DF-RHF Final Energy:  -493.10419056586517

   => Energetics <=

    Nuclear Repulsion Energy =            435.3398549329149887
    One-Electron Energy =               -1551.4336510022426410
    Two-Electron Energy =                 622.9896055034625988
    Total Energy =                       -493.1041905658651103
  Basis Set: (AUG-CC-PVTZ AUX)
    Blend: AUG-CC-PVTZ-RI
    Molecular point group: c1

    Geometry (in Angstrom), charge = -1, multiplicity = 1:

       Center              X                  Y                   Z               Mass
    ------------   -----------------  -----------------  -----------------  -----------------
         O            1.934249018238    -0.756280991522     0.330182130002    15.994914619570
         O            2.164608018238     1.361149008478    -0.439396869998    15.994914619570
         O           -3.245453981762    -0.365915991522    -0.945260869998    15.994914619570
         O           -2.536094981762    -0.040121991522     1.209085130002    15.994914619570
         C            0.008795018238     0.618758008478     0.436375130002    12.000000000000
         C           -0.907882981762    -0.111443991522    -0.551824869998    12.000000000000
         C            1.451520018238     0.502634008478     0.066144130002    12.000000000000
         C           -2.357698281762    -0.159655391522    -0.004755369998    12.000000000000
         C            3.290741018238    -0.951721991522    -0.079767869998    12.000000000000
         H           -0.180657981762     0.189534008478     1.422761130002     1.007825032230
         H           -0.242419981762     1.681726008478     0.472927130002     1.007825032230
         H           -0.888694981762     0.366366008478    -1.537523869998     1.007825032230
         H           -0.555565981762    -1.142220991522    -0.685721869998     1.007825032230
         H            3.524355018238    -1.984220991522     0.180480130002     1.007825032230
         H            3.961195018238    -0.264516991522     0.442193130002     1.007825032230
         H            3.400037018238    -0.794541991522    -1.155403869998     1.007825032230

  Basis Set: AUG-CC-PVTZ
    Blend: AUG-CC-PVTZ
  Basis Set: (AUG-CC-PVTZ AUX)
    Blend: AUG-CC-PVTZ-JKFIT
	 Reference Energy          =    -493.1041905658651672 [Eh]
	 Singles Energy            =      -0.0000000000000000 [Eh]
	 Same-Spin Energy          =      -0.4840626779057624 [Eh]
	 Opposite-Spin Energy      =      -1.4767167610198126 [Eh]
	 Correlation Energy        =      -1.9607794389255750 [Eh]
	 Total Energy              =    -495.0649700047907231 [Eh]

	 ================> DF-SCS-MP2 Energies <==================
	-----------------------------------------------------------
	 SCS Same-Spin Scale       =       0.3333333333333333 [-]
	 SCS Opposite-Spin Scale   =       1.2000000000000000 [-]
	 SCS Same-Spin Energy      =      -0.1613542259685875 [Eh]
	 SCS Opposite-Spin Energy  =      -1.7720601132237752 [Eh]
	 SCS Correlation Energy    =      -1.9334143391923626 [Eh]
	 SCS Total Energy          =    -495.0376049050575489 [Eh]
	-----------------------------------------------------------

  Dipole Moment: [D]
     X:    11.6697      Y:    -0.6524      Z:     0.3184     Total:    11.6923

*** Psi4 exiting successfully. Buy a developer a beer!
