                               Psi4 1.4a3.dev225

  ==> Input File <==

--------------------------------------------------------------------------
#psi4
#
memory 32 gb

molecule  {
-1 1
  O        1.8724200    -0.7415990     0.3394840
  O        2.1027790     1.3758310    -0.4300950
  O       -3.3072830    -0.3512340    -0.9359590
  O       -2.5979240    -0.0254400     1.2183870
  C       -0.0530340     0.6334400     0.4456770
  C       -0.9697120    -0.0967620    -0.5425230
  C        1.3896910     0.5173160     0.0754460
  C       -2.4534200    -0.1528480    -0.0313600
  C        3.2289120    -0.9370400    -0.0704660
  H       -0.2424870     0.2042160     1.4320630
  H       -0.3042490     1.6964080     0.4822290
  H       -0.9470212     0.4682738    -1.7081647
  H       -0.6173950    -1.1275390    -0.6764200
  H        3.4625260    -1.9695390     0.1897820
  H        3.8993660    -0.2498350     0.4514950
  H        3.3382080    -0.7798600    -1.1461020
units angstrom
no_reorient  #important for SAPT in psi4, default
symmetry c1  #important for SAPT in psi4, default
}

set PROPERTIES_ORIGIN ["COM"]
properties('MP2/aug-cc-pvtz', properties = ['dipole'])
--------------------------------------------------------------------------

    Molecular point group: c1
  Charge       = -1
  Multiplicity = 1
  Basis Set: AUG-CC-PVTZ
    Blend: AUG-CC-PVTZ
  Basis Set: (AUG-CC-PVTZ AUX)
    Blend: AUG-CC-PVTZ-JKFIT

    Orbital Energies [Eh]
    ---------------------

    Doubly Occupied:

       1A    -20.496841     2A    -20.435139     3A    -20.311737
       4A    -20.306829     5A    -11.267212     6A    -11.191290
       7A    -11.157464     8A    -11.103791     9A    -11.103091
      10A     -1.342837    11A     -1.240121    12A     -1.178995
      13A     -1.082741    14A     -0.934822    15A     -0.855859
      16A     -0.749031    17A     -0.662106    18A     -0.576386
      19A     -0.569383    20A     -0.561451    21A     -0.527782
      22A     -0.484968    23A     -0.462021    24A     -0.450655
      25A     -0.429811    26A     -0.419353    27A     -0.412326
      28A     -0.387877    29A     -0.359758    30A     -0.346451
      31A     -0.338252    32A     -0.315276    33A     -0.226464
      34A     -0.211614    35A     -0.209316

  @DF-RHF Final Energy:  -493.08832974169587

   => Energetics <=

    Nuclear Repulsion Energy =            434.2162314076254575
    One-Electron Energy =               -1549.1910244881280505
    Two-Electron Energy =                 621.8864633388067205
    Total Energy =                       -493.0883297416959294
  Basis Set: (AUG-CC-PVTZ AUX)
    Blend: AUG-CC-PVTZ-RI
    Molecular point group: c1

    Geometry (in Angstrom), charge = -1, multiplicity = 1:

       Center              X                  Y                   Z               Mass
    ------------   -----------------  -----------------  -----------------  -----------------
         O            1.937325936106    -0.756230723397     0.334854403847    15.994914619570
         O            2.167684936106     1.361199276603    -0.434724596153    15.994914619570
         O           -3.242377063894    -0.365865723397    -0.940588596153    15.994914619570
         O           -2.533018063894    -0.040071723397     1.213757403847    15.994914619570
         C            0.011871936106     0.618808276603     0.441047403847    12.000000000000
         C           -0.904806063894    -0.111393723397    -0.547152596153    12.000000000000
         C            1.454596936106     0.502684276603     0.070816403847    12.000000000000
         C           -2.388514063894    -0.167479723397    -0.035989596153    12.000000000000
         C            3.293817936106    -0.951671723397    -0.075095596153    12.000000000000
         H           -0.177581063894     0.189584276603     1.427433403847     1.007825032230
         H           -0.239343063894     1.681776276603     0.477599403847     1.007825032230
         H           -0.882115263894     0.453642076603    -1.712794296153     1.007825032230
         H           -0.552489063894    -1.142170723397    -0.681049596153     1.007825032230
         H            3.527431936106    -1.984170723397     0.185152403847     1.007825032230
         H            3.964271936106    -0.264466723397     0.446865403847     1.007825032230
         H            3.403113936106    -0.794491723397    -1.150731596153     1.007825032230

  Basis Set: AUG-CC-PVTZ
    Blend: AUG-CC-PVTZ
  Basis Set: (AUG-CC-PVTZ AUX)
    Blend: AUG-CC-PVTZ-JKFIT
	 Reference Energy          =    -493.0883297416958726 [Eh]
	 Singles Energy            =      -0.0000000000000000 [Eh]
	 Same-Spin Energy          =      -0.4838460637506629 [Eh]
	 Opposite-Spin Energy      =      -1.4776993894561339 [Eh]
	 Correlation Energy        =      -1.9615454532067966 [Eh]
	 Total Energy              =    -495.0498751949026541 [Eh]

	 ================> DF-SCS-MP2 Energies <==================
	-----------------------------------------------------------
	 SCS Same-Spin Scale       =       0.3333333333333333 [-]
	 SCS Opposite-Spin Scale   =       1.2000000000000000 [-]
	 SCS Same-Spin Energy      =      -0.1612820212502210 [Eh]
	 SCS Opposite-Spin Energy  =      -1.7732392673473607 [Eh]
	 SCS Correlation Energy    =      -1.9345212885975815 [Eh]
	 SCS Total Energy          =    -495.0228510302934524 [Eh]
	-----------------------------------------------------------

  Dipole Moment: [D]
     X:    11.3073      Y:    -0.7756      Z:     0.0916     Total:    11.3342

*** Psi4 exiting successfully. Buy a developer a beer!
