                               Psi4 1.4a3.dev225

  ==> Input File <==

--------------------------------------------------------------------------
#psi4
#
memory 32 gb

molecule  {
-1 1
  O        1.8724200    -0.7415990     0.3394840
  O        2.1027790     1.3758310    -0.4300950
  O       -3.3072830    -0.3512340    -0.9359590
  O       -2.5979240    -0.0254400     1.2183870
  C       -0.0530340     0.6334400     0.4456770
  C       -0.9697120    -0.0967620    -0.5425230
  C        1.3896910     0.5173160     0.0754460
  C       -2.4534200    -0.1528480    -0.0313600
  C        3.2289120    -0.9370400    -0.0704660
  H       -0.2424870     0.2042160     1.4320630
  H       -0.3042490     1.6964080     0.4822290
  H       -0.9505240     0.3810480    -1.5282220
  H       -0.5531928    -1.3153760    -0.7008199
  H        3.4625260    -1.9695390     0.1897820
  H        3.8993660    -0.2498350     0.4514950
  H        3.3382080    -0.7798600    -1.1461020
units angstrom
no_reorient  #important for SAPT in psi4, default
symmetry c1  #important for SAPT in psi4, default
}

set PROPERTIES_ORIGIN ["COM"]
properties('MP2/aug-cc-pvtz', properties = ['dipole'])
--------------------------------------------------------------------------

    Molecular point group: c1
  Charge       = -1
  Multiplicity = 1
  Basis Set: AUG-CC-PVTZ
    Blend: AUG-CC-PVTZ
  Basis Set: (AUG-CC-PVTZ AUX)
    Blend: AUG-CC-PVTZ-JKFIT

    Orbital Energies [Eh]
    ---------------------

    Doubly Occupied:

       1A    -20.495479     2A    -20.435344     3A    -20.310532
       4A    -20.307607     5A    -11.267188     6A    -11.190532
       7A    -11.157095     8A    -11.103954     9A    -11.102978
      10A     -1.342082    11A     -1.239966    12A     -1.178723
      13A     -1.082573    14A     -0.934348    15A     -0.855471
      16A     -0.748610    17A     -0.661041    18A     -0.576711
      19A     -0.568434    20A     -0.560020    21A     -0.529157
      22A     -0.486595    23A     -0.458558    24A     -0.451521
      25A     -0.430054    26A     -0.419327    27A     -0.412204
      28A     -0.380312    29A     -0.361624    30A     -0.354948
      31A     -0.336505    32A     -0.313142    33A     -0.227103
      34A     -0.211359    35A     -0.209071

  @DF-RHF Final Energy:  -493.08847106112796

   => Energetics <=

    Nuclear Repulsion Energy =            434.2797873277217491
    One-Electron Energy =               -1549.3361792883024464
    Two-Electron Energy =                 621.9679208994526789
    Total Energy =                       -493.0884710611279615
  Basis Set: (AUG-CC-PVTZ AUX)
    Blend: AUG-CC-PVTZ-RI
    Molecular point group: c1

    Geometry (in Angstrom), charge = -1, multiplicity = 1:

       Center              X                  Y                   Z               Mass
    ------------   -----------------  -----------------  -----------------  -----------------
         O            1.936859078861    -0.754115133110     0.333658077637    15.994914619570
         O            2.167218078861     1.363314866890    -0.435920922363    15.994914619570
         O           -3.242843921139    -0.363750133110    -0.941784922363    15.994914619570
         O           -2.533484921139    -0.037956133110     1.212561077637    15.994914619570
         C            0.011405078861     0.620923866890     0.439851077637    12.000000000000
         C           -0.905272921139    -0.109278133110    -0.548348922363    12.000000000000
         C            1.454130078861     0.504799866890     0.069620077637    12.000000000000
         C           -2.388980921139    -0.165364133110    -0.037185922363    12.000000000000
         C            3.293351078861    -0.949556133110    -0.076291922363    12.000000000000
         H           -0.178047921139     0.191699866890     1.426237077637     1.007825032230
         H           -0.239809921139     1.683891866890     0.476403077637     1.007825032230
         H           -0.886084921139     0.368531866890    -1.534047922363     1.007825032230
         H           -0.488753721139    -1.327892133110    -0.706645822363     1.007825032230
         H            3.526965078861    -1.982055133110     0.183956077637     1.007825032230
         H            3.963805078861    -0.262351133110     0.445669077637     1.007825032230
         H            3.402647078861    -0.792376133110    -1.151927922363     1.007825032230

  Basis Set: AUG-CC-PVTZ
    Blend: AUG-CC-PVTZ
  Basis Set: (AUG-CC-PVTZ AUX)
    Blend: AUG-CC-PVTZ-JKFIT
	 Reference Energy          =    -493.0884710611279615 [Eh]
	 Singles Energy            =      -0.0000000000000000 [Eh]
	 Same-Spin Energy          =      -0.4838603889009291 [Eh]
	 Opposite-Spin Energy      =      -1.4776689195991157 [Eh]
	 Correlation Energy        =      -1.9615293085000449 [Eh]
	 Total Energy              =    -495.0500003696279805 [Eh]

	 ================> DF-SCS-MP2 Energies <==================
	-----------------------------------------------------------
	 SCS Same-Spin Scale       =       0.3333333333333333 [-]
	 SCS Opposite-Spin Scale   =       1.2000000000000000 [-]
	 SCS Same-Spin Energy      =      -0.1612867963003097 [Eh]
	 SCS Opposite-Spin Energy  =      -1.7732027035189388 [Eh]
	 SCS Correlation Energy    =      -1.9344894998192486 [Eh]
	 SCS Total Energy          =    -495.0229605609471832 [Eh]
	-----------------------------------------------------------

  Dipole Moment: [D]
     X:    11.2804      Y:    -0.5869      Z:    -0.0252     Total:    11.2957

*** Psi4 exiting successfully. Buy a developer a beer!
