                               Psi4 1.4a3.dev225

  ==> Input File <==

--------------------------------------------------------------------------
#psi4
#
memory 32 gb

molecule  {
-1 1
  O        1.8724200    -0.7415990     0.3394840
  O        2.1027790     1.3758310    -0.4300950
  O       -3.3072830    -0.3512340    -0.9359590
  O       -2.5979240    -0.0254400     1.2183870
  C       -0.0530340     0.6334400     0.4456770
  C       -0.9697120    -0.0967620    -0.5425230
  C        1.3896910     0.5173160     0.0754460
  C       -2.4534200    -0.1528480    -0.0313600
  C        3.2289120    -0.9370400    -0.0704660
  H       -0.2424870     0.2042160     1.4320630
  H       -0.3042490     1.6964080     0.4822290
  H       -0.9505240     0.3810480    -1.5282220
  H       -0.6238152    -1.1087553    -0.6739800
  H        3.4625260    -1.9695390     0.1897820
  H        3.8993660    -0.2498350     0.4514950
  H        3.3382080    -0.7798600    -1.1461020
units angstrom
no_reorient  #important for SAPT in psi4, default
symmetry c1  #important for SAPT in psi4, default
}

set PROPERTIES_ORIGIN ["COM"]
properties('MP2/aug-cc-pvtz', properties = ['dipole'])
--------------------------------------------------------------------------

    Molecular point group: c1
  Charge       = -1
  Multiplicity = 1
  Basis Set: AUG-CC-PVTZ
    Blend: AUG-CC-PVTZ
  Basis Set: (AUG-CC-PVTZ AUX)
    Blend: AUG-CC-PVTZ-JKFIT

    Orbital Energies [Eh]
    ---------------------

    Doubly Occupied:

       1A    -20.496252     2A    -20.434715     3A    -20.308884
       4A    -20.306391     5A    -11.266389     6A    -11.191022
       7A    -11.154486     8A    -11.100529     9A    -11.077100
      10A     -1.342346    11A     -1.239764    12A     -1.177337
      13A     -1.081163    14A     -0.935667    15A     -0.857618
      16A     -0.757919    17A     -0.662324    18A     -0.576964
      19A     -0.568860    20A     -0.560923    21A     -0.530791
      22A     -0.488173    23A     -0.467158    24A     -0.452154
      25A     -0.431335    26A     -0.419102    27A     -0.411294
      28A     -0.387507    29A     -0.360671    30A     -0.352902
      31A     -0.338413    32A     -0.328464    33A     -0.225768
      34A     -0.209105    35A     -0.208062

  @DF-RHF Final Energy:  -493.10854412485048

   => Energetics <=

    Nuclear Repulsion Energy =            435.2110480763000169
    One-Electron Energy =               -1551.2240801069931422
    Two-Electron Energy =                 622.9044879058425295
    Total Energy =                       -493.1085441248504821
  Basis Set: (AUG-CC-PVTZ AUX)
    Blend: AUG-CC-PVTZ-RI
    Molecular point group: c1

    Geometry (in Angstrom), charge = -1, multiplicity = 1:

       Center              X                  Y                   Z               Mass
    ------------   -----------------  -----------------  -----------------  -----------------
         O            1.937402256868    -0.755704314730     0.333451643937    15.994914619570
         O            2.167761256868     1.361725685270    -0.436127356063    15.994914619570
         O           -3.242300743132    -0.365339314730    -0.941991356063    15.994914619570
         O           -2.532941743132    -0.039545314730     1.212354643937    15.994914619570
         C            0.011948256868     0.619334685270     0.439644643937    12.000000000000
         C           -0.904729743132    -0.110867314730    -0.548555356063    12.000000000000
         C            1.454673256868     0.503210685270     0.069413643937    12.000000000000
         C           -2.388437743132    -0.166953314730    -0.037392356063    12.000000000000
         C            3.293894256868    -0.951145314730    -0.076498356063    12.000000000000
         H           -0.177504743132     0.190110685270     1.426030643937     1.007825032230
         H           -0.239266743132     1.682302685270     0.476196643937     1.007825032230
         H           -0.885541743132     0.366942685270    -1.534254356063     1.007825032230
         H           -0.558832943132    -1.122860614730    -0.680012356063     1.007825032230
         H            3.527508256868    -1.983644314730     0.183749643937     1.007825032230
         H            3.964348256868    -0.263940314730     0.445462643937     1.007825032230
         H            3.403190256868    -0.793965314730    -1.152134356063     1.007825032230

  Basis Set: AUG-CC-PVTZ
    Blend: AUG-CC-PVTZ
  Basis Set: (AUG-CC-PVTZ AUX)
    Blend: AUG-CC-PVTZ-JKFIT
	 Reference Energy          =    -493.1085441248504821 [Eh]
	 Singles Energy            =      -0.0000000000000000 [Eh]
	 Same-Spin Energy          =      -0.4837350561847152 [Eh]
	 Opposite-Spin Energy      =      -1.4758536396189308 [Eh]
	 Correlation Energy        =      -1.9595886958036459 [Eh]
	 Total Energy              =    -495.0681328206541139 [Eh]

	 ================> DF-SCS-MP2 Energies <==================
	-----------------------------------------------------------
	 SCS Same-Spin Scale       =       0.3333333333333333 [-]
	 SCS Opposite-Spin Scale   =       1.2000000000000000 [-]
	 SCS Same-Spin Energy      =      -0.1612450187282384 [Eh]
	 SCS Opposite-Spin Energy  =      -1.7710243675427169 [Eh]
	 SCS Correlation Energy    =      -1.9322693862709552 [Eh]
	 SCS Total Energy          =    -495.0408135111214278 [Eh]
	-----------------------------------------------------------

  Dipole Moment: [D]
     X:    11.3481      Y:    -0.7395      Z:    -0.0901     Total:    11.3725

*** Psi4 exiting successfully. Buy a developer a beer!
