                               Psi4 1.4a3.dev225

  ==> Input File <==

--------------------------------------------------------------------------
#psi4
#
memory 32 gb

molecule  {
-1 1
  O        1.8724200    -0.7415990     0.3394840
  O        2.1027790     1.3758310    -0.4300950
  O       -3.3072830    -0.3512340    -0.9359590
  O       -2.5979240    -0.0254400     1.2183870
  C       -0.0530340     0.6334400     0.4456770
  C       -0.9697120    -0.0967620    -0.5425230
  C        1.3896910     0.5173160     0.0754460
  C       -2.5212053    -0.1685972    -0.1031731
  C        3.2289120    -0.9370400    -0.0704660
  H       -0.2424870     0.2042160     1.4320630
  H       -0.3042490     1.6964080     0.4822290
  H       -0.9505240     0.3810480    -1.5282220
  H       -0.6173950    -1.1275390    -0.6764200
  H        3.4625260    -1.9695390     0.1897820
  H        3.8993660    -0.2498350     0.4514950
  H        3.3382080    -0.7798600    -1.1461020
units angstrom
no_reorient  #important for SAPT in psi4, default
symmetry c1  #important for SAPT in psi4, default
}

set PROPERTIES_ORIGIN ["COM"]
properties('MP2/aug-cc-pvtz', properties = ['dipole'])
--------------------------------------------------------------------------

    Molecular point group: c1
  Charge       = -1
  Multiplicity = 1
  Basis Set: AUG-CC-PVTZ
    Blend: AUG-CC-PVTZ
  Basis Set: (AUG-CC-PVTZ AUX)
    Blend: AUG-CC-PVTZ-JKFIT

    Orbital Energies [Eh]
    ---------------------

    Doubly Occupied:

       1A    -20.492988     2A    -20.431386     3A    -20.330908
       4A    -20.290385     5A    -11.262704     6A    -11.188588
       7A    -11.153465     8A    -11.095673     9A    -11.073731
      10A     -1.339043    11A     -1.236491    12A     -1.227502
      13A     -1.065509    14A     -0.928590    15A     -0.852352
      16A     -0.748517    17A     -0.658696    18A     -0.571973
      19A     -0.565407    20A     -0.557599    21A     -0.529514
      22A     -0.484954    23A     -0.464504    24A     -0.453043
      25A     -0.432638    26A     -0.421417    27A     -0.418177
      28A     -0.394397    29A     -0.360798    30A     -0.348521
      31A     -0.340089    32A     -0.331447    33A     -0.227168
      34A     -0.207997    35A     -0.193786

  @DF-RHF Final Energy:  -493.09359405682045

   => Energetics <=

    Nuclear Repulsion Energy =            434.8923292737105726
    One-Electron Energy =               -1550.6119295927890107
    Two-Electron Energy =                 622.6260062622578744
    Total Energy =                       -493.0935940568205069
  Basis Set: (AUG-CC-PVTZ AUX)
    Blend: AUG-CC-PVTZ-RI
    Molecular point group: c1

    Geometry (in Angstrom), charge = -1, multiplicity = 1:

       Center              X                  Y                   Z               Mass
    ------------   -----------------  -----------------  -----------------  -----------------
         O            1.943560585934    -0.754117547976     0.340046981274    15.994914619570
         O            2.173919585934     1.363312452024    -0.429532018726    15.994914619570
         O           -3.236142414066    -0.363752547976    -0.935396018726    15.994914619570
         O           -2.526783414066    -0.037958547976     1.218949981274    15.994914619570
         C            0.018106585934     0.620921452024     0.446239981274    12.000000000000
         C           -0.898571414066    -0.109280547976    -0.541960018726    12.000000000000
         C            1.460831585934     0.504797452024     0.076008981274    12.000000000000
         C           -2.450064714066    -0.181115747976    -0.102610118726    12.000000000000
         C            3.300052585934    -0.949558547976    -0.069903018726    12.000000000000
         H           -0.171346414066     0.191697452024     1.432625981274     1.007825032230
         H           -0.233108414066     1.683889452024     0.482791981274     1.007825032230
         H           -0.879383414066     0.368529452024    -1.527659018726     1.007825032230
         H           -0.546254414066    -1.140057547976    -0.675857018726     1.007825032230
         H            3.533666585934    -1.982057547976     0.190344981274     1.007825032230
         H            3.970506585934    -0.262353547976     0.452057981274     1.007825032230
         H            3.409348585934    -0.792378547976    -1.145539018726     1.007825032230

  Basis Set: AUG-CC-PVTZ
    Blend: AUG-CC-PVTZ
  Basis Set: (AUG-CC-PVTZ AUX)
    Blend: AUG-CC-PVTZ-JKFIT
	 Reference Energy          =    -493.0935940568204501 [Eh]
	 Singles Energy            =      -0.0000000000000000 [Eh]
	 Same-Spin Energy          =      -0.4831432471053262 [Eh]
	 Opposite-Spin Energy      =      -1.4746793073231270 [Eh]
	 Correlation Energy        =      -1.9578225544284531 [Eh]
	 Total Energy              =    -495.0514166112488965 [Eh]

	 ================> DF-SCS-MP2 Energies <==================
	-----------------------------------------------------------
	 SCS Same-Spin Scale       =       0.3333333333333333 [-]
	 SCS Opposite-Spin Scale   =       1.2000000000000000 [-]
	 SCS Same-Spin Energy      =      -0.1610477490351087 [Eh]
	 SCS Opposite-Spin Energy  =      -1.7696151687877524 [Eh]
	 SCS Correlation Energy    =      -1.9306629178228611 [Eh]
	 SCS Total Energy          =    -495.0242569746433219 [Eh]
	-----------------------------------------------------------

  Dipole Moment: [D]
     X:    10.6512      Y:    -0.8930      Z:    -0.9250     Total:    10.7285

*** Psi4 exiting successfully. Buy a developer a beer!
