                               Psi4 1.4a3.dev225

  ==> Input File <==

--------------------------------------------------------------------------
#psi4
#
memory 32 gb

molecule  {
-1 1
  O        1.7857544    -0.7639572     0.3739141
  O        2.1027790     1.3758310    -0.4300950
  O       -3.3072830    -0.3512340    -0.9359590
  O       -2.5979240    -0.0254400     1.2183870
  C       -0.0530340     0.6334400     0.4456770
  C       -0.9697120    -0.0967620    -0.5425230
  C        1.3896910     0.5173160     0.0754460
  C       -2.4534200    -0.1528480    -0.0313600
  C        3.2289120    -0.9370400    -0.0704660
  H       -0.2424870     0.2042160     1.4320630
  H       -0.3042490     1.6964080     0.4822290
  H       -0.9505240     0.3810480    -1.5282220
  H       -0.6173950    -1.1275390    -0.6764200
  H        3.4625260    -1.9695390     0.1897820
  H        3.8993660    -0.2498350     0.4514950
  H        3.3382080    -0.7798600    -1.1461020
units angstrom
no_reorient  #important for SAPT in psi4, default
symmetry c1  #important for SAPT in psi4, default
}

set PROPERTIES_ORIGIN ["COM"]
properties('MP2/aug-cc-pvtz', properties = ['dipole'])
--------------------------------------------------------------------------

    Molecular point group: c1
  Charge       = -1
  Multiplicity = 1
  Basis Set: AUG-CC-PVTZ
    Blend: AUG-CC-PVTZ
  Basis Set: (AUG-CC-PVTZ AUX)
    Blend: AUG-CC-PVTZ-JKFIT

    Orbital Energies [Eh]
    ---------------------

    Doubly Occupied:

       1A    -20.501586     2A    -20.436544     3A    -20.306835
       4A    -20.304473     5A    -11.264464     6A    -11.200564
       7A    -11.152404     8A    -11.094936     9A    -11.076584
      10A     -1.329706    11A     -1.235666    12A     -1.175319
      13A     -1.079179    14A     -0.929455    15A     -0.855060
      16A     -0.755392    17A     -0.654766    18A     -0.572482
      19A     -0.563416    20A     -0.550330    21A     -0.526134
      22A     -0.485352    23A     -0.458516    24A     -0.455619
      25A     -0.436848    26A     -0.420327    27A     -0.410577
      28A     -0.382464    29A     -0.364642    30A     -0.351498
      31A     -0.335374    32A     -0.325355    33A     -0.223741
      34A     -0.206966    35A     -0.206117

  @DF-RHF Final Energy:  -493.09715670157726

   => Energetics <=

    Nuclear Repulsion Energy =            434.4838064638146307
    One-Electron Energy =               -1549.9045466387719898
    Two-Electron Energy =                 622.3235834733800402
    Total Energy =                       -493.0971567015772052
  Basis Set: (AUG-CC-PVTZ AUX)
    Blend: AUG-CC-PVTZ-RI
    Molecular point group: c1

    Geometry (in Angstrom), charge = -1, multiplicity = 1:

       Center              X                  Y                   Z               Mass
    ------------   -----------------  -----------------  -----------------  -----------------
         O            1.861266243597    -0.775188856467     0.363697748927    15.994914619570
         O            2.178290843597     1.364599343533    -0.440311351073    15.994914619570
         O           -3.231771156403    -0.362465656467    -0.946175351073    15.994914619570
         O           -2.522412156403    -0.036671656467     1.208170648927    15.994914619570
         C            0.022477843597     0.622208343533     0.435460648927    12.000000000000
         C           -0.894200156403    -0.107993656467    -0.552739351073    12.000000000000
         C            1.465202843597     0.506084343533     0.065229648927    12.000000000000
         C           -2.377908156403    -0.164079656467    -0.041576351073    12.000000000000
         C            3.304423843597    -0.948271656467    -0.080682351073    12.000000000000
         H           -0.166975156403     0.192984343533     1.421846648927     1.007825032230
         H           -0.228737156403     1.685176343533     0.472012648927     1.007825032230
         H           -0.875012156403     0.369816343533    -1.538438351073     1.007825032230
         H           -0.541883156403    -1.138770656467    -0.686636351073     1.007825032230
         H            3.538037843597    -1.980770656467     0.179565648927     1.007825032230
         H            3.974877843597    -0.261066656467     0.441278648927     1.007825032230
         H            3.413719843597    -0.791091656467    -1.156318351073     1.007825032230

  Basis Set: AUG-CC-PVTZ
    Blend: AUG-CC-PVTZ
  Basis Set: (AUG-CC-PVTZ AUX)
    Blend: AUG-CC-PVTZ-JKFIT
	 Reference Energy          =    -493.0971567015772621 [Eh]
	 Singles Energy            =      -0.0000000000000000 [Eh]
	 Same-Spin Energy          =      -0.4848365685274328 [Eh]
	 Opposite-Spin Energy      =      -1.4794751209138917 [Eh]
	 Correlation Energy        =      -1.9643116894413244 [Eh]
	 Total Energy              =    -495.0614683910185931 [Eh]

	 ================> DF-SCS-MP2 Energies <==================
	-----------------------------------------------------------
	 SCS Same-Spin Scale       =       0.3333333333333333 [-]
	 SCS Opposite-Spin Scale   =       1.2000000000000000 [-]
	 SCS Same-Spin Energy      =      -0.1616121895091442 [Eh]
	 SCS Opposite-Spin Energy  =      -1.7753701450966699 [Eh]
	 SCS Correlation Energy    =      -1.9369823346058141 [Eh]
	 SCS Total Energy          =    -495.0341390361830918 [Eh]
	-----------------------------------------------------------

  Dipole Moment: [D]
     X:    11.6568      Y:    -0.7640      Z:    -0.1461     Total:    11.6828

*** Psi4 exiting successfully. Buy a developer a beer!
