                               Psi4 1.4a3.dev225

  ==> Input File <==

--------------------------------------------------------------------------
#psi4
#
memory 32 gb

molecule  {
-1 1
  O        1.8937352    -0.7350462     0.3306688
  O        2.1027790     1.3758310    -0.4300950
  O       -3.3072830    -0.3512340    -0.9359590
  O       -2.5979240    -0.0254400     1.2183870
  C       -0.0530340     0.6334400     0.4456770
  C       -0.9697120    -0.0967620    -0.5425230
  C        1.3896910     0.5173160     0.0754460
  C       -2.4534200    -0.1528480    -0.0313600
  C        3.2289120    -0.9370400    -0.0704660
  H       -0.2424870     0.2042160     1.4320630
  H       -0.3042490     1.6964080     0.4822290
  H       -0.9505240     0.3810480    -1.5282220
  H       -0.6173950    -1.1275390    -0.6764200
  H        3.4625260    -1.9695390     0.1897820
  H        3.8993660    -0.2498350     0.4514950
  H        3.3382080    -0.7798600    -1.1461020
units angstrom
no_reorient  #important for SAPT in psi4, default
symmetry c1  #important for SAPT in psi4, default
}

set PROPERTIES_ORIGIN ["COM"]
properties('MP2/aug-cc-pvtz', properties = ['dipole'])
--------------------------------------------------------------------------

    Molecular point group: c1
  Charge       = -1
  Multiplicity = 1
  Basis Set: AUG-CC-PVTZ
    Blend: AUG-CC-PVTZ
  Basis Set: (AUG-CC-PVTZ AUX)
    Blend: AUG-CC-PVTZ-JKFIT

    Orbital Energies [Eh]
    ---------------------

    Doubly Occupied:

       1A    -20.494584     2A    -20.434338     3A    -20.309541
       4A    -20.306964     5A    -11.267096     6A    -11.188653
       7A    -11.155250     8A    -11.102272     9A    -11.080367
      10A     -1.346124    11A     -1.240984    12A     -1.177954
      13A     -1.081780    14A     -0.936882    15A     -0.858267
      16A     -0.757013    17A     -0.664006    18A     -0.578522
      19A     -0.570021    20A     -0.563782    21A     -0.531550
      22A     -0.488576    23A     -0.468948    24A     -0.451689
      25A     -0.429445    26A     -0.417868    27A     -0.411251
      28A     -0.387809    29A     -0.359760    30A     -0.352904
      31A     -0.338459    32A     -0.328244    33A     -0.226388
      34A     -0.209850    35A     -0.208635

  @DF-RHF Final Energy:  -493.10925472964720

   => Energetics <=

    Nuclear Repulsion Energy =            435.3063919860337592
    One-Electron Energy =               -1551.3797366100955060
    Two-Electron Energy =                 622.9640898944145420
    Total Energy =                       -493.1092547296472048
  Basis Set: (AUG-CC-PVTZ AUX)
    Blend: AUG-CC-PVTZ-RI
    Molecular point group: c1

    Geometry (in Angstrom), charge = -1, multiplicity = 1:

       Center              X                  Y                   Z               Mass
    ------------   -----------------  -----------------  -----------------  -----------------
         O            1.956066205342    -0.749806921031     0.325731251312    15.994914619570
         O            2.165110005342     1.361070278969    -0.435032548688    15.994914619570
         O           -3.244951994658    -0.365994721031    -0.940896548688    15.994914619570
         O           -2.535592994658    -0.040200721031     1.213449451312    15.994914619570
         C            0.009297005342     0.618679278969     0.440739451312    12.000000000000
         C           -0.907380994658    -0.111522721031    -0.547460548688    12.000000000000
         C            1.452022005342     0.502555278969     0.070508451312    12.000000000000
         C           -2.391088994658    -0.167608721031    -0.036297548688    12.000000000000
         C            3.291243005342    -0.951800721031    -0.075403548688    12.000000000000
         H           -0.180155994658     0.189455278969     1.427125451312     1.007825032230
         H           -0.241917994658     1.681647278969     0.477291451312     1.007825032230
         H           -0.888192994658     0.366287278969    -1.533159548688     1.007825032230
         H           -0.555063994658    -1.142299721031    -0.681357548688     1.007825032230
         H            3.524857005342    -1.984299721031     0.184844451312     1.007825032230
         H            3.961697005342    -0.264595721031     0.446557451312     1.007825032230
         H            3.400539005342    -0.794620721031    -1.151039548688     1.007825032230

  Basis Set: AUG-CC-PVTZ
    Blend: AUG-CC-PVTZ
  Basis Set: (AUG-CC-PVTZ AUX)
    Blend: AUG-CC-PVTZ-JKFIT
	 Reference Energy          =    -493.1092547296472048 [Eh]
	 Singles Energy            =      -0.0000000000000000 [Eh]
	 Same-Spin Energy          =      -0.4835472421356980 [Eh]
	 Opposite-Spin Energy      =      -1.4752519671676918 [Eh]
	 Correlation Energy        =      -1.9587992093033897 [Eh]
	 Total Energy              =    -495.0680539389505839 [Eh]

	 ================> DF-SCS-MP2 Energies <==================
	-----------------------------------------------------------
	 SCS Same-Spin Scale       =       0.3333333333333333 [-]
	 SCS Opposite-Spin Scale   =       1.2000000000000000 [-]
	 SCS Same-Spin Energy      =      -0.1611824140452326 [Eh]
	 SCS Opposite-Spin Energy  =      -1.7703023606012300 [Eh]
	 SCS Correlation Energy    =      -1.9314847746464627 [Eh]
	 SCS Total Energy          =    -495.0407395042936400 [Eh]
	-----------------------------------------------------------

  Dipole Moment: [D]
     X:    11.2560      Y:    -0.7199      Z:    -0.0679     Total:    11.2792

*** Psi4 exiting successfully. Buy a developer a beer!
