                               Psi4 1.4a3.dev225

  ==> Input File <==

--------------------------------------------------------------------------
#psi4
#
memory 32 gb

molecule  {
-1 1
  O        1.8724200    -0.7415990     0.3394840
  O        2.1027790     1.3758310    -0.4300950
  O       -3.3072830    -0.3512340    -0.9359590
  O       -2.5979240    -0.0254400     1.2183870
  C       -0.0530340     0.6334400     0.4456770
  C       -0.9697120    -0.0967620    -0.5425230
  C        1.3896910     0.5173160     0.0754460
  C       -2.4534200    -0.1528480    -0.0313600
  C        3.2289120    -0.9370400    -0.0704660
  H       -0.2424870     0.2042160     1.4320630
  H       -0.3042490     1.6964080     0.4822290
  H       -0.9115476     0.2812710    -1.5691588
  H       -0.6173950    -1.1275390    -0.6764200
  H        3.4625260    -1.9695390     0.1897820
  H        3.8993660    -0.2498350     0.4514950
  H        3.3382080    -0.7798600    -1.1461020
units angstrom
no_reorient  #important for SAPT in psi4, default
symmetry c1  #important for SAPT in psi4, default
}

set PROPERTIES_ORIGIN ["COM"]
properties('MP2/aug-cc-pvtz', properties = ['dipole'])
--------------------------------------------------------------------------

    Molecular point group: c1
  Charge       = -1
  Multiplicity = 1
  Basis Set: AUG-CC-PVTZ
    Blend: AUG-CC-PVTZ
  Basis Set: (AUG-CC-PVTZ AUX)
    Blend: AUG-CC-PVTZ-JKFIT

    Orbital Energies [Eh]
    ---------------------

    Doubly Occupied:

       1A    -20.496273     2A    -20.434892     3A    -20.309250
       4A    -20.306228     5A    -11.266666     6A    -11.191070
       7A    -11.155313     8A    -11.101797     9A    -11.079481
      10A     -1.342434    11A     -1.239888    12A     -1.177420
      13A     -1.081284    14A     -0.935366    15A     -0.857231
      16A     -0.757412    17A     -0.662583    18A     -0.577807
      19A     -0.568817    20A     -0.561148    21A     -0.532331
      22A     -0.486625    23A     -0.462096    24A     -0.452898
      25A     -0.432193    26A     -0.419409    27A     -0.411669
      28A     -0.385437    29A     -0.362387    30A     -0.355632
      31A     -0.337743    32A     -0.323667    33A     -0.226288
      34A     -0.209717    35A     -0.208126

  @DF-RHF Final Energy:  -493.10716261007150

   => Energetics <=

    Nuclear Repulsion Energy =            435.0686540106573261
    One-Electron Energy =               -1550.9344755619767966
    Two-Electron Energy =                 622.7586589412478588
    Total Energy =                       -493.1071626100715548
  Basis Set: (AUG-CC-PVTZ AUX)
    Blend: AUG-CC-PVTZ-RI
    Molecular point group: c1

    Geometry (in Angstrom), charge = -1, multiplicity = 1:

       Center              X                  Y                   Z               Mass
    ------------   -----------------  -----------------  -----------------  -----------------
         O            1.937053098036    -0.754792428915     0.333785267883    15.994914619570
         O            2.167412098036     1.362637571085    -0.435793732117    15.994914619570
         O           -3.242649901964    -0.364427428915    -0.941657732117    15.994914619570
         O           -2.533290901964    -0.038633428915     1.212688267883    15.994914619570
         C            0.011599098036     0.620246571085     0.439978267883    12.000000000000
         C           -0.905078901964    -0.109955428915    -0.548221732117    12.000000000000
         C            1.454324098036     0.504122571085     0.069747267883    12.000000000000
         C           -2.388786901964    -0.166041428915    -0.037058732117    12.000000000000
         C            3.293545098036    -0.950233428915    -0.076164732117    12.000000000000
         H           -0.177853901964     0.191022571085     1.426364267883     1.007825032230
         H           -0.239615901964     1.683214571085     0.476530267883     1.007825032230
         H           -0.846914501964     0.268077571085    -1.574857532117     1.007825032230
         H           -0.552761901964    -1.140732428915    -0.682118732117     1.007825032230
         H            3.527159098036    -1.982732428915     0.184083267883     1.007825032230
         H            3.963999098036    -0.263028428915     0.445796267883     1.007825032230
         H            3.402841098036    -0.793053428915    -1.151800732117     1.007825032230

  Basis Set: AUG-CC-PVTZ
    Blend: AUG-CC-PVTZ
  Basis Set: (AUG-CC-PVTZ AUX)
    Blend: AUG-CC-PVTZ-JKFIT
	 Reference Energy          =    -493.1071626100714980 [Eh]
	 Singles Energy            =      -0.0000000000000000 [Eh]
	 Same-Spin Energy          =      -0.4837711831473607 [Eh]
	 Opposite-Spin Energy      =      -1.4759362667780151 [Eh]
	 Correlation Energy        =      -1.9597074499253759 [Eh]
	 Total Energy              =    -495.0668700599968588 [Eh]

	 ================> DF-SCS-MP2 Energies <==================
	-----------------------------------------------------------
	 SCS Same-Spin Scale       =       0.3333333333333333 [-]
	 SCS Opposite-Spin Scale   =       1.2000000000000000 [-]
	 SCS Same-Spin Energy      =      -0.1612570610491202 [Eh]
	 SCS Opposite-Spin Energy  =      -1.7711235201336182 [Eh]
	 SCS Correlation Energy    =      -1.9323805811827384 [Eh]
	 SCS Total Energy          =    -495.0395431912542108 [Eh]
	-----------------------------------------------------------

  Dipole Moment: [D]
     X:    11.3722      Y:    -0.7513      Z:    -0.0966     Total:    11.3974

*** Psi4 exiting successfully. Buy a developer a beer!
