                               Psi4 1.4a3.dev225

  ==> Input File <==

--------------------------------------------------------------------------
#psi4
#
memory 32 gb

molecule  {
-1 1
  O        1.8724200    -0.7415990     0.3394840
  O        2.1027790     1.3758310    -0.4300950
  O       -3.3072830    -0.3512340    -0.9359590
  O       -2.5979240    -0.0254400     1.2183870
  C        0.0666459     0.6050008     0.3426460
  C       -0.9697120    -0.0967620    -0.5425230
  C        1.3896910     0.5173160     0.0754460
  C       -2.4534200    -0.1528480    -0.0313600
  C        3.2289120    -0.9370400    -0.0704660
  H       -0.2424870     0.2042160     1.4320630
  H       -0.3042490     1.6964080     0.4822290
  H       -0.9505240     0.3810480    -1.5282220
  H       -0.6173950    -1.1275390    -0.6764200
  H        3.4625260    -1.9695390     0.1897820
  H        3.8993660    -0.2498350     0.4514950
  H        3.3382080    -0.7798600    -1.1461020
units angstrom
no_reorient  #important for SAPT in psi4, default
symmetry c1  #important for SAPT in psi4, default
}

set PROPERTIES_ORIGIN ["COM"]
properties('MP2/aug-cc-pvtz', properties = ['dipole'])
--------------------------------------------------------------------------

    Molecular point group: c1
  Charge       = -1
  Multiplicity = 1
  Basis Set: AUG-CC-PVTZ
    Blend: AUG-CC-PVTZ
  Basis Set: (AUG-CC-PVTZ AUX)
    Blend: AUG-CC-PVTZ-JKFIT

    Orbital Energies [Eh]
    ---------------------

    Doubly Occupied:

       1A    -20.494103     2A    -20.431601     3A    -20.312631
       4A    -20.310898     5A    -11.260501     6A    -11.189959
       7A    -11.160313     8A    -11.103481     9A    -11.085674
      10A     -1.344082    11A     -1.239493    12A     -1.180801
      13A     -1.084642    14A     -0.956753    15A     -0.855862
      16A     -0.775648    17A     -0.657585    18A     -0.577988
      19A     -0.571180    20A     -0.561546    21A     -0.534595
      22A     -0.489183    23A     -0.462843    24A     -0.458225
      25A     -0.431833    26A     -0.427185    27A     -0.410619
      28A     -0.373200    29A     -0.359712    30A     -0.347985
      31A     -0.333941    32A     -0.315246    33A     -0.229168
      34A     -0.215570    35A     -0.211413

  @DF-RHF Final Energy:  -493.07599748315215

   => Energetics <=

    Nuclear Repulsion Energy =            436.6934540446887354
    One-Electron Energy =               -1554.0279836746863111
    Two-Electron Energy =                 624.2585321468454822
    Total Energy =                       -493.0759974831521504
  Basis Set: (AUG-CC-PVTZ AUX)
    Blend: AUG-CC-PVTZ-RI
    Molecular point group: c1

    Geometry (in Angstrom), charge = -1, multiplicity = 1:

       Center              X                  Y                   Z               Mass
    ------------   -----------------  -----------------  -----------------  -----------------
         O            1.926392713823    -0.752955410699     0.342905884765    15.994914619570
         O            2.156751713823     1.364474589301    -0.426673115235    15.994914619570
         O           -3.253310286177    -0.362590410699    -0.932537115235    15.994914619570
         O           -2.543951286177    -0.036796410699     1.221808884765    15.994914619570
         C            0.120618613823     0.593644389301     0.346067884765    12.000000000000
         C           -0.915739286177    -0.108118410699    -0.539101115235    12.000000000000
         C            1.443663713823     0.505959589301     0.078867884765    12.000000000000
         C           -2.399447286177    -0.164204410699    -0.027938115235    12.000000000000
         C            3.282884713823    -0.948396410699    -0.067044115235    12.000000000000
         H           -0.188514286177     0.192859589301     1.435484884765     1.007825032230
         H           -0.250276286177     1.685051589301     0.485650884765     1.007825032230
         H           -0.896551286177     0.369691589301    -1.524800115235     1.007825032230
         H           -0.563422286177    -1.138895410699    -0.672998115235     1.007825032230
         H            3.516498713823    -1.980895410699     0.193203884765     1.007825032230
         H            3.953338713823    -0.261191410699     0.454916884765     1.007825032230
         H            3.392180713823    -0.791216410699    -1.142680115235     1.007825032230

  Basis Set: AUG-CC-PVTZ
    Blend: AUG-CC-PVTZ
  Basis Set: (AUG-CC-PVTZ AUX)
    Blend: AUG-CC-PVTZ-JKFIT
	 Reference Energy          =    -493.0759974831521504 [Eh]
	 Singles Energy            =      -0.0000000000000000 [Eh]
	 Same-Spin Energy          =      -0.4863086027712632 [Eh]
	 Opposite-Spin Energy      =      -1.4796596124645571 [Eh]
	 Correlation Energy        =      -1.9659682152358204 [Eh]
	 Total Energy              =    -495.0419656983879690 [Eh]

	 ================> DF-SCS-MP2 Energies <==================
	-----------------------------------------------------------
	 SCS Same-Spin Scale       =       0.3333333333333333 [-]
	 SCS Opposite-Spin Scale   =       1.2000000000000000 [-]
	 SCS Same-Spin Energy      =      -0.1621028675904211 [Eh]
	 SCS Opposite-Spin Energy  =      -1.7755915349574685 [Eh]
	 SCS Correlation Energy    =      -1.9376944025478895 [Eh]
	 SCS Total Energy          =    -495.0136918857000410 [Eh]
	-----------------------------------------------------------

  Dipole Moment: [D]
     X:    11.0320      Y:    -0.7937      Z:    -0.1229     Total:    11.0612

*** Psi4 exiting successfully. Buy a developer a beer!
