                               Psi4 1.4a3.dev225

  ==> Input File <==

--------------------------------------------------------------------------
#psi4
#
memory 32 gb

molecule  {
-1 1
  O        1.9567338    -0.7131075     0.3037675
  O        2.1027790     1.3758310    -0.4300950
  O       -3.3072830    -0.3512340    -0.9359590
  O       -2.5979240    -0.0254400     1.2183870
  C       -0.0530340     0.6334400     0.4456770
  C       -0.9697120    -0.0967620    -0.5425230
  C        1.3896910     0.5173160     0.0754460
  C       -2.4534200    -0.1528480    -0.0313600
  C        3.2289120    -0.9370400    -0.0704660
  H       -0.2424870     0.2042160     1.4320630
  H       -0.3042490     1.6964080     0.4822290
  H       -0.9505240     0.3810480    -1.5282220
  H       -0.6173950    -1.1275390    -0.6764200
  H        3.4625260    -1.9695390     0.1897820
  H        3.8993660    -0.2498350     0.4514950
  H        3.3382080    -0.7798600    -1.1461020
units angstrom
no_reorient  #important for SAPT in psi4, default
symmetry c1  #important for SAPT in psi4, default
}

set PROPERTIES_ORIGIN ["COM"]
properties('MP2/aug-cc-pvtz', properties = ['dipole'])
--------------------------------------------------------------------------

    Molecular point group: c1
  Charge       = -1
  Multiplicity = 1
  Basis Set: AUG-CC-PVTZ
    Blend: AUG-CC-PVTZ
  Basis Set: (AUG-CC-PVTZ AUX)
    Blend: AUG-CC-PVTZ-JKFIT

    Orbital Energies [Eh]
    ---------------------

    Doubly Occupied:

       1A    -20.489245     2A    -20.433194     3A    -20.311244
       4A    -20.308531     5A    -11.269542     6A    -11.181921
       7A    -11.157037     8A    -11.106895     9A    -11.082722
      10A     -1.359303    11A     -1.245037    12A     -1.179611
      13A     -1.083416    14A     -0.941403    15A     -0.862147
      16A     -0.758218    17A     -0.669239    18A     -0.585261
      19A     -0.574157    20A     -0.572575    21A     -0.534974
      22A     -0.491027    23A     -0.477519    24A     -0.451142
      25A     -0.426733    26A     -0.414253    27A     -0.407189
      28A     -0.390305    29A     -0.358944    30A     -0.349281
      31A     -0.339141    32A     -0.329770    33A     -0.228054
      34A     -0.211660    35A     -0.210200

  @DF-RHF Final Energy:  -493.10570254848312

   => Energetics <=

    Nuclear Repulsion Energy =            435.9414900314540091
    One-Electron Energy =               -1552.5126047263509008
    Two-Electron Energy =                 623.4654121464138825
    Total Energy =                       -493.1057025484831229
  Basis Set: (AUG-CC-PVTZ AUX)
    Blend: AUG-CC-PVTZ-RI
    Molecular point group: c1

    Geometry (in Angstrom), charge = -1, multiplicity = 1:

       Center              X                  Y                   Z               Mass
    ------------   -----------------  -----------------  -----------------  -----------------
         O            2.011374786774    -0.730546201340     0.302113698832    15.994914619570
         O            2.157419986774     1.358392298660    -0.431748801168    15.994914619570
         O           -3.252642013226    -0.368672701340    -0.937612801168    15.994914619570
         O           -2.543283013226    -0.042878701340     1.216733198832    15.994914619570
         C            0.001606986774     0.616001298660     0.444023198832    12.000000000000
         C           -0.915071013226    -0.114200701340    -0.544176801168    12.000000000000
         C            1.444331986774     0.499877298660     0.073792198832    12.000000000000
         C           -2.398779013226    -0.170286701340    -0.033013801168    12.000000000000
         C            3.283552986774    -0.954478701340    -0.072119801168    12.000000000000
         H           -0.187846013226     0.186777298660     1.430409198832     1.007825032230
         H           -0.249608013226     1.678969298660     0.480575198832     1.007825032230
         H           -0.895883013226     0.363609298660    -1.529875801168     1.007825032230
         H           -0.562754013226    -1.144977701340    -0.678073801168     1.007825032230
         H            3.517166986774    -1.986977701340     0.188128198832     1.007825032230
         H            3.954006986774    -0.267273701340     0.449841198832     1.007825032230
         H            3.392848986774    -0.797298701340    -1.147755801168     1.007825032230

  Basis Set: AUG-CC-PVTZ
    Blend: AUG-CC-PVTZ
  Basis Set: (AUG-CC-PVTZ AUX)
    Blend: AUG-CC-PVTZ-JKFIT
	 Reference Energy          =    -493.1057025484831229 [Eh]
	 Singles Energy            =      -0.0000000000000000 [Eh]
	 Same-Spin Energy          =      -0.4831522631078592 [Eh]
	 Opposite-Spin Energy      =      -1.4734744002533082 [Eh]
	 Correlation Energy        =      -1.9566266633611673 [Eh]
	 Total Energy              =    -495.0623292118443146 [Eh]

	 ================> DF-SCS-MP2 Energies <==================
	-----------------------------------------------------------
	 SCS Same-Spin Scale       =       0.3333333333333333 [-]
	 SCS Opposite-Spin Scale   =       1.2000000000000000 [-]
	 SCS Same-Spin Energy      =      -0.1610507543692864 [Eh]
	 SCS Opposite-Spin Energy  =      -1.7681692803039699 [Eh]
	 SCS Correlation Energy    =      -1.9292200346732562 [Eh]
	 SCS Total Energy          =    -495.0349225831564013 [Eh]
	-----------------------------------------------------------

  Dipole Moment: [D]
     X:    10.9708      Y:    -0.6884      Z:    -0.0097     Total:    10.9924

*** Psi4 exiting successfully. Buy a developer a beer!
