                               Psi4 1.4a3.dev225

  ==> Input File <==

--------------------------------------------------------------------------
#psi4
#
memory 32 gb

molecule  {
-1 1
  O        1.8724200    -0.7415990     0.3394840
  O        2.1027790     1.3758310    -0.4300950
  O       -3.3072830    -0.3512340    -0.9359590
  O       -2.5979240    -0.0254400     1.2183870
  C       -0.0530340     0.6334400     0.4456770
  C       -0.9697120    -0.0967620    -0.5425230
  C        1.3845814     0.5291032     0.0527558
  C       -2.4534200    -0.1528480    -0.0313600
  C        3.2289120    -0.9370400    -0.0704660
  H       -0.2424870     0.2042160     1.4320630
  H       -0.3042490     1.6964080     0.4822290
  H       -0.9505240     0.3810480    -1.5282220
  H       -0.6173950    -1.1275390    -0.6764200
  H        3.4625260    -1.9695390     0.1897820
  H        3.8993660    -0.2498350     0.4514950
  H        3.3382080    -0.7798600    -1.1461020
units angstrom
no_reorient  #important for SAPT in psi4, default
symmetry c1  #important for SAPT in psi4, default
}

set PROPERTIES_ORIGIN ["COM"]
properties('MP2/aug-cc-pvtz', properties = ['dipole'])
--------------------------------------------------------------------------

    Molecular point group: c1
  Charge       = -1
  Multiplicity = 1
  Basis Set: AUG-CC-PVTZ
    Blend: AUG-CC-PVTZ
  Basis Set: (AUG-CC-PVTZ AUX)
    Blend: AUG-CC-PVTZ-JKFIT

    Orbital Energies [Eh]
    ---------------------

    Doubly Occupied:

       1A    -20.491528     2A    -20.438512     3A    -20.309125
       4A    -20.306472     5A    -11.266033     6A    -11.188726
       7A    -11.154675     8A    -11.101171     9A    -11.079538
      10A     -1.340112    11A     -1.245201    12A     -1.177484
      13A     -1.081320    14A     -0.934942    15A     -0.853667
      16A     -0.756437    17A     -0.659083    18A     -0.578454
      19A     -0.568689    20A     -0.557907    21A     -0.529982
      22A     -0.490595    23A     -0.464821    24A     -0.453614
      25A     -0.431479    26A     -0.419242    27A     -0.411973
      28A     -0.386373    29A     -0.360007    30A     -0.354993
      31A     -0.338869    32A     -0.328345    33A     -0.225968
      34A     -0.209211    35A     -0.208184

  @DF-RHF Final Energy:  -493.10838954078054

   => Energetics <=

    Nuclear Repulsion Energy =            435.1289573866046112
    One-Electron Energy =               -1551.0692331168888813
    Two-Electron Energy =                 622.8318861895036207
    Total Energy =                       -493.1083895407805358
  Basis Set: (AUG-CC-PVTZ AUX)
    Blend: AUG-CC-PVTZ-RI
    Molecular point group: c1

    Geometry (in Angstrom), charge = -1, multiplicity = 1:

       Center              X                  Y                   Z               Mass
    ------------   -----------------  -----------------  -----------------  -----------------
         O            1.937820809154    -0.756639303446     0.335548356116    15.994914619570
         O            2.168179809154     1.360790696554    -0.434030643884    15.994914619570
         O           -3.241882190846    -0.366274303446    -0.939894643884    15.994914619570
         O           -2.532523190846    -0.040480303446     1.214451356116    15.994914619570
         C            0.012366809154     0.618399696554     0.441741356116    12.000000000000
         C           -0.904311190846    -0.111802303446    -0.546458643884    12.000000000000
         C            1.449982209154     0.514062896554     0.048820156116    12.000000000000
         C           -2.388019190846    -0.167888303446    -0.035295643884    12.000000000000
         C            3.294312809154    -0.952080303446    -0.074401643884    12.000000000000
         H           -0.177086190846     0.189175696554     1.428127356116     1.007825032230
         H           -0.238848190846     1.681367696554     0.478293356116     1.007825032230
         H           -0.885123190846     0.366007696554    -1.532157643884     1.007825032230
         H           -0.551994190846    -1.142579303446    -0.680355643884     1.007825032230
         H            3.527926809154    -1.984579303446     0.185846356116     1.007825032230
         H            3.964766809154    -0.264875303446     0.447559356116     1.007825032230
         H            3.403608809154    -0.794900303446    -1.150037643884     1.007825032230

  Basis Set: AUG-CC-PVTZ
    Blend: AUG-CC-PVTZ
  Basis Set: (AUG-CC-PVTZ AUX)
    Blend: AUG-CC-PVTZ-JKFIT
	 Reference Energy          =    -493.1083895407805358 [Eh]
	 Singles Energy            =      -0.0000000000000000 [Eh]
	 Same-Spin Energy          =      -0.4836271342454311 [Eh]
	 Opposite-Spin Energy      =      -1.4758130881623304 [Eh]
	 Correlation Energy        =      -1.9594402224077614 [Eh]
	 Total Energy              =    -495.0678297631882856 [Eh]

	 ================> DF-SCS-MP2 Energies <==================
	-----------------------------------------------------------
	 SCS Same-Spin Scale       =       0.3333333333333333 [-]
	 SCS Opposite-Spin Scale   =       1.2000000000000000 [-]
	 SCS Same-Spin Energy      =      -0.1612090447484770 [Eh]
	 SCS Opposite-Spin Energy  =      -1.7709757057947964 [Eh]
	 SCS Correlation Energy    =      -1.9321847505432734 [Eh]
	 SCS Total Energy          =    -495.0405742913238214 [Eh]
	-----------------------------------------------------------

  Dipole Moment: [D]
     X:    11.2986      Y:    -0.5819      Z:    -0.1478     Total:    11.3145

*** Psi4 exiting successfully. Buy a developer a beer!
