                               Psi4 1.4a3.dev225

  ==> Input File <==

--------------------------------------------------------------------------
#psi4
#
memory 32 gb

molecule  {
-1 1
  O        1.8724200    -0.7415990     0.3394840
  O        2.1027790     1.3758310    -0.4300950
  O       -3.3072830    -0.3512340    -0.9359590
  O       -2.5979240    -0.0254400     1.2183870
  C       -0.0530340     0.6334400     0.4456770
  C       -0.9697120    -0.0967620    -0.5425230
  C        1.3896910     0.5173160     0.0754460
  C       -2.4523699    -0.1802256    -0.0320505
  C        3.2289120    -0.9370400    -0.0704660
  H       -0.2424870     0.2042160     1.4320630
  H       -0.3042490     1.6964080     0.4822290
  H       -0.9505240     0.3810480    -1.5282220
  H       -0.6173950    -1.1275390    -0.6764200
  H        3.4625260    -1.9695390     0.1897820
  H        3.8993660    -0.2498350     0.4514950
  H        3.3382080    -0.7798600    -1.1461020
units angstrom
no_reorient  #important for SAPT in psi4, default
symmetry c1  #important for SAPT in psi4, default
}

set PROPERTIES_ORIGIN ["COM"]
properties('MP2/aug-cc-pvtz', properties = ['dipole'])
--------------------------------------------------------------------------

    Molecular point group: c1
  Charge       = -1
  Multiplicity = 1
  Basis Set: AUG-CC-PVTZ
    Blend: AUG-CC-PVTZ
  Basis Set: (AUG-CC-PVTZ AUX)
    Blend: AUG-CC-PVTZ-JKFIT

    Orbital Energies [Eh]
    ---------------------

    Doubly Occupied:

       1A    -20.496123     2A    -20.434801     3A    -20.307984
       4A    -20.307390     5A    -11.266467     6A    -11.190948
       7A    -11.154728     8A    -11.100798     9A    -11.079453
      10A     -1.342285    11A     -1.239773    12A     -1.177451
      13A     -1.081211    14A     -0.935225    15A     -0.857193
      16A     -0.756861    17A     -0.662175    18A     -0.576718
      19A     -0.568692    20A     -0.560826    21A     -0.530274
      22A     -0.487707    23A     -0.465976    24A     -0.452110
      25A     -0.431128    26A     -0.419073    27A     -0.411563
      28A     -0.386945    29A     -0.360619    30A     -0.352943
      31A     -0.337821    32A     -0.327753    33A     -0.225677
      34A     -0.209221    35A     -0.208141

  @DF-RHF Final Energy:  -493.10819940371653

   => Energetics <=

    Nuclear Repulsion Energy =            435.0899845795848933
    One-Electron Energy =               -1550.9882577365387988
    Two-Electron Energy =                 622.7900737532374933
    Total Energy =                       -493.1081994037165259
  Basis Set: (AUG-CC-PVTZ AUX)
    Blend: AUG-CC-PVTZ-RI
    Molecular point group: c1

    Geometry (in Angstrom), charge = -1, multiplicity = 1:

       Center              X                  Y                   Z               Mass
    ------------   -----------------  -----------------  -----------------  -----------------
         O            1.937256710101    -0.753052630945     0.333533645994    15.994914619570
         O            2.167615710101     1.364377369055    -0.436045354006    15.994914619570
         O           -3.242446289899    -0.362687630945    -0.941909354006    15.994914619570
         O           -2.533087289899    -0.036893630945     1.212436645994    15.994914619570
         C            0.011802710101     0.621986369055     0.439726645994    12.000000000000
         C           -0.904875289899    -0.108215630945    -0.548473354006    12.000000000000
         C            1.454527710101     0.505862369055     0.069495645994    12.000000000000
         C           -2.387533189899    -0.191679230945    -0.038000854006    12.000000000000
         C            3.293748710101    -0.948493630945    -0.076416354006    12.000000000000
         H           -0.177650289899     0.192762369055     1.426112645994     1.007825032230
         H           -0.239412289899     1.684954369055     0.476278645994     1.007825032230
         H           -0.885687289899     0.369594369055    -1.534172354006     1.007825032230
         H           -0.552558289899    -1.138992630945    -0.682370354006     1.007825032230
         H            3.527362710101    -1.980992630945     0.183831645994     1.007825032230
         H            3.964202710101    -0.261288630945     0.445544645994     1.007825032230
         H            3.403044710101    -0.791313630945    -1.152052354006     1.007825032230

  Basis Set: AUG-CC-PVTZ
    Blend: AUG-CC-PVTZ
  Basis Set: (AUG-CC-PVTZ AUX)
    Blend: AUG-CC-PVTZ-JKFIT
	 Reference Energy          =    -493.1081994037165259 [Eh]
	 Singles Energy            =      -0.0000000000000000 [Eh]
	 Same-Spin Energy          =      -0.4837477926066990 [Eh]
	 Opposite-Spin Energy      =      -1.4759627149285732 [Eh]
	 Correlation Energy        =      -1.9597105075352723 [Eh]
	 Total Energy              =    -495.0679099112517747 [Eh]

	 ================> DF-SCS-MP2 Energies <==================
	-----------------------------------------------------------
	 SCS Same-Spin Scale       =       0.3333333333333333 [-]
	 SCS Opposite-Spin Scale   =       1.2000000000000000 [-]
	 SCS Same-Spin Energy      =      -0.1612492642022330 [Eh]
	 SCS Opposite-Spin Energy  =      -1.7711552579142877 [Eh]
	 SCS Correlation Energy    =      -1.9324045221165207 [Eh]
	 SCS Total Energy          =    -495.0406039258330679 [Eh]
	-----------------------------------------------------------

  Dipole Moment: [D]
     X:    11.3322      Y:    -0.7478      Z:    -0.1240     Total:    11.3575

*** Psi4 exiting successfully. Buy a developer a beer!
