                               Psi4 1.4a3.dev225

  ==> Input File <==

--------------------------------------------------------------------------
#psi4
#
memory 32 gb

molecule  {
-1 1
  O        1.8724200    -0.7415990     0.3394840
  O        2.1027790     1.3758310    -0.4300950
  O       -3.2910973    -0.3519090    -0.9508218
  O       -2.5979240    -0.0254400     1.2183870
  C       -0.0530340     0.6334400     0.4456770
  C       -0.9697120    -0.0967620    -0.5425230
  C        1.3896910     0.5173160     0.0754460
  C       -2.4534200    -0.1528480    -0.0313600
  C        3.2289120    -0.9370400    -0.0704660
  H       -0.2424870     0.2042160     1.4320630
  H       -0.3042490     1.6964080     0.4822290
  H       -0.9505240     0.3810480    -1.5282220
  H       -0.6173950    -1.1275390    -0.6764200
  H        3.4625260    -1.9695390     0.1897820
  H        3.8993660    -0.2498350     0.4514950
  H        3.3382080    -0.7798600    -1.1461020
units angstrom
no_reorient  #important for SAPT in psi4, default
symmetry c1  #important for SAPT in psi4, default
}

set PROPERTIES_ORIGIN ["COM"]
properties('MP2/aug-cc-pvtz', properties = ['dipole'])
--------------------------------------------------------------------------

    Molecular point group: c1
  Charge       = -1
  Multiplicity = 1
  Basis Set: AUG-CC-PVTZ
    Blend: AUG-CC-PVTZ
  Basis Set: (AUG-CC-PVTZ AUX)
    Blend: AUG-CC-PVTZ-JKFIT

    Orbital Energies [Eh]
    ---------------------

    Doubly Occupied:

       1A    -20.495810     2A    -20.434306     3A    -20.310345
       4A    -20.307101     5A    -11.265973     6A    -11.190705
       7A    -11.155225     8A    -11.100131     9A    -11.078333
      10A     -1.341927    11A     -1.239364    12A     -1.177660
      13A     -1.083079    14A     -0.934778    15A     -0.856842
      16A     -0.755855    17A     -0.661764    18A     -0.576461
      19A     -0.568412    20A     -0.560422    21A     -0.530501
      22A     -0.487467    23A     -0.465768    24A     -0.451993
      25A     -0.430900    26A     -0.418998    27A     -0.411871
      28A     -0.386717    29A     -0.360513    30A     -0.352750
      31A     -0.337691    32A     -0.327398    33A     -0.227530
      34A     -0.209430    35A     -0.208069

  @DF-RHF Final Energy:  -493.10818624664955

   => Energetics <=

    Nuclear Repulsion Energy =            435.2113669431417975
    One-Electron Energy =               -1551.2349243105531968
    Two-Electron Energy =                 622.9153711207617334
    Total Energy =                       -493.1081862466495522
  Basis Set: (AUG-CC-PVTZ AUX)
    Blend: AUG-CC-PVTZ-RI
    Molecular point group: c1

    Geometry (in Angstrom), charge = -1, multiplicity = 1:

       Center              X                  Y                   Z               Mass
    ------------   -----------------  -----------------  -----------------  -----------------
         O            1.935377145450    -0.755477448786     0.335284660674    15.994914619570
         O            2.165736145450     1.361952551214    -0.434294339326    15.994914619570
         O           -3.228140154550    -0.365787448786    -0.955021139326    15.994914619570
         O           -2.534966854550    -0.039318448786     1.214187660674    15.994914619570
         C            0.009923145450     0.619561551214     0.441477660674    12.000000000000
         C           -0.906754854550    -0.110640448786    -0.546722339326    12.000000000000
         C            1.452648145450     0.503437551214     0.071246660674    12.000000000000
         C           -2.390462854550    -0.166726448786    -0.035559339326    12.000000000000
         C            3.291869145450    -0.950918448786    -0.074665339326    12.000000000000
         H           -0.179529854550     0.190337551214     1.427863660674     1.007825032230
         H           -0.241291854550     1.682529551214     0.478029660674     1.007825032230
         H           -0.887566854550     0.367169551214    -1.532421339326     1.007825032230
         H           -0.554437854550    -1.141417448786    -0.680619339326     1.007825032230
         H            3.525483145450    -1.983417448786     0.185582660674     1.007825032230
         H            3.962323145450    -0.263713448786     0.447295660674     1.007825032230
         H            3.401165145450    -0.793738448786    -1.150301339326     1.007825032230

  Basis Set: AUG-CC-PVTZ
    Blend: AUG-CC-PVTZ
  Basis Set: (AUG-CC-PVTZ AUX)
    Blend: AUG-CC-PVTZ-JKFIT
	 Reference Energy          =    -493.1081862466495522 [Eh]
	 Singles Energy            =      -0.0000000000000000 [Eh]
	 Same-Spin Energy          =      -0.4837970212539907 [Eh]
	 Opposite-Spin Energy      =      -1.4760470713896769 [Eh]
	 Correlation Energy        =      -1.9598440926436678 [Eh]
	 Total Energy              =    -495.0680303392932160 [Eh]

	 ================> DF-SCS-MP2 Energies <==================
	-----------------------------------------------------------
	 SCS Same-Spin Scale       =       0.3333333333333333 [-]
	 SCS Opposite-Spin Scale   =       1.2000000000000000 [-]
	 SCS Same-Spin Energy      =      -0.1612656737513302 [Eh]
	 SCS Opposite-Spin Energy  =      -1.7712564856676123 [Eh]
	 SCS Correlation Energy    =      -1.9325221594189426 [Eh]
	 SCS Total Energy          =    -495.0407084060685179 [Eh]
	-----------------------------------------------------------

  Dipole Moment: [D]
     X:    11.2780      Y:    -0.7320      Z:    -0.0548     Total:    11.3018

*** Psi4 exiting successfully. Buy a developer a beer!
