                               Psi4 1.4a3.dev225

  ==> Input File <==

--------------------------------------------------------------------------
#psi4
#
memory 32 gb

molecule  {
-1 1
  O        1.8724200    -0.7415990     0.3394840
  O        2.1027790     1.3758310    -0.4300950
  O       -3.3072830    -0.3512340    -0.9359590
  O       -2.5979240    -0.0254400     1.2183870
  C       -0.0530340     0.6334400     0.4456770
  C       -0.9697120    -0.0967620    -0.5425230
  C        1.3896910     0.5173160     0.0754460
  C       -2.4398629    -0.1496982    -0.0169974
  C        3.2289120    -0.9370400    -0.0704660
  H       -0.2424870     0.2042160     1.4320630
  H       -0.3042490     1.6964080     0.4822290
  H       -0.9505240     0.3810480    -1.5282220
  H       -0.6173950    -1.1275390    -0.6764200
  H        3.4625260    -1.9695390     0.1897820
  H        3.8993660    -0.2498350     0.4514950
  H        3.3382080    -0.7798600    -1.1461020
units angstrom
no_reorient  #important for SAPT in psi4, default
symmetry c1  #important for SAPT in psi4, default
}

set PROPERTIES_ORIGIN ["COM"]
properties('MP2/aug-cc-pvtz', properties = ['dipole'])
--------------------------------------------------------------------------

    Molecular point group: c1
  Charge       = -1
  Multiplicity = 1
  Basis Set: AUG-CC-PVTZ
    Blend: AUG-CC-PVTZ
  Basis Set: (AUG-CC-PVTZ AUX)
    Blend: AUG-CC-PVTZ-JKFIT

    Orbital Energies [Eh]
    ---------------------

    Doubly Occupied:

       1A    -20.496764     2A    -20.435348     3A    -20.312839
       4A    -20.301734     5A    -11.267096     6A    -11.191418
       7A    -11.154595     8A    -11.101721     9A    -11.080627
      10A     -1.342908    11A     -1.240358    12A     -1.177239
      13A     -1.076537    14A     -0.936702    15A     -0.858244
      16A     -0.758228    17A     -0.662799    18A     -0.577890
      19A     -0.569445    20A     -0.561391    21A     -0.531771
      22A     -0.488654    23A     -0.467039    24A     -0.452900
      25A     -0.431596    26A     -0.419650    27A     -0.409161
      28A     -0.386904    29A     -0.361164    30A     -0.353902
      31A     -0.338147    32A     -0.327621    33A     -0.225441
      34A     -0.209311    35A     -0.206267

  @DF-RHF Final Energy:  -493.10756391165307

   => Energetics <=

    Nuclear Repulsion Energy =            435.1989244745950600
    One-Electron Energy =               -1551.1861483034815592
    Two-Electron Energy =                 622.8796599172334254
    Total Energy =                       -493.1075639116530738
  Basis Set: (AUG-CC-PVTZ AUX)
    Blend: AUG-CC-PVTZ-RI
    Molecular point group: c1

    Geometry (in Angstrom), charge = -1, multiplicity = 1:

       Center              X                  Y                   Z               Mass
    ------------   -----------------  -----------------  -----------------  -----------------
         O            1.936111331777    -0.755848299150     0.332155098425    15.994914619570
         O            2.166470331777     1.361581700850    -0.437423901575    15.994914619570
         O           -3.243591668223    -0.365483299150    -0.943287901575    15.994914619570
         O           -2.534232668223    -0.039689299150     1.211058098425    15.994914619570
         C            0.010657331777     0.619190700850     0.438348098425    12.000000000000
         C           -0.906020668223    -0.111011299150    -0.549851901575    12.000000000000
         C            1.453382331777     0.503066700850     0.068117098425    12.000000000000
         C           -2.376171568223    -0.163947499150    -0.024326301575    12.000000000000
         C            3.292603331777    -0.951289299150    -0.077794901575    12.000000000000
         H           -0.178795668223     0.189966700850     1.424734098425     1.007825032230
         H           -0.240557668223     1.682158700850     0.474900098425     1.007825032230
         H           -0.886832668223     0.366798700850    -1.535550901575     1.007825032230
         H           -0.553703668223    -1.141788299150    -0.683748901575     1.007825032230
         H            3.526217331777    -1.983788299150     0.182453098425     1.007825032230
         H            3.963057331777    -0.264084299150     0.444166098425     1.007825032230
         H            3.401899331777    -0.794109299150    -1.153430901575     1.007825032230

  Basis Set: AUG-CC-PVTZ
    Blend: AUG-CC-PVTZ
  Basis Set: (AUG-CC-PVTZ AUX)
    Blend: AUG-CC-PVTZ-JKFIT
	 Reference Energy          =    -493.1075639116530738 [Eh]
	 Singles Energy            =      -0.0000000000000000 [Eh]
	 Same-Spin Energy          =      -0.4838697056484904 [Eh]
	 Opposite-Spin Energy      =      -1.4762631990168682 [Eh]
	 Correlation Energy        =      -1.9601329046653586 [Eh]
	 Total Energy              =    -495.0676968163184597 [Eh]

	 ================> DF-SCS-MP2 Energies <==================
	-----------------------------------------------------------
	 SCS Same-Spin Scale       =       0.3333333333333333 [-]
	 SCS Opposite-Spin Scale   =       1.2000000000000000 [-]
	 SCS Same-Spin Energy      =      -0.1612899018828301 [Eh]
	 SCS Opposite-Spin Energy  =      -1.7715158388202419 [Eh]
	 SCS Correlation Energy    =      -1.9328057407030721 [Eh]
	 SCS Total Energy          =    -495.0403696523561621 [Eh]
	-----------------------------------------------------------

  Dipole Moment: [D]
     X:    11.4750      Y:    -0.6983      Z:     0.0771     Total:    11.4965

*** Psi4 exiting successfully. Buy a developer a beer!
