                               Psi4 1.4a3.dev225

  ==> Input File <==

--------------------------------------------------------------------------
#psi4
#
memory 32 gb

molecule  {
-1 1
  O        1.8724200    -0.7415990     0.3394840
  O        2.1027790     1.3758310    -0.4300950
  O       -3.3072830    -0.3512340    -0.9359590
  O       -2.5979240    -0.0254400     1.2183870
  C       -0.0530340     0.6334400     0.4456770
  C       -1.0394701     0.0451700    -0.5696628
  C        1.3896910     0.5173160     0.0754460
  C       -2.4534200    -0.1528480    -0.0313600
  C        3.2289120    -0.9370400    -0.0704660
  H       -0.2424870     0.2042160     1.4320630
  H       -0.3042490     1.6964080     0.4822290
  H       -0.9505240     0.3810480    -1.5282220
  H       -0.6173950    -1.1275390    -0.6764200
  H        3.4625260    -1.9695390     0.1897820
  H        3.8993660    -0.2498350     0.4514950
  H        3.3382080    -0.7798600    -1.1461020
units angstrom
no_reorient  #important for SAPT in psi4, default
symmetry c1  #important for SAPT in psi4, default
}

set PROPERTIES_ORIGIN ["COM"]
properties('MP2/aug-cc-pvtz', properties = ['dipole'])
--------------------------------------------------------------------------

    Molecular point group: c1
  Charge       = -1
  Multiplicity = 1
  Basis Set: AUG-CC-PVTZ
    Blend: AUG-CC-PVTZ
  Basis Set: (AUG-CC-PVTZ AUX)
    Blend: AUG-CC-PVTZ-JKFIT

    Orbital Energies [Eh]
    ---------------------

    Doubly Occupied:

       1A    -20.497289     2A    -20.436675     3A    -20.308509
       4A    -20.304248     5A    -11.268920     6A    -11.191537
       7A    -11.153676     8A    -11.102541     9A    -11.087390
      10A     -1.343455    11A     -1.241240    12A     -1.178537
      13A     -1.081223    14A     -0.935978    15A     -0.859651
      16A     -0.761371    17A     -0.663361    18A     -0.579496
      19A     -0.569203    20A     -0.562475    21A     -0.542377
      22A     -0.486540    23A     -0.461876    24A     -0.454526
      25A     -0.434004    26A     -0.422806    27A     -0.412930
      28A     -0.379802    29A     -0.369247    30A     -0.358114
      31A     -0.337886    32A     -0.298792    33A     -0.226183
      34A     -0.213468    35A     -0.207638

  @DF-RHF Final Energy:  -493.08664228448163

   => Energetics <=

    Nuclear Repulsion Energy =            435.1639291044016886
    One-Electron Energy =               -1551.0352182876763436
    Two-Electron Energy =                 622.7846468987930848
    Total Energy =                       -493.0866422844816270
  Basis Set: (AUG-CC-PVTZ AUX)
    Blend: AUG-CC-PVTZ-RI
    Molecular point group: c1

    Geometry (in Angstrom), charge = -1, multiplicity = 1:

       Center              X                  Y                   Z               Mass
    ------------   -----------------  -----------------  -----------------  -----------------
         O            1.943741252949    -0.768557831697     0.335955845953    15.994914619570
         O            2.174100252949     1.348872168303    -0.433623154047    15.994914619570
         O           -3.235961747051    -0.378192831697    -0.939487154047    15.994914619570
         O           -2.526602747051    -0.052398831697     1.214858845953    15.994914619570
         C            0.018287252949     0.606481168303     0.442148845953    12.000000000000
         C           -0.968148847051     0.018211168303    -0.573190954047    12.000000000000
         C            1.461012252949     0.490357168303     0.071917845953    12.000000000000
         C           -2.382098747051    -0.179806831697    -0.034888154047    12.000000000000
         C            3.300233252949    -0.963998831697    -0.073994154047    12.000000000000
         H           -0.171165747051     0.177257168303     1.428534845953     1.007825032230
         H           -0.232927747051     1.669449168303     0.478700845953     1.007825032230
         H           -0.879202747051     0.354089168303    -1.531750154047     1.007825032230
         H           -0.546073747051    -1.154497831697    -0.679948154047     1.007825032230
         H            3.533847252949    -1.996497831697     0.186253845953     1.007825032230
         H            3.970687252949    -0.276793831697     0.447966845953     1.007825032230
         H            3.409529252949    -0.806818831697    -1.149630154047     1.007825032230

  Basis Set: AUG-CC-PVTZ
    Blend: AUG-CC-PVTZ
  Basis Set: (AUG-CC-PVTZ AUX)
    Blend: AUG-CC-PVTZ-JKFIT
	 Reference Energy          =    -493.0866422844816270 [Eh]
	 Singles Energy            =      -0.0000000000000000 [Eh]
	 Same-Spin Energy          =      -0.4841214798992659 [Eh]
	 Opposite-Spin Energy      =      -1.4770360817077060 [Eh]
	 Correlation Energy        =      -1.9611575616069719 [Eh]
	 Total Energy              =    -495.0477998460885942 [Eh]

	 ================> DF-SCS-MP2 Energies <==================
	-----------------------------------------------------------
	 SCS Same-Spin Scale       =       0.3333333333333333 [-]
	 SCS Opposite-Spin Scale   =       1.2000000000000000 [-]
	 SCS Same-Spin Energy      =      -0.1613738266330886 [Eh]
	 SCS Opposite-Spin Energy  =      -1.7724432980492471 [Eh]
	 SCS Correlation Energy    =      -1.9338171246823357 [Eh]
	 SCS Total Energy          =    -495.0204594091639478 [Eh]
	-----------------------------------------------------------

  Dipole Moment: [D]
     X:    11.4435      Y:    -0.5006      Z:    -0.1531     Total:    11.4554

*** Psi4 exiting successfully. Buy a developer a beer!
