                               Psi4 1.4a3.dev225

  ==> Input File <==

--------------------------------------------------------------------------
#psi4
#
memory 32 gb

molecule  {
-1 1
  O        1.8724200    -0.7415990     0.3394840
  O        2.1027790     1.3758310    -0.4300950
  O       -3.3072830    -0.3512340    -0.9359590
  O       -2.5979240    -0.0254400     1.2183870
  C       -0.0530340     0.6334400     0.4456770
  C       -0.9697120    -0.0967620    -0.5425230
  C        1.3896910     0.5173160     0.0754460
  C       -2.4534200    -0.1528480    -0.0313600
  C        3.2289120    -0.9370400    -0.0704660
  H       -0.2424870     0.2042160     1.4320630
  H       -0.3042490     1.6964080     0.4822290
  H       -0.9522754     0.3374351    -1.4382506
  H       -0.6173950    -1.1275390    -0.6764200
  H        3.4625260    -1.9695390     0.1897820
  H        3.8993660    -0.2498350     0.4514950
  H        3.3382080    -0.7798600    -1.1461020
units angstrom
no_reorient  #important for SAPT in psi4, default
symmetry c1  #important for SAPT in psi4, default
}

set PROPERTIES_ORIGIN ["COM"]
properties('MP2/aug-cc-pvtz', properties = ['dipole'])
--------------------------------------------------------------------------

    Molecular point group: c1
  Charge       = -1
  Multiplicity = 1
  Basis Set: AUG-CC-PVTZ
    Blend: AUG-CC-PVTZ
  Basis Set: (AUG-CC-PVTZ AUX)
    Blend: AUG-CC-PVTZ-JKFIT

    Orbital Energies [Eh]
    ---------------------

    Doubly Occupied:

       1A    -20.495996     2A    -20.434666     3A    -20.308007
       4A    -20.306533     5A    -11.266224     6A    -11.190906
       7A    -11.153720     8A    -11.099827     9A    -11.066906
      10A     -1.342186    11A     -1.239698    12A     -1.176983
      13A     -1.080797    14A     -0.937002    15A     -0.859170
      16A     -0.763610    17A     -0.662551    18A     -0.577869
      19A     -0.568673    20A     -0.560748    21A     -0.534103
      22A     -0.490887    23A     -0.469062    24A     -0.452668
      25A     -0.431917    26A     -0.419152    27A     -0.411091
      28A     -0.386947    29A     -0.363306    30A     -0.355955
      31A     -0.337877    32A     -0.329810    33A     -0.225679
      34A     -0.208500    35A     -0.207715

  @DF-RHF Final Energy:  -493.10275709581947

   => Energetics <=

    Nuclear Repulsion Energy =            435.6409810318701830
    One-Electron Energy =               -1552.0539941473552972
    Two-Electron Energy =                 623.3102560196657578
    Total Energy =                       -493.1027570958194701
  Basis Set: (AUG-CC-PVTZ AUX)
    Blend: AUG-CC-PVTZ-RI
    Molecular point group: c1

    Geometry (in Angstrom), charge = -1, multiplicity = 1:

       Center              X                  Y                   Z               Mass
    ------------   -----------------  -----------------  -----------------  -----------------
         O            1.937366347731    -0.755224403812     0.332778413752    15.994914619570
         O            2.167725347731     1.362205596188    -0.436800586248    15.994914619570
         O           -3.242336652269    -0.364859403812    -0.942664586248    15.994914619570
         O           -2.532977652269    -0.039065403812     1.211681413752    15.994914619570
         C            0.011912347731     0.619814596188     0.438971413752    12.000000000000
         C           -0.904765652269    -0.110387403812    -0.549228586248    12.000000000000
         C            1.454637347731     0.503690596188     0.068740413752    12.000000000000
         C           -2.388473652269    -0.166473403812    -0.038065586248    12.000000000000
         C            3.293858347731    -0.950665403812    -0.077171586248    12.000000000000
         H           -0.177540652269     0.190590596188     1.425357413752     1.007825032230
         H           -0.239302652269     1.682782596188     0.475523413752     1.007825032230
         H           -0.887329052269     0.323809696188    -1.444956186248     1.007825032230
         H           -0.552448652269    -1.141164403812    -0.683125586248     1.007825032230
         H            3.527472347731    -1.983164403812     0.183076413752     1.007825032230
         H            3.964312347731    -0.263460403812     0.444789413752     1.007825032230
         H            3.403154347731    -0.793485403812    -1.152807586248     1.007825032230

  Basis Set: AUG-CC-PVTZ
    Blend: AUG-CC-PVTZ
  Basis Set: (AUG-CC-PVTZ AUX)
    Blend: AUG-CC-PVTZ-JKFIT
	 Reference Energy          =    -493.1027570958194701 [Eh]
	 Singles Energy            =      -0.0000000000000000 [Eh]
	 Same-Spin Energy          =      -0.4837213716630299 [Eh]
	 Opposite-Spin Energy      =      -1.4754827452175392 [Eh]
	 Correlation Energy        =      -1.9592041168805692 [Eh]
	 Total Energy              =    -495.0619612127000551 [Eh]

	 ================> DF-SCS-MP2 Energies <==================
	-----------------------------------------------------------
	 SCS Same-Spin Scale       =       0.3333333333333333 [-]
	 SCS Opposite-Spin Scale   =       1.2000000000000000 [-]
	 SCS Same-Spin Energy      =      -0.1612404572210100 [Eh]
	 SCS Opposite-Spin Energy  =      -1.7705792942610470 [Eh]
	 SCS Correlation Energy    =      -1.9318197514820570 [Eh]
	 SCS Total Energy          =    -495.0345768473015369 [Eh]
	-----------------------------------------------------------

  Dipole Moment: [D]
     X:    11.3586      Y:    -0.7170      Z:    -0.1420     Total:    11.3821

*** Psi4 exiting successfully. Buy a developer a beer!
