                               Psi4 1.4a3.dev225

  ==> Input File <==

--------------------------------------------------------------------------
#psi4
#
memory 32 gb

molecule  {
-1 1
  O        1.8724200    -0.7415990     0.3394840
  O        2.1027790     1.3758310    -0.4300950
  O       -3.3072830    -0.3512340    -0.9359590
  O       -2.5979240    -0.0254400     1.2183870
  C       -0.0530340     0.6334400     0.4456770
  C       -0.9697120    -0.0967620    -0.5425230
  C        1.3896910     0.5173160     0.0754460
  C       -2.4534200    -0.1528480    -0.0313600
  C        3.2289120    -0.9370400    -0.0704660
  H       -0.2424870     0.2042160     1.4320630
  H       -0.3042490     1.6964080     0.4822290
  H       -0.9440017     0.3647532    -1.5358084
  H       -0.6173950    -1.1275390    -0.6764200
  H        3.4625260    -1.9695390     0.1897820
  H        3.8993660    -0.2498350     0.4514950
  H        3.3382080    -0.7798600    -1.1461020
units angstrom
no_reorient  #important for SAPT in psi4, default
symmetry c1  #important for SAPT in psi4, default
}

set PROPERTIES_ORIGIN ["COM"]
properties('MP2/aug-cc-pvtz', properties = ['dipole'])
--------------------------------------------------------------------------

    Molecular point group: c1
  Charge       = -1
  Multiplicity = 1
  Basis Set: AUG-CC-PVTZ
    Blend: AUG-CC-PVTZ
  Basis Set: (AUG-CC-PVTZ AUX)
    Blend: AUG-CC-PVTZ-JKFIT

    Orbital Energies [Eh]
    ---------------------

    Doubly Occupied:

       1A    -20.496201     2A    -20.434779     3A    -20.309032
       4A    -20.306417     5A    -11.266477     6A    -11.190998
       7A    -11.154770     8A    -11.100939     9A    -11.079577
      10A     -1.342339    11A     -1.239792    12A     -1.177415
      13A     -1.081254    14A     -0.935370    15A     -0.857281
      16A     -0.756773    17A     -0.662233    18A     -0.577019
      19A     -0.568803    20A     -0.560848    21A     -0.530738
      22A     -0.487608    23A     -0.465455    24A     -0.452275
      25A     -0.431368    26A     -0.419139    27A     -0.411397
      28A     -0.386561    29A     -0.360947    30A     -0.353616
      31A     -0.337951    32A     -0.327121    33A     -0.225922
      34A     -0.209346    35A     -0.208122

  @DF-RHF Final Energy:  -493.10842798736070

   => Energetics <=

    Nuclear Repulsion Energy =            435.1086461055712107
    One-Electron Energy =               -1551.0223846481774217
    Two-Electron Energy =                 622.8053105552453417
    Total Energy =                       -493.1084279873607557
  Basis Set: (AUG-CC-PVTZ AUX)
    Blend: AUG-CC-PVTZ-RI
    Molecular point group: c1

    Geometry (in Angstrom), charge = -1, multiplicity = 1:

       Center              X                  Y                   Z               Mass
    ------------   -----------------  -----------------  -----------------  -----------------
         O            1.937302712229    -0.755434515492     0.333528759979    15.994914619570
         O            2.167661712229     1.361995484508    -0.436050240021    15.994914619570
         O           -3.242400287771    -0.365069515492    -0.941914240021    15.994914619570
         O           -2.533041287771    -0.039275515492     1.212431759979    15.994914619570
         C            0.011848712229     0.619604484508     0.439721759979    12.000000000000
         C           -0.904829287771    -0.110597515492    -0.548478240021    12.000000000000
         C            1.454573712229     0.503480484508     0.069490759979    12.000000000000
         C           -2.388537287771    -0.166683515492    -0.037315240021    12.000000000000
         C            3.293794712229    -0.950875515492    -0.076421240021    12.000000000000
         H           -0.177604287771     0.190380484508     1.426107759979     1.007825032230
         H           -0.239366287771     1.682572484508     0.476273759979     1.007825032230
         H           -0.879118987771     0.350917684508    -1.541763640021     1.007825032230
         H           -0.552512287771    -1.141374515492    -0.682375240021     1.007825032230
         H            3.527408712229    -1.983374515492     0.183826759979     1.007825032230
         H            3.964248712229    -0.263670515492     0.445539759979     1.007825032230
         H            3.403090712229    -0.793695515492    -1.152057240021     1.007825032230

  Basis Set: AUG-CC-PVTZ
    Blend: AUG-CC-PVTZ
  Basis Set: (AUG-CC-PVTZ AUX)
    Blend: AUG-CC-PVTZ-JKFIT
	 Reference Energy          =    -493.1084279873606988 [Eh]
	 Singles Energy            =      -0.0000000000000000 [Eh]
	 Same-Spin Energy          =      -0.4837397730476716 [Eh]
	 Opposite-Spin Energy      =      -1.4759556084205554 [Eh]
	 Correlation Energy        =      -1.9596953814682270 [Eh]
	 Total Energy              =    -495.0681233688289353 [Eh]

	 ================> DF-SCS-MP2 Energies <==================
	-----------------------------------------------------------
	 SCS Same-Spin Scale       =       0.3333333333333333 [-]
	 SCS Opposite-Spin Scale   =       1.2000000000000000 [-]
	 SCS Same-Spin Energy      =      -0.1612465910158905 [Eh]
	 SCS Opposite-Spin Energy  =      -1.7711467301046664 [Eh]
	 SCS Correlation Energy    =      -1.9323933211205568 [Eh]
	 SCS Total Energy          =    -495.0408213084812701 [Eh]
	-----------------------------------------------------------

  Dipole Moment: [D]
     X:    11.3482      Y:    -0.7325      Z:    -0.0875     Total:    11.3721

*** Psi4 exiting successfully. Buy a developer a beer!
