                               Psi4 1.4a3.dev225

  ==> Input File <==

--------------------------------------------------------------------------
#psi4
#
memory 32 gb

molecule  {
-1 1
  O        1.8724200    -0.7415990     0.3394840
  O        2.1027790     1.3758310    -0.4300950
  O       -3.3072830    -0.3512340    -0.9359590
  O       -2.5979240    -0.0254400     1.2183870
  C       -0.0530340     0.6334400     0.4456770
  C       -0.9697120    -0.0967620    -0.5425230
  C        1.3525003     0.5884438    -0.0587631
  C       -2.4534200    -0.1528480    -0.0313600
  C        3.2289120    -0.9370400    -0.0704660
  H       -0.2424870     0.2042160     1.4320630
  H       -0.3042490     1.6964080     0.4822290
  H       -0.9505240     0.3810480    -1.5282220
  H       -0.6173950    -1.1275390    -0.6764200
  H        3.4625260    -1.9695390     0.1897820
  H        3.8993660    -0.2498350     0.4514950
  H        3.3382080    -0.7798600    -1.1461020
units angstrom
no_reorient  #important for SAPT in psi4, default
symmetry c1  #important for SAPT in psi4, default
}

set PROPERTIES_ORIGIN ["COM"]
properties('MP2/aug-cc-pvtz', properties = ['dipole'])
--------------------------------------------------------------------------

    Molecular point group: c1
  Charge       = -1
  Multiplicity = 1
  Basis Set: AUG-CC-PVTZ
    Blend: AUG-CC-PVTZ
  Basis Set: (AUG-CC-PVTZ AUX)
    Blend: AUG-CC-PVTZ-JKFIT

    Orbital Energies [Eh]
    ---------------------

    Doubly Occupied:

       1A    -20.466026     2A    -20.457786     3A    -20.310284
       4A    -20.306983     5A    -11.266057     6A    -11.176765
       7A    -11.155173     8A    -11.105467     9A    -11.079944
      10A     -1.358837    11A     -1.239543    12A     -1.178272
      13A     -1.082122    14A     -0.935329    15A     -0.834847
      16A     -0.756187    17A     -0.648068    18A     -0.591839
      19A     -0.567101    20A     -0.546155    21A     -0.526342
      22A     -0.501103    23A     -0.466966    24A     -0.458887
      25A     -0.436956    26A     -0.416796    27A     -0.414447
      28A     -0.386314    29A     -0.361014    30A     -0.349682
      31A     -0.333332    32A     -0.330054    33A     -0.226988
      34A     -0.209563    35A     -0.208698

  @DF-RHF Final Energy:  -493.09061965575074

   => Energetics <=

    Nuclear Repulsion Energy =            435.0745465368511304
    One-Electron Energy =               -1550.9504810822404579
    Two-Electron Energy =                 622.7853148896385846
    Total Energy =                       -493.0906196557507428
  Basis Set: (AUG-CC-PVTZ AUX)
    Blend: AUG-CC-PVTZ-RI
    Molecular point group: c1

    Geometry (in Angstrom), charge = -1, multiplicity = 1:

       Center              X                  Y                   Z               Mass
    ------------   -----------------  -----------------  -----------------  -----------------
         O            1.940758763622    -0.762073655165     0.345761143413    15.994914619570
         O            2.171117763622     1.355356344835    -0.423817856587    15.994914619570
         O           -3.238944236378    -0.371708655165    -0.929681856587    15.994914619570
         O           -2.529585236378    -0.045914655165     1.224664143413    15.994914619570
         C            0.015304763622     0.612965344835     0.451954143413    12.000000000000
         C           -0.901373236378    -0.117236655165    -0.536245856587    12.000000000000
         C            1.420839063622     0.567969144835    -0.052485956587    12.000000000000
         C           -2.385081236378    -0.173322655165    -0.025082856587    12.000000000000
         C            3.297250763622    -0.957514655165    -0.064188856587    12.000000000000
         H           -0.174148236378     0.183741344835     1.438340143413     1.007825032230
         H           -0.235910236378     1.675933344835     0.488506143413     1.007825032230
         H           -0.882185236378     0.360573344835    -1.521944856587     1.007825032230
         H           -0.549056236378    -1.148013655165    -0.670142856587     1.007825032230
         H            3.530864763622    -1.990013655165     0.196059143413     1.007825032230
         H            3.967704763622    -0.270309655165     0.457772143413     1.007825032230
         H            3.406546763622    -0.800334655165    -1.139824856587     1.007825032230

  Basis Set: AUG-CC-PVTZ
    Blend: AUG-CC-PVTZ
  Basis Set: (AUG-CC-PVTZ AUX)
    Blend: AUG-CC-PVTZ-JKFIT
	 Reference Energy          =    -493.0906196557507428 [Eh]
	 Singles Energy            =      -0.0000000000000000 [Eh]
	 Same-Spin Energy          =      -0.4837141645171857 [Eh]
	 Opposite-Spin Energy      =      -1.4764938238603811 [Eh]
	 Correlation Energy        =      -1.9602079883775667 [Eh]
	 Total Energy              =    -495.0508276441283328 [Eh]

	 ================> DF-SCS-MP2 Energies <==================
	-----------------------------------------------------------
	 SCS Same-Spin Scale       =       0.3333333333333333 [-]
	 SCS Opposite-Spin Scale   =       1.2000000000000000 [-]
	 SCS Same-Spin Energy      =      -0.1612380548390619 [Eh]
	 SCS Opposite-Spin Energy  =      -1.7717925886324573 [Eh]
	 SCS Correlation Energy    =      -1.9330306434715192 [Eh]
	 SCS Total Energy          =    -495.0236502992222540 [Eh]
	-----------------------------------------------------------

  Dipole Moment: [D]
     X:    10.9985      Y:     0.1818      Z:    -0.4779     Total:    11.0104

*** Psi4 exiting successfully. Buy a developer a beer!
