                               Psi4 1.4a3.dev225

  ==> Input File <==

--------------------------------------------------------------------------
#psi4
#
memory 32 gb

molecule  {
-1 1
  O        1.8724200    -0.7415990     0.3394840
  O        2.1027790     1.3758310    -0.4300950
  O       -3.3072830    -0.3512340    -0.9359590
  O       -2.5979240    -0.0254400     1.2183870
  C       -0.0530340     0.6334400     0.4456770
  C       -0.9697120    -0.0967620    -0.5425230
  C        1.3896910     0.5173160     0.0754460
  C       -2.4419923    -0.1629237    -0.1301926
  C        3.2289120    -0.9370400    -0.0704660
  H       -0.2424870     0.2042160     1.4320630
  H       -0.3042490     1.6964080     0.4822290
  H       -0.9505240     0.3810480    -1.5282220
  H       -0.6173950    -1.1275390    -0.6764200
  H        3.4625260    -1.9695390     0.1897820
  H        3.8993660    -0.2498350     0.4514950
  H        3.3382080    -0.7798600    -1.1461020
units angstrom
no_reorient  #important for SAPT in psi4, default
symmetry c1  #important for SAPT in psi4, default
}

set PROPERTIES_ORIGIN ["COM"]
properties('MP2/aug-cc-pvtz', properties = ['dipole'])
--------------------------------------------------------------------------

    Molecular point group: c1
  Charge       = -1
  Multiplicity = 1
  Basis Set: AUG-CC-PVTZ
    Blend: AUG-CC-PVTZ
  Basis Set: (AUG-CC-PVTZ AUX)
    Blend: AUG-CC-PVTZ-JKFIT

    Orbital Energies [Eh]
    ---------------------

    Doubly Occupied:

       1A    -20.497080     2A    -20.436080     3A    -20.325252
       4A    -20.285768     5A    -11.267554     6A    -11.191585
       7A    -11.153260     8A    -11.101822     9A    -11.084099
      10A     -1.343270    11A     -1.240829    12A     -1.199071
      13A     -1.043086    14A     -0.936344    15A     -0.859462
      16A     -0.766616    17A     -0.663614    18A     -0.576871
      19A     -0.570610    20A     -0.562190    21A     -0.533979
      22A     -0.489592    23A     -0.469281    24A     -0.454304
      25A     -0.434555    26A     -0.422736    27A     -0.409697
      28A     -0.391017    29A     -0.360637    30A     -0.349542
      31A     -0.339622    32A     -0.328792    33A     -0.218840
      34A     -0.204158    35A     -0.195823

  @DF-RHF Final Energy:  -493.09370201571465

   => Energetics <=

    Nuclear Repulsion Energy =            435.0655188747912803
    One-Electron Energy =               -1550.9043644171163123
    Two-Electron Energy =                 622.7451435266103772
    Total Energy =                       -493.0937020157147117
  Basis Set: (AUG-CC-PVTZ AUX)
    Blend: AUG-CC-PVTZ-RI
    Molecular point group: c1

    Geometry (in Angstrom), charge = -1, multiplicity = 1:

       Center              X                  Y                   Z               Mass
    ------------   -----------------  -----------------  -----------------  -----------------
         O            1.936306340061    -0.754637121328     0.342521399569    15.994914619570
         O            2.166665340061     1.362792878672    -0.427057600431    15.994914619570
         O           -3.243396659939    -0.364272121328    -0.932921600431    15.994914619570
         O           -2.534037659939    -0.038478121328     1.221424399569    15.994914619570
         C            0.010852340061     0.620401878672     0.448714399569    12.000000000000
         C           -0.905825659939    -0.109800121328    -0.539485600431    12.000000000000
         C            1.453577340061     0.504277878672     0.078483399569    12.000000000000
         C           -2.378105959939    -0.175961821328    -0.127155200431    12.000000000000
         C            3.292798340061    -0.950078121328    -0.067428600431    12.000000000000
         H           -0.178600659939     0.191177878672     1.435100399569     1.007825032230
         H           -0.240362659939     1.683369878672     0.485266399569     1.007825032230
         H           -0.886637659939     0.368009878672    -1.525184600431     1.007825032230
         H           -0.553508659939    -1.140577121328    -0.673382600431     1.007825032230
         H            3.526412340061    -1.982577121328     0.192819399569     1.007825032230
         H            3.963252340061    -0.262873121328     0.454532399569     1.007825032230
         H            3.402094340061    -0.792898121328    -1.143064600431     1.007825032230

  Basis Set: AUG-CC-PVTZ
    Blend: AUG-CC-PVTZ
  Basis Set: (AUG-CC-PVTZ AUX)
    Blend: AUG-CC-PVTZ-JKFIT
	 Reference Energy          =    -493.0937020157146549 [Eh]
	 Singles Energy            =      -0.0000000000000000 [Eh]
	 Same-Spin Energy          =      -0.4841974859047035 [Eh]
	 Opposite-Spin Energy      =      -1.4774223645353586 [Eh]
	 Correlation Energy        =      -1.9616198504400622 [Eh]
	 Total Energy              =    -495.0553218661547135 [Eh]

	 ================> DF-SCS-MP2 Energies <==================
	-----------------------------------------------------------
	 SCS Same-Spin Scale       =       0.3333333333333333 [-]
	 SCS Opposite-Spin Scale   =       1.2000000000000000 [-]
	 SCS Same-Spin Energy      =      -0.1613991619682345 [Eh]
	 SCS Opposite-Spin Energy  =      -1.7729068374424302 [Eh]
	 SCS Correlation Energy    =      -1.9343059994106646 [Eh]
	 SCS Total Energy          =    -495.0280080151252946 [Eh]
	-----------------------------------------------------------

  Dipole Moment: [D]
     X:    11.3567      Y:    -0.8366      Z:    -1.0331     Total:    11.4342

*** Psi4 exiting successfully. Buy a developer a beer!
