                               Psi4 1.4a3.dev225

  ==> Input File <==

--------------------------------------------------------------------------
#psi4
#
memory 32 gb

molecule  {
-1 1
  O        1.8724200    -0.7415990     0.3394840
  O        2.1027790     1.3758310    -0.4300950
  O       -3.3072830    -0.3512340    -0.9359590
  O       -2.5979240    -0.0254400     1.2183870
  C       -0.0530340     0.6334400     0.4456770
  C       -0.9697120    -0.0967620    -0.5425230
  C        1.3896910     0.5173160     0.0754460
  C       -2.4305646    -0.1729994    -0.2290253
  C        3.2289120    -0.9370400    -0.0704660
  H       -0.2424870     0.2042160     1.4320630
  H       -0.3042490     1.6964080     0.4822290
  H       -0.9505240     0.3810480    -1.5282220
  H       -0.6173950    -1.1275390    -0.6764200
  H        3.4625260    -1.9695390     0.1897820
  H        3.8993660    -0.2498350     0.4514950
  H        3.3382080    -0.7798600    -1.1461020
units angstrom
no_reorient  #important for SAPT in psi4, default
symmetry c1  #important for SAPT in psi4, default
}

set PROPERTIES_ORIGIN ["COM"]
properties('MP2/aug-cc-pvtz', properties = ['dipole'])
--------------------------------------------------------------------------

    Molecular point group: c1
  Charge       = -1
  Multiplicity = 1
  Basis Set: AUG-CC-PVTZ
    Blend: AUG-CC-PVTZ
  Basis Set: (AUG-CC-PVTZ AUX)
    Blend: AUG-CC-PVTZ-JKFIT

    Orbital Energies [Eh]
    ---------------------

    Doubly Occupied:

       1A    -20.497844     2A    -20.437232     3A    -20.343865
       4A    -20.264204     5A    -11.268534     6A    -11.192089
       7A    -11.151139     8A    -11.103038     9A    -11.088838
      10A     -1.344083    11A     -1.244894    12A     -1.241733
      13A     -0.996479    14A     -0.935010    15A     -0.861590
      16A     -0.776677    17A     -0.664954    18A     -0.576946
      19A     -0.572799    20A     -0.563746    21A     -0.540127
      22A     -0.492676    23A     -0.477994    24A     -0.462767
      25A     -0.438907    26A     -0.426703    27A     -0.412803
      28A     -0.400846    29A     -0.363735    30A     -0.351284
      31A     -0.343327    32A     -0.336318    33A     -0.203347
      34A     -0.182653    35A     -0.175311

  @DF-RHF Final Energy:  -493.05675809412503

   => Energetics <=

    Nuclear Repulsion Energy =            435.1715869140750783
    One-Electron Energy =               -1550.9877043856938599
    Two-Electron Energy =                 622.7593593774937517
    Total Energy =                       -493.0567580941250299
  Basis Set: (AUG-CC-PVTZ AUX)
    Blend: AUG-CC-PVTZ-RI
    Molecular point group: c1

    Geometry (in Angstrom), charge = -1, multiplicity = 1:

       Center              X                  Y                   Z               Mass
    ------------   -----------------  -----------------  -----------------  -----------------
         O            1.935259802932    -0.753714398983     0.351572397589    15.994914619570
         O            2.165618802932     1.363715601017    -0.418006602411    15.994914619570
         O           -3.244443197068    -0.363349398983    -0.923870602411    15.994914619570
         O           -2.535084197068    -0.037555398983     1.230475397589    15.994914619570
         C            0.009805802932     0.621324601017     0.457765397589    12.000000000000
         C           -0.906872197068    -0.108877398983    -0.530434602411    12.000000000000
         C            1.452530802932     0.505200601017     0.087534397589    12.000000000000
         C           -2.367724797068    -0.185114798983    -0.216936902411    12.000000000000
         C            3.291751802932    -0.949155398983    -0.058377602411    12.000000000000
         H           -0.179647197068     0.192100601017     1.444151397589     1.007825032230
         H           -0.241409197068     1.684292601017     0.494317397589     1.007825032230
         H           -0.887684197068     0.368932601017    -1.516133602411     1.007825032230
         H           -0.554555197068    -1.139654398983    -0.664331602411     1.007825032230
         H            3.525365802932    -1.981654398983     0.201870397589     1.007825032230
         H            3.962205802932    -0.261950398983     0.463583397589     1.007825032230
         H            3.401047802932    -0.791975398983    -1.134013602411     1.007825032230

  Basis Set: AUG-CC-PVTZ
    Blend: AUG-CC-PVTZ
  Basis Set: (AUG-CC-PVTZ AUX)
    Blend: AUG-CC-PVTZ-JKFIT
	 Reference Energy          =    -493.0567580941250299 [Eh]
	 Singles Energy            =      -0.0000000000000000 [Eh]
	 Same-Spin Energy          =      -0.4849259114410518 [Eh]
	 Opposite-Spin Energy      =      -1.4795025150934003 [Eh]
	 Correlation Energy        =      -1.9644284265344520 [Eh]
	 Total Energy              =    -495.0211865206594553 [Eh]

	 ================> DF-SCS-MP2 Energies <==================
	-----------------------------------------------------------
	 SCS Same-Spin Scale       =       0.3333333333333333 [-]
	 SCS Opposite-Spin Scale   =       1.2000000000000000 [-]
	 SCS Same-Spin Energy      =      -0.1616419704803506 [Eh]
	 SCS Opposite-Spin Energy  =      -1.7754030181120803 [Eh]
	 SCS Correlation Energy    =      -1.9370449885924310 [Eh]
	 SCS Total Energy          =    -494.9938030827174771 [Eh]
	-----------------------------------------------------------

  Dipole Moment: [D]
     X:    11.3740      Y:    -0.9463      Z:    -1.9827     Total:    11.5843

*** Psi4 exiting successfully. Buy a developer a beer!
