                               Psi4 1.4a3.dev225

  ==> Input File <==

--------------------------------------------------------------------------
#psi4
#
memory 32 gb

molecule  {
-1 1
  O        1.8724200    -0.7415990     0.3394840
  O        2.1027790     1.3758310    -0.4300950
  O       -3.3072830    -0.3512340    -0.9359590
  O       -2.5979240    -0.0254400     1.2183870
  C       -0.0530340     0.6334400     0.4456770
  C       -0.9697120    -0.0967620    -0.5425230
  C        1.3896910     0.5173160     0.0754460
  C       -2.4534200    -0.1528480    -0.0313600
  C        3.2289120    -0.9370400    -0.0704660
  H       -0.2424870     0.2042160     1.4320630
  H       -0.3042490     1.6964080     0.4822290
  H       -0.9897107     0.4755901    -1.4764857
  H       -0.6173950    -1.1275390    -0.6764200
  H        3.4625260    -1.9695390     0.1897820
  H        3.8993660    -0.2498350     0.4514950
  H        3.3382080    -0.7798600    -1.1461020
units angstrom
no_reorient  #important for SAPT in psi4, default
symmetry c1  #important for SAPT in psi4, default
}

set PROPERTIES_ORIGIN ["COM"]
properties('MP2/aug-cc-pvtz', properties = ['dipole'])
--------------------------------------------------------------------------

    Molecular point group: c1
  Charge       = -1
  Multiplicity = 1
  Basis Set: AUG-CC-PVTZ
    Blend: AUG-CC-PVTZ
  Basis Set: (AUG-CC-PVTZ AUX)
    Blend: AUG-CC-PVTZ-JKFIT

    Orbital Energies [Eh]
    ---------------------

    Doubly Occupied:

       1A    -20.496126     2A    -20.434619     3A    -20.308743
       4A    -20.306711     5A    -11.266227     6A    -11.190919
       7A    -11.154136     8A    -11.099797     9A    -11.079752
      10A     -1.342223    11A     -1.239664    12A     -1.177457
      13A     -1.081242    14A     -0.935533    15A     -0.857483
      16A     -0.756227    17A     -0.661804    18A     -0.576054
      19A     -0.568861    20A     -0.560521    21A     -0.528606
      22A     -0.489805    23A     -0.469950    24A     -0.451465
      25A     -0.430320    26A     -0.418824    27A     -0.411050
      28A     -0.388523    29A     -0.359790    30A     -0.348674
      31A     -0.338546    32A     -0.330257    33A     -0.225405
      34A     -0.208674    35A     -0.208179

  @DF-RHF Final Energy:  -493.10719923696649

   => Energetics <=

    Nuclear Repulsion Energy =            435.1808285509001166
    One-Electron Energy =               -1551.1717179798679354
    Two-Electron Energy =                 622.8836901920013815
    Total Energy =                       -493.1071992369664940
  Basis Set: (AUG-CC-PVTZ AUX)
    Blend: AUG-CC-PVTZ-RI
    Molecular point group: c1

    Geometry (in Angstrom), charge = -1, multiplicity = 1:

       Center              X                  Y                   Z               Mass
    ------------   -----------------  -----------------  -----------------  -----------------
         O            1.937654273823    -0.756286995250     0.333072491345    15.994914619570
         O            2.168013273823     1.361143004750    -0.436506508655    15.994914619570
         O           -3.242048726177    -0.365921995250    -0.942370508655    15.994914619570
         O           -2.532689726177    -0.040127995250     1.211975491345    15.994914619570
         C            0.012200273823     0.618752004750     0.439265491345    12.000000000000
         C           -0.904477726177    -0.111449995250    -0.548934508655    12.000000000000
         C            1.454925273823     0.502628004750     0.069034491345    12.000000000000
         C           -2.388185726177    -0.167535995250    -0.037771508655    12.000000000000
         C            3.294146273823    -0.951727995250    -0.076877508655    12.000000000000
         H           -0.177252726177     0.189528004750     1.425651491345     1.007825032230
         H           -0.239014726177     1.681720004750     0.475817491345     1.007825032230
         H           -0.924476426177     0.460902104750    -1.482897208655     1.007825032230
         H           -0.552160726177    -1.142226995250    -0.682831508655     1.007825032230
         H            3.527760273823    -1.984226995250     0.183370491345     1.007825032230
         H            3.964600273823    -0.264522995250     0.445083491345     1.007825032230
         H            3.403442273823    -0.794547995250    -1.152513508655     1.007825032230

  Basis Set: AUG-CC-PVTZ
    Blend: AUG-CC-PVTZ
  Basis Set: (AUG-CC-PVTZ AUX)
    Blend: AUG-CC-PVTZ-JKFIT
	 Reference Energy          =    -493.1071992369664940 [Eh]
	 Singles Energy            =      -0.0000000000000000 [Eh]
	 Same-Spin Energy          =      -0.4838473788922039 [Eh]
	 Opposite-Spin Energy      =      -1.4762043337542741 [Eh]
	 Correlation Energy        =      -1.9600517126464778 [Eh]
	 Total Energy              =    -495.0672509496129692 [Eh]

	 ================> DF-SCS-MP2 Energies <==================
	-----------------------------------------------------------
	 SCS Same-Spin Scale       =       0.3333333333333333 [-]
	 SCS Opposite-Spin Scale   =       1.2000000000000000 [-]
	 SCS Same-Spin Energy      =      -0.1612824596307346 [Eh]
	 SCS Opposite-Spin Energy  =      -1.7714452005051289 [Eh]
	 SCS Correlation Energy    =      -1.9327276601358634 [Eh]
	 SCS Total Energy          =    -495.0399268971023616 [Eh]
	-----------------------------------------------------------

  Dipole Moment: [D]
     X:    11.3134      Y:    -0.7143      Z:    -0.0698     Total:    11.3361

*** Psi4 exiting successfully. Buy a developer a beer!
