                               Psi4 1.4a3.dev225

  ==> Input File <==

--------------------------------------------------------------------------
#psi4
#
memory 32 gb

molecule  {
-1 1
  O        1.8724200    -0.7415990     0.3394840
  O        2.1027790     1.3758310    -0.4300950
  O       -3.3072830    -0.3512340    -0.9359590
  O       -2.5979240    -0.0254400     1.2183870
  C       -0.0530340     0.6334400     0.4456770
  C       -0.9697120    -0.0967620    -0.5425230
  C        1.3896910     0.5173160     0.0754460
  C       -2.4534200    -0.1528480    -0.0313600
  C        3.2289120    -0.9370400    -0.0704660
  H       -0.2424870     0.2042160     1.4320630
  H       -0.3042490     1.6964080     0.4822290
  H       -0.9505240     0.3810480    -1.5282220
  H       -0.5852939    -1.2214575    -0.6886199
  H        3.4625260    -1.9695390     0.1897820
  H        3.8993660    -0.2498350     0.4514950
  H        3.3382080    -0.7798600    -1.1461020
units angstrom
no_reorient  #important for SAPT in psi4, default
symmetry c1  #important for SAPT in psi4, default
}

set PROPERTIES_ORIGIN ["COM"]
properties('MP2/aug-cc-pvtz', properties = ['dipole'])
--------------------------------------------------------------------------

    Molecular point group: c1
  Charge       = -1
  Multiplicity = 1
  Basis Set: AUG-CC-PVTZ
    Blend: AUG-CC-PVTZ
  Basis Set: (AUG-CC-PVTZ AUX)
    Blend: AUG-CC-PVTZ-JKFIT

    Orbital Energies [Eh]
    ---------------------

    Doubly Occupied:

       1A    -20.495848     2A    -20.435008     3A    -20.309643
       4A    -20.306910     5A    -11.266757     6A    -11.190777
       7A    -11.155744     8A    -11.102164     9A    -11.091702
      10A     -1.342196    11A     -1.239847    12A     -1.177948
      13A     -1.081801    14A     -0.934498    15A     -0.856120
      16A     -0.751706    17A     -0.661502    18A     -0.576640
      19A     -0.568582    20A     -0.560297    21A     -0.529296
      22A     -0.486869    23A     -0.461470    24A     -0.452034
      25A     -0.430592    26A     -0.419118    27A     -0.411687
      28A     -0.383391    29A     -0.361055    30A     -0.353942
      31A     -0.336777    32A     -0.321876    33A     -0.226369
      34A     -0.210193    35A     -0.208522

  @DF-RHF Final Energy:  -493.10186930682318

   => Energetics <=

    Nuclear Repulsion Energy =            434.6793097026894657
    One-Electron Energy =               -1550.1645928350878876
    Two-Electron Energy =                 622.3834138255751895
    Total Energy =                       -493.1018693068231187
  Basis Set: (AUG-CC-PVTZ AUX)
    Blend: AUG-CC-PVTZ-RI
    Molecular point group: c1

    Geometry (in Angstrom), charge = -1, multiplicity = 1:

       Center              X                  Y                   Z               Mass
    ------------   -----------------  -----------------  -----------------  -----------------
         O            1.937105978025    -0.754837488392     0.333564243788    15.994914619570
         O            2.167464978025     1.362592511608    -0.436014756212    15.994914619570
         O           -3.242597021975    -0.364472488392    -0.941878756212    15.994914619570
         O           -2.533238021975    -0.038678488392     1.212467243788    15.994914619570
         C            0.011651978025     0.620201511608     0.439757243788    12.000000000000
         C           -0.905026021975    -0.110000488392    -0.548442756212    12.000000000000
         C            1.454376978025     0.504077511608     0.069526243788    12.000000000000
         C           -2.388734021975    -0.166086488392    -0.037279756212    12.000000000000
         C            3.293597978025    -0.950278488392    -0.076385756212    12.000000000000
         H           -0.177801021975     0.190977511608     1.426143243788     1.007825032230
         H           -0.239563021975     1.683169511608     0.476309243788     1.007825032230
         H           -0.885838021975     0.367809511608    -1.534141756212     1.007825032230
         H           -0.520607921975    -1.234695988392    -0.694539656212     1.007825032230
         H            3.527211978025    -1.982777488392     0.183862243788     1.007825032230
         H            3.964051978025    -0.263073488392     0.445575243788     1.007825032230
         H            3.402893978025    -0.793098488392    -1.152021756212     1.007825032230

  Basis Set: AUG-CC-PVTZ
    Blend: AUG-CC-PVTZ
  Basis Set: (AUG-CC-PVTZ AUX)
    Blend: AUG-CC-PVTZ-JKFIT
	 Reference Energy          =    -493.1018693068231755 [Eh]
	 Singles Energy            =      -0.0000000000000000 [Eh]
	 Same-Spin Energy          =      -0.4838019691960195 [Eh]
	 Opposite-Spin Energy      =      -1.4767324512750206 [Eh]
	 Correlation Energy        =      -1.9605344204710402 [Eh]
	 Total Energy              =    -495.0624037272942246 [Eh]

	 ================> DF-SCS-MP2 Energies <==================
	-----------------------------------------------------------
	 SCS Same-Spin Scale       =       0.3333333333333333 [-]
	 SCS Opposite-Spin Scale   =       1.2000000000000000 [-]
	 SCS Same-Spin Energy      =      -0.1612673230653398 [Eh]
	 SCS Opposite-Spin Energy  =      -1.7720789415300247 [Eh]
	 SCS Correlation Energy    =      -1.9333462645953645 [Eh]
	 SCS Total Energy          =    -495.0352155714185187 [Eh]
	-----------------------------------------------------------

  Dipole Moment: [D]
     X:    11.3154      Y:    -0.6675      Z:    -0.0582     Total:    11.3352

*** Psi4 exiting successfully. Buy a developer a beer!
