                               Psi4 1.4a3.dev225

  ==> Input File <==

--------------------------------------------------------------------------
#psi4
#
memory 32 gb

molecule  {
-1 1
  O        1.8724200    -0.7415990     0.3394840
  O        2.1027790     1.3758310    -0.4300950
  O       -3.3072830    -0.3512340    -0.9359590
  O       -2.5979240    -0.0254400     1.2183870
  C       -0.0323530     0.6292484     0.4292280
  C       -0.9697120    -0.0967620    -0.5425230
  C        1.3896910     0.5173160     0.0754460
  C       -2.4534200    -0.1528480    -0.0313600
  C        3.2289120    -0.9370400    -0.0704660
  H       -0.2424870     0.2042160     1.4320630
  H       -0.3042490     1.6964080     0.4822290
  H       -0.9505240     0.3810480    -1.5282220
  H       -0.6173950    -1.1275390    -0.6764200
  H        3.4625260    -1.9695390     0.1897820
  H        3.8993660    -0.2498350     0.4514950
  H        3.3382080    -0.7798600    -1.1461020
units angstrom
no_reorient  #important for SAPT in psi4, default
symmetry c1  #important for SAPT in psi4, default
}

set PROPERTIES_ORIGIN ["COM"]
properties('MP2/aug-cc-pvtz', properties = ['dipole'])
--------------------------------------------------------------------------

    Molecular point group: c1
  Charge       = -1
  Multiplicity = 1
  Basis Set: AUG-CC-PVTZ
    Blend: AUG-CC-PVTZ
  Basis Set: (AUG-CC-PVTZ AUX)
    Blend: AUG-CC-PVTZ-JKFIT

    Orbital Energies [Eh]
    ---------------------

    Doubly Occupied:

       1A    -20.496109     2A    -20.434553     3A    -20.309386
       4A    -20.307036     5A    -11.266046     6A    -11.190995
       7A    -11.155423     8A    -11.100842     9A    -11.080320
      10A     -1.342789    11A     -1.239971    12A     -1.177786
      13A     -1.081623    14A     -0.938343    15A     -0.857132
      16A     -0.759351    17A     -0.661587    18A     -0.577268
      19A     -0.569328    20A     -0.561050    21A     -0.531081
      22A     -0.486970    23A     -0.466077    24A     -0.453131
      25A     -0.431378    26A     -0.420576    27A     -0.411017
      28A     -0.384454    29A     -0.360348    30A     -0.350771
      31A     -0.339484    32A     -0.327002    33A     -0.226222
      34A     -0.210198    35A     -0.208521

  @DF-RHF Final Energy:  -493.10722922205485

   => Energetics <=

    Nuclear Repulsion Energy =            435.3605419596211732
    One-Electron Energy =               -1551.5072059949450249
    Two-Electron Energy =                 623.0394348132689402
    Total Energy =                       -493.1072292220547979
  Basis Set: (AUG-CC-PVTZ AUX)
    Blend: AUG-CC-PVTZ-RI
    Molecular point group: c1

    Geometry (in Angstrom), charge = -1, multiplicity = 1:

       Center              X                  Y                   Z               Mass
    ------------   -----------------  -----------------  -----------------  -----------------
         O            1.935458932270    -0.755175981214     0.334976793376    15.994914619570
         O            2.165817932270     1.362254018786    -0.434602206624    15.994914619570
         O           -3.244244067730    -0.364810981214    -0.940466206624    15.994914619570
         O           -2.534885067730    -0.039016981214     1.213879793376    15.994914619570
         C            0.030685932270     0.615671418786     0.424720793376    12.000000000000
         C           -0.906673067730    -0.110338981214    -0.547030206624    12.000000000000
         C            1.452729932270     0.503739018786     0.070938793376    12.000000000000
         C           -2.390381067730    -0.166424981214    -0.035867206624    12.000000000000
         C            3.291950932270    -0.950616981214    -0.074973206624    12.000000000000
         H           -0.179448067730     0.190639018786     1.427555793376     1.007825032230
         H           -0.241210067730     1.682831018786     0.477721793376     1.007825032230
         H           -0.887485067730     0.367471018786    -1.532729206624     1.007825032230
         H           -0.554356067730    -1.141115981214    -0.680927206624     1.007825032230
         H            3.525564932270    -1.983115981214     0.185274793376     1.007825032230
         H            3.962404932270    -0.263411981214     0.446987793376     1.007825032230
         H            3.401246932270    -0.793436981214    -1.150609206624     1.007825032230

  Basis Set: AUG-CC-PVTZ
    Blend: AUG-CC-PVTZ
  Basis Set: (AUG-CC-PVTZ AUX)
    Blend: AUG-CC-PVTZ-JKFIT
	 Reference Energy          =    -493.1072292220548547 [Eh]
	 Singles Energy            =      -0.0000000000000000 [Eh]
	 Same-Spin Energy          =      -0.4840241495456646 [Eh]
	 Opposite-Spin Energy      =      -1.4763117961836256 [Eh]
	 Correlation Energy        =      -1.9603359457292902 [Eh]
	 Total Energy              =    -495.0675651677841529 [Eh]

	 ================> DF-SCS-MP2 Energies <==================
	-----------------------------------------------------------
	 SCS Same-Spin Scale       =       0.3333333333333333 [-]
	 SCS Opposite-Spin Scale   =       1.2000000000000000 [-]
	 SCS Same-Spin Energy      =      -0.1613413831818882 [Eh]
	 SCS Opposite-Spin Energy  =      -1.7715741554203508 [Eh]
	 SCS Correlation Energy    =      -1.9329155386022390 [Eh]
	 SCS Total Energy          =    -495.0401447606570855 [Eh]
	-----------------------------------------------------------

  Dipole Moment: [D]
     X:    11.3126      Y:    -0.7385      Z:    -0.0931     Total:    11.3370

*** Psi4 exiting successfully. Buy a developer a beer!
