                               Psi4 1.4a3.dev225

  ==> Input File <==

--------------------------------------------------------------------------
#psi4
#
memory 32 gb

molecule  {
-1 1
  O        1.8724200    -0.7415990     0.3394840
  O        2.1027790     1.3758310    -0.4300950
  O       -3.3072830    -0.3512340    -0.9359590
  O       -2.5979240    -0.0254400     1.2183870
  C       -0.0530340     0.6334400     0.4456770
  C       -0.9697120    -0.0967620    -0.5425230
  C        1.3896910     0.5173160     0.0754460
  C       -2.4534200    -0.1528480    -0.0313600
  C        3.2289120    -0.9370400    -0.0704660
  H       -0.2424870     0.2042160     1.4320630
  H       -0.3042490     1.6964080     0.4822290
  H       -0.9505240     0.3810480    -1.5282220
  H       -0.6173950    -1.1275390    -0.6764200
  H        3.4732411    -2.0168962     0.2017187
  H        3.8993660    -0.2498350     0.4514950
  H        3.3382080    -0.7798600    -1.1461020
units angstrom
no_reorient  #important for SAPT in psi4, default
symmetry c1  #important for SAPT in psi4, default
}

set PROPERTIES_ORIGIN ["COM"]
properties('MP2/aug-cc-pvtz', properties = ['dipole'])
--------------------------------------------------------------------------

    Molecular point group: c1
  Charge       = -1
  Multiplicity = 1
  Basis Set: AUG-CC-PVTZ
    Blend: AUG-CC-PVTZ
  Basis Set: (AUG-CC-PVTZ AUX)
    Blend: AUG-CC-PVTZ-JKFIT

    Orbital Energies [Eh]
    ---------------------

    Doubly Occupied:

       1A    -20.496934     2A    -20.435275     3A    -20.309126
       4A    -20.306586     5A    -11.267021     6A    -11.197220
       7A    -11.154820     8A    -11.101090     9A    -11.079801
      10A     -1.342920    11A     -1.240259    12A     -1.177552
      13A     -1.081383    14A     -0.935120    15A     -0.853553
      16A     -0.756208    17A     -0.662692    18A     -0.576498
      19A     -0.569153    20A     -0.559081    21A     -0.530312
      22A     -0.486547    23A     -0.463961    24A     -0.451679
      25A     -0.429111    26A     -0.418688    27A     -0.411486
      28A     -0.386948    29A     -0.361193    30A     -0.353392
      31A     -0.338355    32A     -0.327930    33A     -0.225985
      34A     -0.209411    35A     -0.208253

  @DF-RHF Final Energy:  -493.10633950398534

   => Energetics <=

    Nuclear Repulsion Energy =            434.8917718527714555
    One-Electron Energy =               -1550.5851395870865872
    Two-Electron Energy =                 622.5870282303297927
    Total Energy =                       -493.1063395039853958
  Basis Set: (AUG-CC-PVTZ AUX)
    Blend: AUG-CC-PVTZ-RI
    Molecular point group: c1

    Geometry (in Angstrom), charge = -1, multiplicity = 1:

       Center              X                  Y                   Z               Mass
    ------------   -----------------  -----------------  -----------------  -----------------
         O            1.937270464149    -0.755195605280     0.333378601976    15.994914619570
         O            2.167629464149     1.362234394720    -0.436200398024    15.994914619570
         O           -3.242432535851    -0.364830605280    -0.942064398024    15.994914619570
         O           -2.533073535851    -0.039036605280     1.212281601976    15.994914619570
         C            0.011816464149     0.619843394720     0.439571601976    12.000000000000
         C           -0.904861535851    -0.110358605280    -0.548628398024    12.000000000000
         C            1.454541464149     0.503719394720     0.069340601976    12.000000000000
         C           -2.388569535851    -0.166444605280    -0.037465398024    12.000000000000
         C            3.293762464149    -0.950636605280    -0.076571398024    12.000000000000
         H           -0.177636535851     0.190619394720     1.425957601976     1.007825032230
         H           -0.239398535851     1.682811394720     0.476123601976     1.007825032230
         H           -0.885673535851     0.367451394720    -1.534327398024     1.007825032230
         H           -0.552544535851    -1.141135605280    -0.682525398024     1.007825032230
         H            3.538091564149    -2.030492805280     0.195613301976     1.007825032230
         H            3.964216464149    -0.263431605280     0.445389601976     1.007825032230
         H            3.403058464149    -0.793456605280    -1.152207398024     1.007825032230

  Basis Set: AUG-CC-PVTZ
    Blend: AUG-CC-PVTZ
  Basis Set: (AUG-CC-PVTZ AUX)
    Blend: AUG-CC-PVTZ-JKFIT
	 Reference Energy          =    -493.1063395039853390 [Eh]
	 Singles Energy            =      -0.0000000000000000 [Eh]
	 Same-Spin Energy          =      -0.4837365969226692 [Eh]
	 Opposite-Spin Energy      =      -1.4763109223633581 [Eh]
	 Correlation Energy        =      -1.9600475192860274 [Eh]
	 Total Energy              =    -495.0663870232713748 [Eh]

	 ================> DF-SCS-MP2 Energies <==================
	-----------------------------------------------------------
	 SCS Same-Spin Scale       =       0.3333333333333333 [-]
	 SCS Opposite-Spin Scale   =       1.2000000000000000 [-]
	 SCS Same-Spin Energy      =      -0.1612455323075564 [Eh]
	 SCS Opposite-Spin Energy  =      -1.7715731068360296 [Eh]
	 SCS Correlation Energy    =      -1.9328186391435860 [Eh]
	 SCS Total Energy          =    -495.0391581431289296 [Eh]
	-----------------------------------------------------------

  Dipole Moment: [D]
     X:    11.3177      Y:    -0.6975      Z:    -0.0894     Total:    11.3396

*** Psi4 exiting successfully. Buy a developer a beer!
