                               Psi4 1.4a3.dev225

  ==> Input File <==

--------------------------------------------------------------------------
#psi4
#
memory 32 gb

molecule  {
-1 1
  O        1.8724200    -0.7415990     0.3394840
  O        2.1027790     1.3758310    -0.4300950
  O       -3.3072830    -0.3512340    -0.9359590
  O       -2.5979240    -0.0254400     1.2183870
  C       -0.0530340     0.6334400     0.4456770
  C       -0.9697120    -0.0967620    -0.5425230
  C        1.3896910     0.5173160     0.0754460
  C       -2.4534200    -0.1528480    -0.0313600
  C        3.2289120    -0.9370400    -0.0704660
  H       -0.2424870     0.2042160     1.4320630
  H       -0.3042490     1.6964080     0.4822290
  H       -0.9505240     0.3810480    -1.5282220
  H       -0.6173950    -1.1275390    -0.6764200
  H        3.4668120    -1.9884819     0.1945567
  H        3.8993660    -0.2498350     0.4514950
  H        3.3382080    -0.7798600    -1.1461020
units angstrom
no_reorient  #important for SAPT in psi4, default
symmetry c1  #important for SAPT in psi4, default
}

set PROPERTIES_ORIGIN ["COM"]
properties('MP2/aug-cc-pvtz', properties = ['dipole'])
--------------------------------------------------------------------------

    Molecular point group: c1
  Charge       = -1
  Multiplicity = 1
  Basis Set: AUG-CC-PVTZ
    Blend: AUG-CC-PVTZ
  Basis Set: (AUG-CC-PVTZ AUX)
    Blend: AUG-CC-PVTZ-JKFIT

    Orbital Energies [Eh]
    ---------------------

    Doubly Occupied:

       1A    -20.496476     2A    -20.434956     3A    -20.309042
       4A    -20.306506     5A    -11.266663     6A    -11.193496
       7A    -11.154728     8A    -11.100893     9A    -11.079677
      10A     -1.342550    11A     -1.239958    12A     -1.177469
      13A     -1.081301    14A     -0.935252    15A     -0.855712
      16A     -0.756472    17A     -0.662368    18A     -0.576659
      19A     -0.568919    20A     -0.560096    21A     -0.530375
      22A     -0.487272    23A     -0.465220    24A     -0.451982
      25A     -0.430430    26A     -0.418982    27A     -0.411404
      28A     -0.386875    29A     -0.360900    30A     -0.353185
      31A     -0.338144    32A     -0.327782    33A     -0.225901
      34A     -0.209319    35A     -0.208175

  @DF-RHF Final Energy:  -493.10794620524030

   => Energetics <=

    Nuclear Repulsion Energy =            435.0257714617440001
    One-Electron Energy =               -1550.8571630681251463
    Two-Electron Energy =                 622.7234454011409071
    Total Energy =                       -493.1079462052402960
  Basis Set: (AUG-CC-PVTZ AUX)
    Blend: AUG-CC-PVTZ-RI
    Molecular point group: c1

    Geometry (in Angstrom), charge = -1, multiplicity = 1:

       Center              X                  Y                   Z               Mass
    ------------   -----------------  -----------------  -----------------  -----------------
         O            1.937319912281    -0.755414148162     0.333433687060    15.994914619570
         O            2.167678912281     1.362015851838    -0.436145312940    15.994914619570
         O           -3.242383087719    -0.365049148162    -0.942009312940    15.994914619570
         O           -2.533024087719    -0.039255148162     1.212336687060    15.994914619570
         C            0.011865912281     0.619624851838     0.439626687060    12.000000000000
         C           -0.904812087719    -0.110577148162    -0.548573312940    12.000000000000
         C            1.454590912281     0.503500851838     0.069395687060    12.000000000000
         C           -2.388520087719    -0.166663148162    -0.037410312940    12.000000000000
         C            3.293811912281    -0.950855148162    -0.076516312940    12.000000000000
         H           -0.177587087719     0.190400851838     1.426012687060     1.007825032230
         H           -0.239349087719     1.682592851838     0.476178687060     1.007825032230
         H           -0.885624087719     0.367232851838    -1.534272312940     1.007825032230
         H           -0.552495087719    -1.141354148162    -0.682470312940     1.007825032230
         H            3.531711912281    -2.002297048162     0.188506387060     1.007825032230
         H            3.964265912281    -0.263650148162     0.445444687060     1.007825032230
         H            3.403107912281    -0.793675148162    -1.152152312940     1.007825032230

  Basis Set: AUG-CC-PVTZ
    Blend: AUG-CC-PVTZ
  Basis Set: (AUG-CC-PVTZ AUX)
    Blend: AUG-CC-PVTZ-JKFIT
	 Reference Energy          =    -493.1079462052402960 [Eh]
	 Singles Energy            =      -0.0000000000000000 [Eh]
	 Same-Spin Energy          =      -0.4837405792022567 [Eh]
	 Opposite-Spin Energy      =      -1.4761034760113336 [Eh]
	 Correlation Energy        =      -1.9598440552135903 [Eh]
	 Total Energy              =    -495.0677902604538758 [Eh]

	 ================> DF-SCS-MP2 Energies <==================
	-----------------------------------------------------------
	 SCS Same-Spin Scale       =       0.3333333333333333 [-]
	 SCS Opposite-Spin Scale   =       1.2000000000000000 [-]
	 SCS Same-Spin Energy      =      -0.1612468597340855 [Eh]
	 SCS Opposite-Spin Energy  =      -1.7713241712136003 [Eh]
	 SCS Correlation Energy    =      -1.9325710309476858 [Eh]
	 SCS Total Energy          =    -495.0405172361880091 [Eh]
	-----------------------------------------------------------

  Dipole Moment: [D]
     X:    11.3334      Y:    -0.7172      Z:    -0.0869     Total:    11.3564

*** Psi4 exiting successfully. Buy a developer a beer!
