                               Psi4 1.4a3.dev225

  ==> Input File <==

--------------------------------------------------------------------------
#psi4
#
memory 32 gb

molecule  {
-1 1
  O        1.8724200    -0.7415990     0.3394840
  O        2.1027790     1.3758310    -0.4300950
  O       -3.2746563    -0.3525233    -0.9654045
  O       -2.5979240    -0.0254400     1.2183870
  C       -0.0530340     0.6334400     0.4456770
  C       -0.9697120    -0.0967620    -0.5425230
  C        1.3896910     0.5173160     0.0754460
  C       -2.4534200    -0.1528480    -0.0313600
  C        3.2289120    -0.9370400    -0.0704660
  H       -0.2424870     0.2042160     1.4320630
  H       -0.3042490     1.6964080     0.4822290
  H       -0.9505240     0.3810480    -1.5282220
  H       -0.6173950    -1.1275390    -0.6764200
  H        3.4625260    -1.9695390     0.1897820
  H        3.8993660    -0.2498350     0.4514950
  H        3.3382080    -0.7798600    -1.1461020
units angstrom
no_reorient  #important for SAPT in psi4, default
symmetry c1  #important for SAPT in psi4, default
}

set PROPERTIES_ORIGIN ["COM"]
properties('MP2/aug-cc-pvtz', properties = ['dipole'])
--------------------------------------------------------------------------

    Molecular point group: c1
  Charge       = -1
  Multiplicity = 1
  Basis Set: AUG-CC-PVTZ
    Blend: AUG-CC-PVTZ
  Basis Set: (AUG-CC-PVTZ AUX)
    Blend: AUG-CC-PVTZ-JKFIT

    Orbital Energies [Eh]
    ---------------------

    Doubly Occupied:

       1A    -20.495424     2A    -20.433846     3A    -20.311692
       4A    -20.307731     5A    -11.265495     6A    -11.190418
       7A    -11.155785     8A    -11.099476     9A    -11.077060
      10A     -1.341524    11A     -1.238946    12A     -1.177928
      13A     -1.084888    14A     -0.934162    15A     -0.856374
      16A     -0.755026    17A     -0.661352    18A     -0.576043
      19A     -0.568011    20A     -0.560043    21A     -0.530587
      22A     -0.487071    23A     -0.465409    24A     -0.451837
      25A     -0.430581    26A     -0.418944    27A     -0.412347
      28A     -0.386619    29A     -0.360297    30A     -0.352436
      31A     -0.337361    32A     -0.327086    33A     -0.229166
      34A     -0.210608    35A     -0.206938

  @DF-RHF Final Energy:  -493.10772012150534

   => Energetics <=

    Nuclear Repulsion Energy =            435.3103563221195031
    One-Electron Energy =               -1551.4391301905600358
    Two-Electron Energy =                 623.0210537469351948
    Total Energy =                       -493.1077201215052810
  Basis Set: (AUG-CC-PVTZ AUX)
    Blend: AUG-CC-PVTZ-RI
    Molecular point group: c1

    Geometry (in Angstrom), charge = -1, multiplicity = 1:

       Center              X                  Y                   Z               Mass
    ------------   -----------------  -----------------  -----------------  -----------------
         O            1.933370250134    -0.755402463336     0.337064719814    15.994914619570
         O            2.163729250134     1.362027536664    -0.432514280186    15.994914619570
         O           -3.213706049866    -0.366326763336    -0.967823780186    15.994914619570
         O           -2.536973749866    -0.039243463336     1.215967719814    15.994914619570
         C            0.007916250134     0.619636536664     0.443257719814    12.000000000000
         C           -0.908761749866    -0.110565463336    -0.544942280186    12.000000000000
         C            1.450641250134     0.503512536664     0.073026719814    12.000000000000
         C           -2.392469749866    -0.166651463336    -0.033779280186    12.000000000000
         C            3.289862250134    -0.950843463336    -0.072885280186    12.000000000000
         H           -0.181536749866     0.190412536664     1.429643719814     1.007825032230
         H           -0.243298749866     1.682604536664     0.479809719814     1.007825032230
         H           -0.889573749866     0.367244536664    -1.530641280186     1.007825032230
         H           -0.556444749866    -1.141342463336    -0.678839280186     1.007825032230
         H            3.523476250134    -1.983342463336     0.187362719814     1.007825032230
         H            3.960316250134    -0.263638463336     0.449075719814     1.007825032230
         H            3.399158250134    -0.793663463336    -1.148521280186     1.007825032230

  Basis Set: AUG-CC-PVTZ
    Blend: AUG-CC-PVTZ
  Basis Set: (AUG-CC-PVTZ AUX)
    Blend: AUG-CC-PVTZ-JKFIT
	 Reference Energy          =    -493.1077201215053378 [Eh]
	 Singles Energy            =      -0.0000000000000000 [Eh]
	 Same-Spin Energy          =      -0.4838577500373153 [Eh]
	 Opposite-Spin Energy      =      -1.4761323215136215 [Eh]
	 Correlation Energy        =      -1.9599900715509369 [Eh]
	 Total Energy              =    -495.0677101930562571 [Eh]

	 ================> DF-SCS-MP2 Energies <==================
	-----------------------------------------------------------
	 SCS Same-Spin Scale       =       0.3333333333333333 [-]
	 SCS Opposite-Spin Scale   =       1.2000000000000000 [-]
	 SCS Same-Spin Energy      =      -0.1612859166791051 [Eh]
	 SCS Opposite-Spin Energy  =      -1.7713587858163458 [Eh]
	 SCS Correlation Energy    =      -1.9326447024954510 [Eh]
	 SCS Total Energy          =    -495.0403648240007897 [Eh]
	-----------------------------------------------------------

  Dipole Moment: [D]
     X:    11.2114      Y:    -0.7349      Z:    -0.0249     Total:    11.2355

*** Psi4 exiting successfully. Buy a developer a beer!
