                               Psi4 1.4a3.dev225

  ==> Input File <==

--------------------------------------------------------------------------
#psi4
#
memory 32 gb

molecule  {
-1 1
  O        1.8724200    -0.7415990     0.3394840
  O        2.1027790     1.3758310    -0.4300950
  O       -3.3072830    -0.3512340    -0.9359590
  O       -2.5979240    -0.0254400     1.2183870
  C       -0.0530340     0.6334400     0.4456770
  C       -0.9697120    -0.0967620    -0.5425230
  C        1.3666319     0.5646411    -0.0145693
  C       -2.4534200    -0.1528480    -0.0313600
  C        3.2289120    -0.9370400    -0.0704660
  H       -0.2424870     0.2042160     1.4320630
  H       -0.3042490     1.6964080     0.4822290
  H       -0.9505240     0.3810480    -1.5282220
  H       -0.6173950    -1.1275390    -0.6764200
  H        3.4625260    -1.9695390     0.1897820
  H        3.8993660    -0.2498350     0.4514950
  H        3.3382080    -0.7798600    -1.1461020
units angstrom
no_reorient  #important for SAPT in psi4, default
symmetry c1  #important for SAPT in psi4, default
}

set PROPERTIES_ORIGIN ["COM"]
properties('MP2/aug-cc-pvtz', properties = ['dipole'])
--------------------------------------------------------------------------

    Molecular point group: c1
  Charge       = -1
  Multiplicity = 1
  Basis Set: AUG-CC-PVTZ
    Blend: AUG-CC-PVTZ
  Basis Set: (AUG-CC-PVTZ AUX)
    Blend: AUG-CC-PVTZ-JKFIT

    Orbital Energies [Eh]
    ---------------------

    Doubly Occupied:

       1A    -20.476672     2A    -20.449949     3A    -20.309717
       4A    -20.306685     5A    -11.265568     6A    -11.181683
       7A    -11.154872     8A    -11.103261     9A    -11.079628
      10A     -1.346395    11A     -1.247509    12A     -1.177859
      13A     -1.081705    14A     -0.934666    15A     -0.842448
      16A     -0.756101    17A     -0.651314    18A     -0.586745
      19A     -0.566809    20A     -0.550099    21A     -0.528039
      22A     -0.497890    23A     -0.461203    24A     -0.460620
      25A     -0.434297    26A     -0.417812    27A     -0.413945
      28A     -0.385821    29A     -0.359581    30A     -0.354621
      31A     -0.337613    32A     -0.329599    33A     -0.226488
      34A     -0.209281    35A     -0.208454

  @DF-RHF Final Energy:  -493.10096380942508

   => Energetics <=

    Nuclear Repulsion Energy =            435.1209688823536794
    One-Electron Energy =               -1551.0539701168916054
    Two-Electron Energy =                 622.8320374251127305
    Total Energy =                       -493.1009638094251386
  Basis Set: (AUG-CC-PVTZ AUX)
    Blend: AUG-CC-PVTZ-RI
    Molecular point group: c1

    Geometry (in Angstrom), charge = -1, multiplicity = 1:

       Center              X                  Y                   Z               Mass
    ------------   -----------------  -----------------  -----------------  -----------------
         O            1.939464606085    -0.759893828138     0.341713920214    15.994914619570
         O            2.169823606085     1.357536171862    -0.427865079786    15.994914619570
         O           -3.240238393915    -0.369528828138    -0.933729079786    15.994914619570
         O           -2.530879393915    -0.043734828138     1.220616920214    15.994914619570
         C            0.014010606085     0.615145171862     0.447906920214    12.000000000000
         C           -0.902667393915    -0.115056828138    -0.540293079786    12.000000000000
         C            1.433676506085     0.546346271862    -0.012339379786    12.000000000000
         C           -2.386375393915    -0.171142828138    -0.029130079786    12.000000000000
         C            3.295956606085    -0.955334828138    -0.068236079786    12.000000000000
         H           -0.175442393915     0.185921171862     1.434292920214     1.007825032230
         H           -0.237204393915     1.678113171862     0.484458920214     1.007825032230
         H           -0.883479393915     0.362753171862    -1.525992079786     1.007825032230
         H           -0.550350393915    -1.145833828138    -0.674190079786     1.007825032230
         H            3.529570606085    -1.987833828138     0.192011920214     1.007825032230
         H            3.966410606085    -0.268129828138     0.453724920214     1.007825032230
         H            3.405252606085    -0.798154828138    -1.143872079786     1.007825032230

  Basis Set: AUG-CC-PVTZ
    Blend: AUG-CC-PVTZ
  Basis Set: (AUG-CC-PVTZ AUX)
    Blend: AUG-CC-PVTZ-JKFIT
	 Reference Energy          =    -493.1009638094250818 [Eh]
	 Singles Energy            =      -0.0000000000000000 [Eh]
	 Same-Spin Energy          =      -0.4835445902688109 [Eh]
	 Opposite-Spin Energy      =      -1.4759254169374447 [Eh]
	 Correlation Energy        =      -1.9594700072062556 [Eh]
	 Total Energy              =    -495.0604338166313596 [Eh]

	 ================> DF-SCS-MP2 Energies <==================
	-----------------------------------------------------------
	 SCS Same-Spin Scale       =       0.3333333333333333 [-]
	 SCS Opposite-Spin Scale   =       1.2000000000000000 [-]
	 SCS Same-Spin Energy      =      -0.1611815300896036 [Eh]
	 SCS Opposite-Spin Energy  =      -1.7711105003249337 [Eh]
	 SCS Correlation Energy    =      -1.9322920304145372 [Eh]
	 SCS Total Energy          =    -495.0332558398396259 [Eh]
	-----------------------------------------------------------

  Dipole Moment: [D]
     X:    11.1339      Y:    -0.1281      Z:    -0.3431     Total:    11.1400

*** Psi4 exiting successfully. Buy a developer a beer!
