                               Psi4 1.4a3.dev225

  ==> Input File <==

--------------------------------------------------------------------------
#psi4
#
memory 32 gb

molecule  {
-1 1
  O        1.8724200    -0.7415990     0.3394840
  O        2.1027790     1.3758310    -0.4300950
  O       -3.3072830    -0.3512340    -0.9359590
  O       -2.5979240    -0.0254400     1.2183870
  C       -0.0530340     0.6334400     0.4456770
  C       -0.9697120    -0.0967620    -0.5425230
  C        1.3896910     0.5173160     0.0754460
  C       -2.4534200    -0.1528480    -0.0313600
  C        3.2289120    -0.9370400    -0.0704660
  H       -0.2424870     0.2042160     1.4320630
  H       -0.3042490     1.6964080     0.4822290
  H       -0.9505240     0.3810480    -1.5282220
  H       -0.6173950    -1.1275390    -0.6764200
  H        3.4410959    -1.8748246     0.1659086
  H        3.8993660    -0.2498350     0.4514950
  H        3.3382080    -0.7798600    -1.1461020
units angstrom
no_reorient  #important for SAPT in psi4, default
symmetry c1  #important for SAPT in psi4, default
}

set PROPERTIES_ORIGIN ["COM"]
properties('MP2/aug-cc-pvtz', properties = ['dipole'])
--------------------------------------------------------------------------

    Molecular point group: c1
  Charge       = -1
  Multiplicity = 1
  Basis Set: AUG-CC-PVTZ
    Blend: AUG-CC-PVTZ
  Basis Set: (AUG-CC-PVTZ AUX)
    Blend: AUG-CC-PVTZ-JKFIT

    Orbital Energies [Eh]
    ---------------------

    Doubly Occupied:

       1A    -20.494980     2A    -20.433895     3A    -20.308763
       4A    -20.306243     5A    -11.265492     6A    -11.178219
       7A    -11.154423     8A    -11.100246     9A    -11.079270
      10A     -1.341400    11A     -1.239063    12A     -1.177195
      13A     -1.081030    14A     -0.936703    15A     -0.867141
      16A     -0.757910    17A     -0.661337    18A     -0.579978
      19A     -0.568863    20A     -0.563731    21A     -0.530770
      22A     -0.491972    23A     -0.470465    24A     -0.452666
      25A     -0.433879    26A     -0.419181    27A     -0.411062
      28A     -0.386578    29A     -0.359974    30A     -0.352489
      31A     -0.337450    32A     -0.327285    33A     -0.225624
      34A     -0.209016    35A     -0.207917

  @DF-RHF Final Energy:  -493.10223167199422

   => Energetics <=

    Nuclear Repulsion Energy =            435.6144750355263682
    One-Electron Energy =               -1552.0089881318490370
    Two-Electron Energy =                 623.2922814243285075
    Total Energy =                       -493.1022316719942182
  Basis Set: (AUG-CC-PVTZ AUX)
    Blend: AUG-CC-PVTZ-RI
    Molecular point group: c1

    Geometry (in Angstrom), charge = -1, multiplicity = 1:

       Center              X                  Y                   Z               Mass
    ------------   -----------------  -----------------  -----------------  -----------------
         O            1.937517702500    -0.756288320460     0.333654028168    15.994914619570
         O            2.167876702500     1.361141679540    -0.435924971832    15.994914619570
         O           -3.242185297500    -0.365923320460    -0.941788971832    15.994914619570
         O           -2.532826297500    -0.040129320460     1.212557028168    15.994914619570
         C            0.012063702500     0.618750679540     0.439847028168    12.000000000000
         C           -0.904614297500    -0.111451320460    -0.548352971832    12.000000000000
         C            1.454788702500     0.502626679540     0.069616028168    12.000000000000
         C           -2.388322297500    -0.167537320460    -0.037189971832    12.000000000000
         C            3.294009702500    -0.951729320460    -0.076295971832    12.000000000000
         H           -0.177389297500     0.189526679540     1.426233028168     1.007825032230
         H           -0.239151297500     1.681718679540     0.476399028168     1.007825032230
         H           -0.885426297500     0.366358679540    -1.534051971832     1.007825032230
         H           -0.552297297500    -1.142228320460    -0.682249971832     1.007825032230
         H            3.506193602500    -1.889513920460     0.160078628168     1.007825032230
         H            3.964463702500    -0.264524320460     0.445665028168     1.007825032230
         H            3.403305702500    -0.794549320460    -1.151931971832     1.007825032230

  Basis Set: AUG-CC-PVTZ
    Blend: AUG-CC-PVTZ
  Basis Set: (AUG-CC-PVTZ AUX)
    Blend: AUG-CC-PVTZ-JKFIT
	 Reference Energy          =    -493.1022316719942182 [Eh]
	 Singles Energy            =      -0.0000000000000000 [Eh]
	 Same-Spin Energy          =      -0.4837889347473079 [Eh]
	 Opposite-Spin Energy      =      -1.4755060681104242 [Eh]
	 Correlation Energy        =      -1.9592950028577321 [Eh]
	 Total Energy              =    -495.0615266748519616 [Eh]

	 ================> DF-SCS-MP2 Energies <==================
	-----------------------------------------------------------
	 SCS Same-Spin Scale       =       0.3333333333333333 [-]
	 SCS Opposite-Spin Scale   =       1.2000000000000000 [-]
	 SCS Same-Spin Energy      =      -0.1612629782491026 [Eh]
	 SCS Opposite-Spin Energy  =      -1.7706072817325089 [Eh]
	 SCS Correlation Energy    =      -1.9318702599816115 [Eh]
	 SCS Total Energy          =    -495.0341019319758402 [Eh]
	-----------------------------------------------------------

  Dipole Moment: [D]
     X:    11.3866      Y:    -0.7791      Z:    -0.0800     Total:    11.4135

*** Psi4 exiting successfully. Buy a developer a beer!
