                               Psi4 1.4a3.dev225

  ==> Input File <==

--------------------------------------------------------------------------
#psi4
#
memory 32 gb

molecule  {
-1 1
  O        1.8724200    -0.7415990     0.3394840
  O        2.1027790     1.3758310    -0.4300950
  O       -3.3072830    -0.3512340    -0.9359590
  O       -2.5979240    -0.0254400     1.2183870
  C       -0.0530340     0.6334400     0.4456770
  C       -0.9697120    -0.0967620    -0.5425230
  C        1.3896910     0.5173160     0.0754460
  C       -2.4508681    -0.2075778    -0.0328965
  C        3.2289120    -0.9370400    -0.0704660
  H       -0.2424870     0.2042160     1.4320630
  H       -0.3042490     1.6964080     0.4822290
  H       -0.9505240     0.3810480    -1.5282220
  H       -0.6173950    -1.1275390    -0.6764200
  H        3.4625260    -1.9695390     0.1897820
  H        3.8993660    -0.2498350     0.4514950
  H        3.3382080    -0.7798600    -1.1461020
units angstrom
no_reorient  #important for SAPT in psi4, default
symmetry c1  #important for SAPT in psi4, default
}

set PROPERTIES_ORIGIN ["COM"]
properties('MP2/aug-cc-pvtz', properties = ['dipole'])
--------------------------------------------------------------------------

    Molecular point group: c1
  Charge       = -1
  Multiplicity = 1
  Basis Set: AUG-CC-PVTZ
    Blend: AUG-CC-PVTZ
  Basis Set: (AUG-CC-PVTZ AUX)
    Blend: AUG-CC-PVTZ-JKFIT

    Orbital Energies [Eh]
    ---------------------

    Doubly Occupied:

       1A    -20.496075     2A    -20.434869     3A    -20.308401
       4A    -20.307045     5A    -11.266515     6A    -11.190925
       7A    -11.155001     8A    -11.100863     9A    -11.079463
      10A     -1.342269    11A     -1.239792    12A     -1.177309
      13A     -1.080500    14A     -0.935104    15A     -0.857113
      16A     -0.757107    17A     -0.662206    18A     -0.576596
      19A     -0.568603    20A     -0.560888    21A     -0.530222
      22A     -0.487575    23A     -0.465849    24A     -0.452054
      25A     -0.431008    26A     -0.418987    27A     -0.411570
      28A     -0.387005    29A     -0.360505    30A     -0.352821
      31A     -0.337626    32A     -0.327704    33A     -0.225395
      34A     -0.209101    35A     -0.207893

  @DF-RHF Final Energy:  -493.10699996805232

   => Energetics <=

    Nuclear Repulsion Energy =            435.0401872408154418
    One-Electron Energy =               -1550.8904538733090703
    Two-Electron Energy =                 622.7432666644413075
    Total Energy =                       -493.1069999680523779
  Basis Set: (AUG-CC-PVTZ AUX)
    Blend: AUG-CC-PVTZ-RI
    Molecular point group: c1

    Geometry (in Angstrom), charge = -1, multiplicity = 1:

       Center              X                  Y                   Z               Mass
    ------------   -----------------  -----------------  -----------------  -----------------
         O            1.937119176786    -0.750547744324     0.333611121812    15.994914619570
         O            2.167478176786     1.366882255676    -0.435967878188    15.994914619570
         O           -3.242583823214    -0.360182744324    -0.941831878188    15.994914619570
         O           -2.533224823214    -0.034388744324     1.212514121812    15.994914619570
         C            0.011665176786     0.624491255676     0.439804121812    12.000000000000
         C           -0.905012823214    -0.105710744324    -0.548395878188    12.000000000000
         C            1.454390176786     0.508367255676     0.069573121812    12.000000000000
         C           -2.386168923214    -0.216526544324    -0.038769378188    12.000000000000
         C            3.293611176786    -0.945988744324    -0.076338878188    12.000000000000
         H           -0.177787823214     0.195267255676     1.426190121812     1.007825032230
         H           -0.239549823214     1.687459255676     0.476356121812     1.007825032230
         H           -0.885824823214     0.372099255676    -1.534094878188     1.007825032230
         H           -0.552695823214    -1.136487744324    -0.682292878188     1.007825032230
         H            3.527225176786    -1.978487744324     0.183909121812     1.007825032230
         H            3.964065176786    -0.258783744324     0.445622121812     1.007825032230
         H            3.402907176786    -0.788808744324    -1.151974878188     1.007825032230

  Basis Set: AUG-CC-PVTZ
    Blend: AUG-CC-PVTZ
  Basis Set: (AUG-CC-PVTZ AUX)
    Blend: AUG-CC-PVTZ-JKFIT
	 Reference Energy          =    -493.1069999680523210 [Eh]
	 Singles Energy            =      -0.0000000000000000 [Eh]
	 Same-Spin Energy          =      -0.4838170906420660 [Eh]
	 Opposite-Spin Energy      =      -1.4761097707021213 [Eh]
	 Correlation Energy        =      -1.9599268613441874 [Eh]
	 Total Energy              =    -495.0669268293964933 [Eh]

	 ================> DF-SCS-MP2 Energies <==================
	-----------------------------------------------------------
	 SCS Same-Spin Scale       =       0.3333333333333333 [-]
	 SCS Opposite-Spin Scale   =       1.2000000000000000 [-]
	 SCS Same-Spin Energy      =      -0.1612723635473553 [Eh]
	 SCS Opposite-Spin Energy  =      -1.7713317248425455 [Eh]
	 SCS Correlation Energy    =      -1.9326040883899009 [Eh]
	 SCS Total Energy          =    -495.0396040564422151 [Eh]
	-----------------------------------------------------------

  Dipole Moment: [D]
     X:    11.3243      Y:    -0.7660      Z:    -0.1635     Total:    11.3513

*** Psi4 exiting successfully. Buy a developer a beer!
