                               Psi4 1.4a3.dev225

  ==> Input File <==

--------------------------------------------------------------------------
#psi4
#
memory 32 gb

molecule  {
-1 1
  O        1.8724200    -0.7415990     0.3394840
  O        2.1027790     1.3758310    -0.4300950
  O       -3.3072830    -0.3512340    -0.9359590
  O       -2.5979240    -0.0254400     1.2183870
  C       -0.0530340     0.6334400     0.4456770
  C       -0.9697120    -0.0967620    -0.5425230
  C        1.2732874     0.3771731     0.1579699
  C       -2.4534200    -0.1528480    -0.0313600
  C        3.2289120    -0.9370400    -0.0704660
  H       -0.2424870     0.2042160     1.4320630
  H       -0.3042490     1.6964080     0.4822290
  H       -0.9505240     0.3810480    -1.5282220
  H       -0.6173950    -1.1275390    -0.6764200
  H        3.4625260    -1.9695390     0.1897820
  H        3.8993660    -0.2498350     0.4514950
  H        3.3382080    -0.7798600    -1.1461020
units angstrom
no_reorient  #important for SAPT in psi4, default
symmetry c1  #important for SAPT in psi4, default
}

set PROPERTIES_ORIGIN ["COM"]
properties('MP2/aug-cc-pvtz', properties = ['dipole'])
--------------------------------------------------------------------------

    Molecular point group: c1
  Charge       = -1
  Multiplicity = 1
  Basis Set: AUG-CC-PVTZ
    Blend: AUG-CC-PVTZ
  Basis Set: (AUG-CC-PVTZ AUX)
    Blend: AUG-CC-PVTZ-JKFIT

    Orbital Energies [Eh]
    ---------------------

    Doubly Occupied:

       1A    -20.521799     2A    -20.392289     3A    -20.314822
       4A    -20.312203     5A    -11.276420     6A    -11.204266
       7A    -11.160983     8A    -11.102725     9A    -11.090458
      10A     -1.373645    11A     -1.183300    12A     -1.125141
      13A     -1.086992    14A     -0.970688    15A     -0.885060
      16A     -0.778240    17A     -0.680574    18A     -0.591843
      19A     -0.579957    20A     -0.554445    21A     -0.535247
      22A     -0.494676    23A     -0.472680    24A     -0.454529
      25A     -0.428023    26A     -0.417491    27A     -0.407823
      28A     -0.375778    29A     -0.368452    30A     -0.338541
      31A     -0.302646    32A     -0.296593    33A     -0.231229
      34A     -0.215569    35A     -0.213585

  @DF-RHF Final Energy:  -493.04510713019215

   => Energetics <=

    Nuclear Repulsion Energy =            435.5854611691549962
    One-Electron Energy =               -1551.7837124239331388
    Two-Electron Energy =                 623.1531441245859924
    Total Energy =                       -493.0451071301921502
  Basis Set: (AUG-CC-PVTZ AUX)
    Blend: AUG-CC-PVTZ-RI
    Molecular point group: c1

    Geometry (in Angstrom), charge = -1, multiplicity = 1:

       Center              X                  Y                   Z               Mass
    ------------   -----------------  -----------------  -----------------  -----------------
         O            1.948013000338    -0.742725699606     0.325912955983    15.994914619570
         O            2.178372000338     1.374704300394    -0.443666044017    15.994914619570
         O           -3.231689999662    -0.352360699606    -0.949530044017    15.994914619570
         O           -2.522330999662    -0.026566699606     1.204815955983    15.994914619570
         C            0.022559000338     0.632313300394     0.432105955983    12.000000000000
         C           -0.894118999662    -0.097888699606    -0.556094044017    12.000000000000
         C            1.348880400338     0.376046400394     0.144398855983    12.000000000000
         C           -2.377826999662    -0.153974699606    -0.044931044017    12.000000000000
         C            3.304505000338    -0.938166699606    -0.084037044017    12.000000000000
         H           -0.166893999662     0.203089300394     1.418491955983     1.007825032230
         H           -0.228655999662     1.695281300394     0.468657955983     1.007825032230
         H           -0.874930999662     0.379921300394    -1.541793044017     1.007825032230
         H           -0.541801999662    -1.128665699606    -0.689991044017     1.007825032230
         H            3.538119000338    -1.970665699606     0.176210955983     1.007825032230
         H            3.974959000338    -0.250961699606     0.437923955983     1.007825032230
         H            3.413801000338    -0.780986699606    -1.159673044017     1.007825032230

  Basis Set: AUG-CC-PVTZ
    Blend: AUG-CC-PVTZ
  Basis Set: (AUG-CC-PVTZ AUX)
    Blend: AUG-CC-PVTZ-JKFIT
	 Reference Energy          =    -493.0451071301921502 [Eh]
	 Singles Energy            =      -0.0000000000000000 [Eh]
	 Same-Spin Energy          =      -0.4882627785634517 [Eh]
	 Opposite-Spin Energy      =      -1.4836636540801635 [Eh]
	 Correlation Energy        =      -1.9719264326436152 [Eh]
	 Total Energy              =    -495.0170335628357634 [Eh]

	 ================> DF-SCS-MP2 Energies <==================
	-----------------------------------------------------------
	 SCS Same-Spin Scale       =       0.3333333333333333 [-]
	 SCS Opposite-Spin Scale   =       1.2000000000000000 [-]
	 SCS Same-Spin Energy      =      -0.1627542595211506 [Eh]
	 SCS Opposite-Spin Energy  =      -1.7803963848961961 [Eh]
	 SCS Correlation Energy    =      -1.9431506444173468 [Eh]
	 SCS Total Energy          =    -494.9882577746095080 [Eh]
	-----------------------------------------------------------

  Dipole Moment: [D]
     X:    10.6449      Y:    -1.9506      Z:     0.3718     Total:    10.8285

*** Psi4 exiting successfully. Buy a developer a beer!
