                               Psi4 1.4a3.dev225

  ==> Input File <==

--------------------------------------------------------------------------
#psi4
#
memory 32 gb

molecule  {
-1 1
  O        1.8724200    -0.7415990     0.3394840
  O        2.1027790     1.3758310    -0.4300950
  O       -3.3072830    -0.3512340    -0.9359590
  O       -2.5979240    -0.0254400     1.2183870
  C       -0.0119576     0.6248356     0.4124829
  C       -0.9697120    -0.0967620    -0.5425230
  C        1.3896910     0.5173160     0.0754460
  C       -2.4534200    -0.1528480    -0.0313600
  C        3.2289120    -0.9370400    -0.0704660
  H       -0.2424870     0.2042160     1.4320630
  H       -0.3042490     1.6964080     0.4822290
  H       -0.9505240     0.3810480    -1.5282220
  H       -0.6173950    -1.1275390    -0.6764200
  H        3.4625260    -1.9695390     0.1897820
  H        3.8993660    -0.2498350     0.4514950
  H        3.3382080    -0.7798600    -1.1461020
units angstrom
no_reorient  #important for SAPT in psi4, default
symmetry c1  #important for SAPT in psi4, default
}

set PROPERTIES_ORIGIN ["COM"]
properties('MP2/aug-cc-pvtz', properties = ['dipole'])
--------------------------------------------------------------------------

    Molecular point group: c1
  Charge       = -1
  Multiplicity = 1
  Basis Set: AUG-CC-PVTZ
    Blend: AUG-CC-PVTZ
  Basis Set: (AUG-CC-PVTZ AUX)
    Blend: AUG-CC-PVTZ-JKFIT

    Orbital Energies [Eh]
    ---------------------

    Doubly Occupied:

       1A    -20.495920     2A    -20.434221     3A    -20.309872
       4A    -20.307684     5A    -11.265405     6A    -11.190931
       7A    -11.156255     8A    -11.101085     9A    -11.081162
      10A     -1.343183    11A     -1.240069    12A     -1.178238
      13A     -1.082077    14A     -0.941549    15A     -0.856931
      16A     -0.762262    17A     -0.660921    18A     -0.577580
      19A     -0.569793    20A     -0.561239    21A     -0.531778
      22A     -0.486721    23A     -0.465674    24A     -0.454125
      25A     -0.431514    26A     -0.422047    27A     -0.410760
      28A     -0.382072    29A     -0.360161    30A     -0.348761
      31A     -0.340161    32A     -0.325873    33A     -0.226671
      34A     -0.211191    35A     -0.208972

  @DF-RHF Final Energy:  -493.10441044721824

   => Energetics <=

    Nuclear Repulsion Energy =            435.6114163613176515
    One-Electron Energy =               -1551.9859359308386502
    Two-Electron Energy =                 623.2701091223027561
    Total Energy =                       -493.1044104472182426
  Basis Set: (AUG-CC-PVTZ AUX)
    Blend: AUG-CC-PVTZ-RI
    Molecular point group: c1

    Geometry (in Angstrom), charge = -1, multiplicity = 1:

       Center              X                  Y                   Z               Mass
    ------------   -----------------  -----------------  -----------------  -----------------
         O            1.933591142307    -0.754771861484     0.336510292582    15.994914619570
         O            2.163950142307     1.362658138516    -0.433068707418    15.994914619570
         O           -3.246111857693    -0.364406861484    -0.938932707418    15.994914619570
         O           -2.536752857693    -0.038612861484     1.215413292582    15.994914619570
         C            0.049213542307     0.611662738516     0.409509192582    12.000000000000
         C           -0.908540857693    -0.109934861484    -0.545496707418    12.000000000000
         C            1.450862142307     0.504143138516     0.072472292582    12.000000000000
         C           -2.392248857693    -0.166020861484    -0.034333707418    12.000000000000
         C            3.290083142307    -0.950212861484    -0.073439707418    12.000000000000
         H           -0.181315857693     0.191043138516     1.429089292582     1.007825032230
         H           -0.243077857693     1.683235138516     0.479255292582     1.007825032230
         H           -0.889352857693     0.367875138516    -1.531195707418     1.007825032230
         H           -0.556223857693    -1.140711861484    -0.679393707418     1.007825032230
         H            3.523697142307    -1.982711861484     0.186808292582     1.007825032230
         H            3.960537142307    -0.263007861484     0.448521292582     1.007825032230
         H            3.399379142307    -0.793032861484    -1.149075707418     1.007825032230

  Basis Set: AUG-CC-PVTZ
    Blend: AUG-CC-PVTZ
  Basis Set: (AUG-CC-PVTZ AUX)
    Blend: AUG-CC-PVTZ-JKFIT
	 Reference Energy          =    -493.1044104472182426 [Eh]
	 Singles Energy            =      -0.0000000000000000 [Eh]
	 Same-Spin Energy          =      -0.4843614995730969 [Eh]
	 Opposite-Spin Energy      =      -1.4767564635220183 [Eh]
	 Correlation Energy        =      -1.9611179630951152 [Eh]
	 Total Energy              =    -495.0655284103133340 [Eh]

	 ================> DF-SCS-MP2 Energies <==================
	-----------------------------------------------------------
	 SCS Same-Spin Scale       =       0.3333333333333333 [-]
	 SCS Opposite-Spin Scale   =       1.2000000000000000 [-]
	 SCS Same-Spin Energy      =      -0.1614538331910323 [Eh]
	 SCS Opposite-Spin Energy  =      -1.7721077562264218 [Eh]
	 SCS Correlation Energy    =      -1.9335615894174540 [Eh]
	 SCS Total Energy          =    -495.0379720366357219 [Eh]
	-----------------------------------------------------------

  Dipole Moment: [D]
     X:    11.2731      Y:    -0.7483      Z:    -0.1003     Total:    11.2984

*** Psi4 exiting successfully. Buy a developer a beer!
