                               Psi4 1.4a3.dev225

  ==> Input File <==

--------------------------------------------------------------------------
#psi4
#
memory 32 gb

molecule  {
-1 1
  O        1.8724200    -0.7415990     0.3394840
  O        2.1027790     1.3758310    -0.4300950
  O       -3.3072830    -0.3512340    -0.9359590
  O       -2.5979240    -0.0254400     1.2183870
  C       -0.0530340     0.6334400     0.4456770
  C       -0.9697120    -0.0967620    -0.5425230
  C        1.3896910     0.5173160     0.0754460
  C       -2.4534200    -0.1528480    -0.0313600
  C        3.2289120    -0.9370400    -0.0704660
  H       -0.2424870     0.2042160     1.4320630
  H       -0.3042490     1.6964080     0.4822290
  H       -0.9505240     0.3810480    -1.5282220
  H       -0.6173950    -1.1275390    -0.6764200
  H        3.4518109    -1.9221818     0.1778453
  H        3.8993660    -0.2498350     0.4514950
  H        3.3382080    -0.7798600    -1.1461020
units angstrom
no_reorient  #important for SAPT in psi4, default
symmetry c1  #important for SAPT in psi4, default
}

set PROPERTIES_ORIGIN ["COM"]
properties('MP2/aug-cc-pvtz', properties = ['dipole'])
--------------------------------------------------------------------------

    Molecular point group: c1
  Charge       = -1
  Multiplicity = 1
  Basis Set: AUG-CC-PVTZ
    Blend: AUG-CC-PVTZ
  Basis Set: (AUG-CC-PVTZ AUX)
    Blend: AUG-CC-PVTZ-JKFIT

    Orbital Energies [Eh]
    ---------------------

    Doubly Occupied:

       1A    -20.495537     2A    -20.434296     3A    -20.308868
       4A    -20.306342     5A    -11.265930     6A    -11.184632
       7A    -11.154538     8A    -11.100489     9A    -11.079423
      10A     -1.341814    11A     -1.239374    12A     -1.177297
      13A     -1.081132    14A     -0.935883    15A     -0.861819
      16A     -0.757243    17A     -0.661716    18A     -0.577917
      19A     -0.568698    20A     -0.562463    21A     -0.530581
      22A     -0.489676    23A     -0.468424    24A     -0.452470
      25A     -0.432778    26A     -0.419192    27A     -0.411197
      28A     -0.386697    29A     -0.360313    30A     -0.352753
      31A     -0.337709    32A     -0.327473    33A     -0.225728
      34A     -0.209130    35A     -0.208014

  @DF-RHF Final Energy:  -493.10743778974404

   => Energetics <=

    Nuclear Repulsion Energy =            435.3580802760956203
    One-Electron Energy =               -1551.5159449215864242
    Two-Electron Energy =                 623.0504268557468777
    Total Energy =                       -493.1074377897440399
  Basis Set: (AUG-CC-PVTZ AUX)
    Blend: AUG-CC-PVTZ-RI
    Molecular point group: c1

    Geometry (in Angstrom), charge = -1, multiplicity = 1:

       Center              X                  Y                   Z               Mass
    ------------   -----------------  -----------------  -----------------  -----------------
         O            1.937435290229    -0.755924082067     0.333562219438    15.994914619570
         O            2.167794290229     1.361505917933    -0.436016780562    15.994914619570
         O           -3.242267709771    -0.365559082067    -0.941880780562    15.994914619570
         O           -2.532908709771    -0.039765082067     1.212465219438    15.994914619570
         C            0.011981290229     0.619114917933     0.439755219438    12.000000000000
         C           -0.904696709771    -0.111087082067    -0.548444780562    12.000000000000
         C            1.454706290229     0.502990917933     0.069524219438    12.000000000000
         C           -2.388404709771    -0.167173082067    -0.037281780562    12.000000000000
         C            3.293927290229    -0.951365082067    -0.076387780562    12.000000000000
         H           -0.177471709771     0.189890917933     1.426141219438     1.007825032230
         H           -0.239233709771     1.682082917933     0.476307219438     1.007825032230
         H           -0.885508709771     0.366722917933    -1.534143780562     1.007825032230
         H           -0.552379709771    -1.141864082067    -0.682341780562     1.007825032230
         H            3.516826190229    -1.936506882067     0.171923519438     1.007825032230
         H            3.964381290229    -0.264160082067     0.445573219438     1.007825032230
         H            3.403223290229    -0.794185082067    -1.152023780562     1.007825032230

  Basis Set: AUG-CC-PVTZ
    Blend: AUG-CC-PVTZ
  Basis Set: (AUG-CC-PVTZ AUX)
    Blend: AUG-CC-PVTZ-JKFIT
	 Reference Energy          =    -493.1074377897440399 [Eh]
	 Singles Energy            =      -0.0000000000000000 [Eh]
	 Same-Spin Energy          =      -0.4837602346812163 [Eh]
	 Opposite-Spin Energy      =      -1.4757025766535870 [Eh]
	 Correlation Energy        =      -1.9594628113348032 [Eh]
	 Total Energy              =    -495.0669006010788280 [Eh]

	 ================> DF-SCS-MP2 Energies <==================
	-----------------------------------------------------------
	 SCS Same-Spin Scale       =       0.3333333333333333 [-]
	 SCS Opposite-Spin Scale   =       1.2000000000000000 [-]
	 SCS Same-Spin Energy      =      -0.1612534115604054 [Eh]
	 SCS Opposite-Spin Energy  =      -1.7708430919843043 [Eh]
	 SCS Correlation Energy    =      -1.9320965035447097 [Eh]
	 SCS Total Energy          =    -495.0395342932887388 [Eh]
	-----------------------------------------------------------

  Dipole Moment: [D]
     X:    11.3663      Y:    -0.7566      Z:    -0.0822     Total:    11.3918

*** Psi4 exiting successfully. Buy a developer a beer!
