                               Psi4 1.4a3.dev225

  ==> Input File <==

--------------------------------------------------------------------------
#psi4
#
memory 32 gb

molecule  {
-1 1
  O        1.8724200    -0.7415990     0.3394840
  O        2.1027790     1.3758310    -0.4300950
  O       -3.3072830    -0.3512340    -0.9359590
  O       -2.5979240    -0.0254400     1.2183870
  C       -0.0530340     0.6334400     0.4456770
  C       -0.9570869    -0.1196803    -0.5369373
  C        1.3896910     0.5173160     0.0754460
  C       -2.4534200    -0.1528480    -0.0313600
  C        3.2289120    -0.9370400    -0.0704660
  H       -0.2424870     0.2042160     1.4320630
  H       -0.3042490     1.6964080     0.4822290
  H       -0.9505240     0.3810480    -1.5282220
  H       -0.6173950    -1.1275390    -0.6764200
  H        3.4625260    -1.9695390     0.1897820
  H        3.8993660    -0.2498350     0.4514950
  H        3.3382080    -0.7798600    -1.1461020
units angstrom
no_reorient  #important for SAPT in psi4, default
symmetry c1  #important for SAPT in psi4, default
}

set PROPERTIES_ORIGIN ["COM"]
properties('MP2/aug-cc-pvtz', properties = ['dipole'])
--------------------------------------------------------------------------

    Molecular point group: c1
  Charge       = -1
  Multiplicity = 1
  Basis Set: AUG-CC-PVTZ
    Blend: AUG-CC-PVTZ
  Basis Set: (AUG-CC-PVTZ AUX)
    Blend: AUG-CC-PVTZ-JKFIT

    Orbital Energies [Eh]
    ---------------------

    Doubly Occupied:

       1A    -20.495985     2A    -20.434432     3A    -20.309227
       4A    -20.306977     5A    -11.266054     6A    -11.190875
       7A    -11.155283     8A    -11.100809     9A    -11.078825
      10A     -1.342125    11A     -1.239524    12A     -1.177364
      13A     -1.081404    14A     -0.935486    15A     -0.856977
      16A     -0.756287    17A     -0.662084    18A     -0.576743
      19A     -0.568745    20A     -0.560691    21A     -0.529437
      22A     -0.487874    23A     -0.466969    24A     -0.451797
      25A     -0.430812    26A     -0.418292    27A     -0.411364
      28A     -0.389518    29A     -0.360094    30A     -0.351104
      31A     -0.339090    32A     -0.328776    33A     -0.225920
      34A     -0.208524    35A     -0.208115

  @DF-RHF Final Energy:  -493.10759522721236

   => Energetics <=

    Nuclear Repulsion Energy =            435.0976566497536169
    One-Electron Energy =               -1551.0033396143141999
    Two-Electron Energy =                 622.7980877373481690
    Total Energy =                       -493.1075952272124141
  Basis Set: (AUG-CC-PVTZ AUX)
    Blend: AUG-CC-PVTZ-RI
    Molecular point group: c1

    Geometry (in Angstrom), charge = -1, multiplicity = 1:

       Center              X                  Y                   Z               Mass
    ------------   -----------------  -----------------  -----------------  -----------------
         O            1.936196683388    -0.753461009098     0.332958877989    15.994914619570
         O            2.166555683388     1.363968990902    -0.436620122011    15.994914619570
         O           -3.243506316612    -0.363096009098    -0.942484122011    15.994914619570
         O           -2.534147316612    -0.037302009098     1.211861877989    15.994914619570
         C            0.010742683388     0.621577990902     0.439151877989    12.000000000000
         C           -0.893310216612    -0.131542309098    -0.543462422011    12.000000000000
         C            1.453467683388     0.505453990902     0.068920877989    12.000000000000
         C           -2.389643316612    -0.164710009098    -0.037885122011    12.000000000000
         C            3.292688683388    -0.948902009098    -0.076991122011    12.000000000000
         H           -0.178710316612     0.192353990902     1.425537877989     1.007825032230
         H           -0.240472316612     1.684545990902     0.475703877989     1.007825032230
         H           -0.886747316612     0.369185990902    -1.534747122011     1.007825032230
         H           -0.553618316612    -1.139401009098    -0.682945122011     1.007825032230
         H            3.526302683388    -1.981401009098     0.183256877989     1.007825032230
         H            3.963142683388    -0.261697009098     0.444969877989     1.007825032230
         H            3.401984683388    -0.791722009098    -1.152627122011     1.007825032230

  Basis Set: AUG-CC-PVTZ
    Blend: AUG-CC-PVTZ
  Basis Set: (AUG-CC-PVTZ AUX)
    Blend: AUG-CC-PVTZ-JKFIT
	 Reference Energy          =    -493.1075952272123573 [Eh]
	 Singles Energy            =      -0.0000000000000000 [Eh]
	 Same-Spin Energy          =      -0.4837755061915435 [Eh]
	 Opposite-Spin Energy      =      -1.4760540657490333 [Eh]
	 Correlation Energy        =      -1.9598295719405767 [Eh]
	 Total Energy              =    -495.0674247991529455 [Eh]

	 ================> DF-SCS-MP2 Energies <==================
	-----------------------------------------------------------
	 SCS Same-Spin Scale       =       0.3333333333333333 [-]
	 SCS Opposite-Spin Scale   =       1.2000000000000000 [-]
	 SCS Same-Spin Energy      =      -0.1612585020638478 [Eh]
	 SCS Opposite-Spin Energy  =      -1.7712648788988399 [Eh]
	 SCS Correlation Energy    =      -1.9325233809626876 [Eh]
	 SCS Total Energy          =    -495.0401186081750211 [Eh]
	-----------------------------------------------------------

  Dipole Moment: [D]
     X:    11.3176      Y:    -0.7618      Z:    -0.0665     Total:    11.3434

*** Psi4 exiting successfully. Buy a developer a beer!
