                               Psi4 1.4a3.dev225

  ==> Input File <==

--------------------------------------------------------------------------
#psi4
#
memory 32 gb

molecule  {
-1 1
  O        1.8724200    -0.7415990     0.3394840
  O        2.1027790     1.3758310    -0.4300950
  O       -3.3072830    -0.3512340    -0.9359590
  O       -2.5979240    -0.0254400     1.2183870
  C       -0.0530340     0.6334400     0.4456770
  C       -0.9697120    -0.0967620    -0.5425230
  C        1.3896910     0.5173160     0.0754460
  C       -2.4534200    -0.1528480    -0.0313600
  C        3.2289120    -0.9370400    -0.0704660
  H       -0.2424870     0.2042160     1.4320630
  H       -0.3042490     1.6964080     0.4822290
  H       -0.9505240     0.3810480    -1.5282220
  H       -0.6173950    -1.1275390    -0.6764200
  H        3.5053863    -2.1589677     0.2375287
  H        3.8993660    -0.2498350     0.4514950
  H        3.3382080    -0.7798600    -1.1461020
units angstrom
no_reorient  #important for SAPT in psi4, default
symmetry c1  #important for SAPT in psi4, default
}

set PROPERTIES_ORIGIN ["COM"]
properties('MP2/aug-cc-pvtz', properties = ['dipole'])
--------------------------------------------------------------------------

    Molecular point group: c1
  Charge       = -1
  Multiplicity = 1
  Basis Set: AUG-CC-PVTZ
    Blend: AUG-CC-PVTZ
  Basis Set: (AUG-CC-PVTZ AUX)
    Blend: AUG-CC-PVTZ-JKFIT

    Orbital Energies [Eh]
    ---------------------

    Doubly Occupied:

       1A    -20.499716     2A    -20.437184     3A    -20.309637
       4A    -20.307069     5A    -11.269186     6A    -11.214954
       7A    -11.155379     8A    -11.102272     9A    -11.080553
      10A     -1.345245    11A     -1.242202    12A     -1.178056
      13A     -1.081880    14A     -0.935304    15A     -0.846288
      16A     -0.755524    17A     -0.664711    18A     -0.577356
      19A     -0.571135    20A     -0.555543    21A     -0.530287
      22A     -0.484908    23A     -0.460942    24A     -0.450189
      25A     -0.424308    26A     -0.413414    27A     -0.408491
      28A     -0.386954    29A     -0.363031    30A     -0.354601
      31A     -0.339608    32A     -0.328811    33A     -0.226493
      34A     -0.209970    35A     -0.208725

  @DF-RHF Final Energy:  -493.08802146232244

   => Energetics <=

    Nuclear Repulsion Energy =            434.2848022301798778
    One-Electron Energy =               -1549.3057899169002667
    Two-Electron Energy =                 621.9329662243980010
    Total Energy =                       -493.0880214623224447
  Basis Set: (AUG-CC-PVTZ AUX)
    Blend: AUG-CC-PVTZ-RI
    Molecular point group: c1

    Geometry (in Angstrom), charge = -1, multiplicity = 1:

       Center              X                  Y                   Z               Mass
    ------------   -----------------  -----------------  -----------------  -----------------
         O            1.937023225799    -0.754102890869     0.333103176552    15.994914619570
         O            2.167382225799     1.363327109131    -0.436475823448    15.994914619570
         O           -3.242679774201    -0.363737890869    -0.942339823448    15.994914619570
         O           -2.533320774201    -0.037943890869     1.212006176552    15.994914619570
         C            0.011569225799     0.620936109131     0.439296176552    12.000000000000
         C           -0.905108774201    -0.109265890869    -0.548903823448    12.000000000000
         C            1.454294225799     0.504812109131     0.069065176552    12.000000000000
         C           -2.388816774201    -0.165351890869    -0.037740823448    12.000000000000
         C            3.293515225799    -0.949543890869    -0.076846823448    12.000000000000
         H           -0.177883774201     0.191712109131     1.425682176552     1.007825032230
         H           -0.239645774201     1.683904109131     0.475848176552     1.007825032230
         H           -0.885920774201     0.368544109131    -1.534602823448     1.007825032230
         H           -0.552791774201    -1.140042890869    -0.682800823448     1.007825032230
         H            3.569989525799    -2.171471590869     0.231147876552     1.007825032230
         H            3.963969225799    -0.262338890869     0.445114176552     1.007825032230
         H            3.402811225799    -0.792363890869    -1.152482823448     1.007825032230

  Basis Set: AUG-CC-PVTZ
    Blend: AUG-CC-PVTZ
  Basis Set: (AUG-CC-PVTZ AUX)
    Blend: AUG-CC-PVTZ-JKFIT
	 Reference Energy          =    -493.0880214623224447 [Eh]
	 Singles Energy            =      -0.0000000000000000 [Eh]
	 Same-Spin Energy          =      -0.4837228243553533 [Eh]
	 Opposite-Spin Energy      =      -1.4775738483560892 [Eh]
	 Correlation Energy        =      -1.9612966727114425 [Eh]
	 Total Energy              =    -495.0493181350339000 [Eh]

	 ================> DF-SCS-MP2 Energies <==================
	-----------------------------------------------------------
	 SCS Same-Spin Scale       =       0.3333333333333333 [-]
	 SCS Opposite-Spin Scale   =       1.2000000000000000 [-]
	 SCS Same-Spin Energy      =      -0.1612409414517844 [Eh]
	 SCS Opposite-Spin Energy  =      -1.7730886180273069 [Eh]
	 SCS Correlation Energy    =      -1.9343295594790912 [Eh]
	 SCS Total Energy          =    -495.0223510218015122 [Eh]
	-----------------------------------------------------------

  Dipole Moment: [D]
     X:    11.2263      Y:    -0.5756      Z:    -0.1065     Total:    11.2416

*** Psi4 exiting successfully. Buy a developer a beer!
