                               Psi4 1.4a3.dev225

  ==> Input File <==

--------------------------------------------------------------------------
#psi4
#
memory 32 gb

molecule  {
-1 1
  O        1.7416712    -0.7728010     0.3905941
  O        2.1027790     1.3758310    -0.4300950
  O       -3.3072830    -0.3512340    -0.9359590
  O       -2.5979240    -0.0254400     1.2183870
  C       -0.0530340     0.6334400     0.4456770
  C       -0.9697120    -0.0967620    -0.5425230
  C        1.3896910     0.5173160     0.0754460
  C       -2.4534200    -0.1528480    -0.0313600
  C        3.2289120    -0.9370400    -0.0704660
  H       -0.2424870     0.2042160     1.4320630
  H       -0.3042490     1.6964080     0.4822290
  H       -0.9505240     0.3810480    -1.5282220
  H       -0.6173950    -1.1275390    -0.6764200
  H        3.4625260    -1.9695390     0.1897820
  H        3.8993660    -0.2498350     0.4514950
  H        3.3382080    -0.7798600    -1.1461020
units angstrom
no_reorient  #important for SAPT in psi4, default
symmetry c1  #important for SAPT in psi4, default
}

set PROPERTIES_ORIGIN ["COM"]
properties('MP2/aug-cc-pvtz', properties = ['dipole'])
--------------------------------------------------------------------------

    Molecular point group: c1
  Charge       = -1
  Multiplicity = 1
  Basis Set: AUG-CC-PVTZ
    Blend: AUG-CC-PVTZ
  Basis Set: (AUG-CC-PVTZ AUX)
    Blend: AUG-CC-PVTZ-JKFIT

    Orbital Energies [Eh]
    ---------------------

    Doubly Occupied:

       1A    -20.503644     2A    -20.437487     3A    -20.305783
       4A    -20.303503     5A    -11.263797     6A    -11.205418
       7A    -11.151294     8A    -11.092116     9A    -11.075097
      10A     -1.324757    11A     -1.234062    12A     -1.174292
      13A     -1.078166    14A     -0.926551    15A     -0.854856
      16A     -0.754722    17A     -0.651226    18A     -0.571006
      19A     -0.560856    20A     -0.545973    21A     -0.524184
      22A     -0.484342    23A     -0.460258    24A     -0.457378
      25A     -0.435191    26A     -0.419542    27A     -0.409912
      28A     -0.380109    29A     -0.365824    30A     -0.350254
      31A     -0.333534    32A     -0.324144    33A     -0.222712
      34A     -0.205851    35A     -0.205114

  @DF-RHF Final Energy:  -493.08741079212604

   => Energetics <=

    Nuclear Repulsion Energy =            434.2405224475309069
    One-Electron Energy =               -1549.4699561686747984
    Two-Electron Energy =                 622.1420229290177986
    Total Energy =                       -493.0874107921259792
  Basis Set: (AUG-CC-PVTZ AUX)
    Blend: AUG-CC-PVTZ-RI
    Molecular point group: c1

    Geometry (in Angstrom), charge = -1, multiplicity = 1:

       Center              X                  Y                   Z               Mass
    ------------   -----------------  -----------------  -----------------  -----------------
         O            1.822564125502    -0.782953124760     0.378341679717    15.994914619570
         O            2.183671925502     1.365678875240    -0.442347420283    15.994914619570
         O           -3.226390074498    -0.361386124760    -0.948211420283    15.994914619570
         O           -2.517031074498    -0.035592124760     1.206134579717    15.994914619570
         C            0.027858925502     0.623287875240     0.433424579717    12.000000000000
         C           -0.888819074498    -0.106914124760    -0.554775420283    12.000000000000
         C            1.470583925502     0.507163875240     0.063193579717    12.000000000000
         C           -2.372527074498    -0.163000124760    -0.043612420283    12.000000000000
         C            3.309804925502    -0.947192124760    -0.082718420283    12.000000000000
         H           -0.161594074498     0.194063875240     1.419810579717     1.007825032230
         H           -0.223356074498     1.686255875240     0.469976579717     1.007825032230
         H           -0.869631074498     0.370895875240    -1.540474420283     1.007825032230
         H           -0.536502074498    -1.137691124760    -0.688672420283     1.007825032230
         H            3.543418925502    -1.979691124760     0.177529579717     1.007825032230
         H            3.980258925502    -0.259987124760     0.439242579717     1.007825032230
         H            3.419100925502    -0.790012124760    -1.158354420283     1.007825032230

  Basis Set: AUG-CC-PVTZ
    Blend: AUG-CC-PVTZ
  Basis Set: (AUG-CC-PVTZ AUX)
    Blend: AUG-CC-PVTZ-JKFIT
	 Reference Energy          =    -493.0874107921260361 [Eh]
	 Singles Energy            =      -0.0000000000000000 [Eh]
	 Same-Spin Energy          =      -0.4855506759278216 [Eh]
	 Opposite-Spin Energy      =      -1.4815564115146678 [Eh]
	 Correlation Energy        =      -1.9671070874424894 [Eh]
	 Total Energy              =    -495.0545178795685501 [Eh]

	 ================> DF-SCS-MP2 Energies <==================
	-----------------------------------------------------------
	 SCS Same-Spin Scale       =       0.3333333333333333 [-]
	 SCS Opposite-Spin Scale   =       1.2000000000000000 [-]
	 SCS Same-Spin Energy      =      -0.1618502253092738 [Eh]
	 SCS Opposite-Spin Energy  =      -1.7778676938176012 [Eh]
	 SCS Correlation Energy    =      -1.9397179191268752 [Eh]
	 SCS Total Energy          =    -495.0271287112528853 [Eh]
	-----------------------------------------------------------

  Dipole Moment: [D]
     X:    11.7928      Y:    -0.7793      Z:    -0.1712     Total:    11.8197

*** Psi4 exiting successfully. Buy a developer a beer!
