                               Psi4 1.4a3.dev225

  ==> Input File <==

--------------------------------------------------------------------------
#psi4
#
memory 32 gb

molecule  {
-1 1
  O        1.8724200    -0.7415990     0.3394840
  O        2.1027790     1.3758310    -0.4300950
  O       -3.3072830    -0.3512340    -0.9359590
  O       -2.5979240    -0.0254400     1.2183870
  C       -0.1827572     0.6538790     0.5378811
  C       -0.9697120    -0.0967620    -0.5425230
  C        1.3896910     0.5173160     0.0754460
  C       -2.4534200    -0.1528480    -0.0313600
  C        3.2289120    -0.9370400    -0.0704660
  H       -0.2424870     0.2042160     1.4320630
  H       -0.3042490     1.6964080     0.4822290
  H       -0.9505240     0.3810480    -1.5282220
  H       -0.6173950    -1.1275390    -0.6764200
  H        3.4625260    -1.9695390     0.1897820
  H        3.8993660    -0.2498350     0.4514950
  H        3.3382080    -0.7798600    -1.1461020
units angstrom
no_reorient  #important for SAPT in psi4, default
symmetry c1  #important for SAPT in psi4, default
}

set PROPERTIES_ORIGIN ["COM"]
properties('MP2/aug-cc-pvtz', properties = ['dipole'])
--------------------------------------------------------------------------

    Molecular point group: c1
  Charge       = -1
  Multiplicity = 1
  Basis Set: AUG-CC-PVTZ
    Blend: AUG-CC-PVTZ
  Basis Set: (AUG-CC-PVTZ AUX)
    Blend: AUG-CC-PVTZ-JKFIT

    Orbital Energies [Eh]
    ---------------------

    Doubly Occupied:

       1A    -20.494338     2A    -20.433238     3A    -20.308705
       4A    -20.304538     5A    -11.263311     6A    -11.189335
       7A    -11.151994     8A    -11.104703     9A    -11.077883
      10A     -1.337797    11A     -1.236403    12A     -1.177151
      13A     -1.080918    14A     -0.922518    15A     -0.857383
      16A     -0.746147    17A     -0.663316    18A     -0.573224
      19A     -0.564370    20A     -0.557608    21A     -0.527963
      22A     -0.504564    23A     -0.460691    24A     -0.446622
      25A     -0.430096    26A     -0.417113    27A     -0.408056
      28A     -0.398582    29A     -0.371159    30A     -0.355903
      31A     -0.333028    32A     -0.315044    33A     -0.225375
      34A     -0.207835    35A     -0.204032

  @DF-RHF Final Energy:  -493.08739728708116

   => Energetics <=

    Nuclear Repulsion Energy =            433.8304979411501563
    One-Electron Energy =               -1548.5339089409444568
    Two-Electron Energy =                 621.6160137127133112
    Total Energy =                       -493.0873972870811031
  Basis Set: (AUG-CC-PVTZ AUX)
    Blend: AUG-CC-PVTZ-RI
    Molecular point group: c1

    Geometry (in Angstrom), charge = -1, multiplicity = 1:

       Center              X                  Y                   Z               Mass
    ------------   -----------------  -----------------  -----------------  -----------------
         O            1.949232795742    -0.757431626480     0.325026453125    15.994914619570
         O            2.179591795742     1.359998373520    -0.444552546875    15.994914619570
         O           -3.230470204258    -0.367066626480    -0.950416546875    15.994914619570
         O           -2.521111204258    -0.041272626480     1.203929453125    15.994914619570
         C           -0.105944404258     0.638046373520     0.523423553125    12.000000000000
         C           -0.892899204258    -0.112594626480    -0.556980546875    12.000000000000
         C            1.466503795742     0.501483373520     0.060988453125    12.000000000000
         C           -2.376607204258    -0.168680626480    -0.045817546875    12.000000000000
         C            3.305724795742    -0.952872626480    -0.084923546875    12.000000000000
         H           -0.165674204258     0.188383373520     1.417605453125     1.007825032230
         H           -0.227436204258     1.680575373520     0.467771453125     1.007825032230
         H           -0.873711204258     0.365215373520    -1.542679546875     1.007825032230
         H           -0.540582204258    -1.143371626480    -0.690877546875     1.007825032230
         H            3.539338795742    -1.985371626480     0.175324453125     1.007825032230
         H            3.976178795742    -0.265667626480     0.437037453125     1.007825032230
         H            3.415020795742    -0.795692626480    -1.160559546875     1.007825032230

  Basis Set: AUG-CC-PVTZ
    Blend: AUG-CC-PVTZ
  Basis Set: (AUG-CC-PVTZ AUX)
    Blend: AUG-CC-PVTZ-JKFIT
	 Reference Energy          =    -493.0873972870811599 [Eh]
	 Singles Energy            =      -0.0000000000000000 [Eh]
	 Same-Spin Energy          =      -0.4831969618626242 [Eh]
	 Opposite-Spin Energy      =      -1.4761179931071533 [Eh]
	 Correlation Energy        =      -1.9593149549697775 [Eh]
	 Total Energy              =    -495.0467122420509440 [Eh]

	 ================> DF-SCS-MP2 Energies <==================
	-----------------------------------------------------------
	 SCS Same-Spin Scale       =       0.3333333333333333 [-]
	 SCS Opposite-Spin Scale   =       1.2000000000000000 [-]
	 SCS Same-Spin Energy      =      -0.1610656539542080 [Eh]
	 SCS Opposite-Spin Energy  =      -1.7713415917285840 [Eh]
	 SCS Correlation Energy    =      -1.9324072456827921 [Eh]
	 SCS Total Energy          =    -495.0198045327639420 [Eh]
	-----------------------------------------------------------

  Dipole Moment: [D]
     X:    11.3401      Y:    -0.6881      Z:    -0.0312     Total:    11.3610

*** Psi4 exiting successfully. Buy a developer a beer!
