                               Psi4 1.4a3.dev225

  ==> Input File <==

--------------------------------------------------------------------------
#psi4
#
memory 32 gb

molecule  {
-1 1
  O        1.8293550    -0.7535523     0.3568705
  O        2.1027790     1.3758310    -0.4300950
  O       -3.3072830    -0.3512340    -0.9359590
  O       -2.5979240    -0.0254400     1.2183870
  C       -0.0530340     0.6334400     0.4456770
  C       -0.9697120    -0.0967620    -0.5425230
  C        1.3896910     0.5173160     0.0754460
  C       -2.4534200    -0.1528480    -0.0313600
  C        3.2289120    -0.9370400    -0.0704660
  H       -0.2424870     0.2042160     1.4320630
  H       -0.3042490     1.6964080     0.4822290
  H       -0.9505240     0.3810480    -1.5282220
  H       -0.6173950    -1.1275390    -0.6764200
  H        3.4625260    -1.9695390     0.1897820
  H        3.8993660    -0.2498350     0.4514950
  H        3.3382080    -0.7798600    -1.1461020
units angstrom
no_reorient  #important for SAPT in psi4, default
symmetry c1  #important for SAPT in psi4, default
}

set PROPERTIES_ORIGIN ["COM"]
properties('MP2/aug-cc-pvtz', properties = ['dipole'])
--------------------------------------------------------------------------

    Molecular point group: c1
  Charge       = -1
  Multiplicity = 1
  Basis Set: AUG-CC-PVTZ
    Blend: AUG-CC-PVTZ
  Basis Set: (AUG-CC-PVTZ AUX)
    Blend: AUG-CC-PVTZ-JKFIT

    Orbital Energies [Eh]
    ---------------------

    Doubly Occupied:

       1A    -20.499098     2A    -20.435630     3A    -20.307902
       4A    -20.305456     5A    -11.265332     6A    -11.195738
       7A    -11.153527     8A    -11.097820     9A    -11.078083
      10A     -1.335523    11A     -1.237571    12A     -1.176359
      13A     -1.080205    14A     -0.932402    15A     -0.855861
      16A     -0.756028    17A     -0.658447    18A     -0.574332
      19A     -0.566144    20A     -0.555264    21A     -0.528228
      22A     -0.486528    23A     -0.461159    24A     -0.453565
      25A     -0.435006    26A     -0.420281    27A     -0.411094
      28A     -0.384718    29A     -0.362852    30A     -0.352518
      31A     -0.336859    32A     -0.326539    33A     -0.224785
      34A     -0.208103    35A     -0.207118

  @DF-RHF Final Energy:  -493.10432260752754

   => Energetics <=

    Nuclear Repulsion Energy =            434.7764639435474692
    One-Electron Energy =               -1550.4294254935741719
    Two-Electron Energy =                 622.5486389424992240
    Total Energy =                       -493.1043226075274788
  Basis Set: (AUG-CC-PVTZ AUX)
    Blend: AUG-CC-PVTZ-RI
    Molecular point group: c1

    Geometry (in Angstrom), charge = -1, multiplicity = 1:

       Center              X                  Y                   Z               Mass
    ------------   -----------------  -----------------  -----------------  -----------------
         O            1.899544670985    -0.766054046187     0.348734601515    15.994914619570
         O            2.172968670985     1.363329253813    -0.438230898485    15.994914619570
         O           -3.237093329015    -0.363735746187    -0.944094898485    15.994914619570
         O           -2.527734329015    -0.037941746187     1.210251101515    15.994914619570
         C            0.017155670985     0.620938253813     0.437541101515    12.000000000000
         C           -0.899522329015    -0.109263746187    -0.550658898485    12.000000000000
         C            1.459880670985     0.504814253813     0.067310101515    12.000000000000
         C           -2.383230329015    -0.165349746187    -0.039495898485    12.000000000000
         C            3.299101670985    -0.949541746187    -0.078601898485    12.000000000000
         H           -0.172297329015     0.191714253813     1.423927101515     1.007825032230
         H           -0.234059329015     1.683906253813     0.474093101515     1.007825032230
         H           -0.880334329015     0.368546253813    -1.536357898485     1.007825032230
         H           -0.547205329015    -1.140040746187    -0.684555898485     1.007825032230
         H            3.532715670985    -1.982040746187     0.181646101515     1.007825032230
         H            3.969555670985    -0.262336746187     0.443359101515     1.007825032230
         H            3.408397670985    -0.792361746187    -1.154237898485     1.007825032230

  Basis Set: AUG-CC-PVTZ
    Blend: AUG-CC-PVTZ
  Basis Set: (AUG-CC-PVTZ AUX)
    Blend: AUG-CC-PVTZ-JKFIT
	 Reference Energy          =    -493.1043226075275356 [Eh]
	 Singles Energy            =      -0.0000000000000000 [Eh]
	 Same-Spin Energy          =      -0.4842317633957395 [Eh]
	 Opposite-Spin Energy      =      -1.4776093848614145 [Eh]
	 Correlation Energy        =      -1.9618411482571541 [Eh]
	 Total Energy              =    -495.0661637557847143 [Eh]

	 ================> DF-SCS-MP2 Energies <==================
	-----------------------------------------------------------
	 SCS Same-Spin Scale       =       0.3333333333333333 [-]
	 SCS Opposite-Spin Scale   =       1.2000000000000000 [-]
	 SCS Same-Spin Energy      =      -0.1614105877985798 [Eh]
	 SCS Opposite-Spin Energy  =      -1.7731312618336974 [Eh]
	 SCS Correlation Energy    =      -1.9345418496322773 [Eh]
	 SCS Total Energy          =    -495.0388644571598320 [Eh]
	-----------------------------------------------------------

  Dipole Moment: [D]
     X:    11.5071      Y:    -0.7473      Z:    -0.1175     Total:    11.5319

*** Psi4 exiting successfully. Buy a developer a beer!
