                               Psi4 1.4a3.dev225

  ==> Input File <==

--------------------------------------------------------------------------
#psi4
#
memory 32 gb

molecule  {
-1 1
  O        1.8724200    -0.7415990     0.3394840
  O        2.1027790     1.3758310    -0.4300950
  O       -3.3072830    -0.3512340    -0.9359590
  O       -2.5979240    -0.0254400     1.2183870
  C       -0.0530340     0.6334400     0.4456770
  C       -0.9697120    -0.0967620    -0.5425230
  C        1.3896910     0.5173160     0.0754460
  C       -2.4534200    -0.1528480    -0.0313600
  C        3.2289120    -0.9370400    -0.0704660
  H       -0.2309758     0.1703717     1.4188098
  H       -0.3042490     1.6964080     0.4822290
  H       -0.9505240     0.3810480    -1.5282220
  H       -0.6173950    -1.1275390    -0.6764200
  H        3.4625260    -1.9695390     0.1897820
  H        3.8993660    -0.2498350     0.4514950
  H        3.3382080    -0.7798600    -1.1461020
units angstrom
no_reorient  #important for SAPT in psi4, default
symmetry c1  #important for SAPT in psi4, default
}

set PROPERTIES_ORIGIN ["COM"]
properties('MP2/aug-cc-pvtz', properties = ['dipole'])
--------------------------------------------------------------------------

    Molecular point group: c1
  Charge       = -1
  Multiplicity = 1
  Basis Set: AUG-CC-PVTZ
    Blend: AUG-CC-PVTZ
  Basis Set: (AUG-CC-PVTZ AUX)
    Blend: AUG-CC-PVTZ-JKFIT

    Orbital Energies [Eh]
    ---------------------

    Doubly Occupied:

       1A    -20.496176     2A    -20.434530     3A    -20.308970
       4A    -20.306463     5A    -11.266117     6A    -11.191006
       7A    -11.154660     8A    -11.101029     9A    -11.079613
      10A     -1.342287    11A     -1.239665    12A     -1.177411
      13A     -1.081234    14A     -0.935787    15A     -0.857320
      16A     -0.756575    17A     -0.661860    18A     -0.576372
      19A     -0.568905    20A     -0.560554    21A     -0.530348
      22A     -0.488777    23A     -0.466700    24A     -0.452056
      25A     -0.431210    26A     -0.419076    27A     -0.411038
      28A     -0.388137    29A     -0.360468    30A     -0.352319
      31A     -0.337561    32A     -0.327993    33A     -0.225849
      34A     -0.209249    35A     -0.208104

  @DF-RHF Final Energy:  -493.10837611500108

   => Energetics <=

    Nuclear Repulsion Energy =            435.1570564022603094
    One-Electron Energy =               -1551.1200250793101532
    Two-Electron Energy =                 622.8545925620488788
    Total Energy =                       -493.1083761150010787
  Basis Set: (AUG-CC-PVTZ AUX)
    Blend: AUG-CC-PVTZ-RI
    Molecular point group: c1

    Geometry (in Angstrom), charge = -1, multiplicity = 1:

       Center              X                  Y                   Z               Mass
    ------------   -----------------  -----------------  -----------------  -----------------
         O            1.937264341106    -0.755299537037     0.333572345033    15.994914619570
         O            2.167623341106     1.362130462963    -0.436006654967    15.994914619570
         O           -3.242438658894    -0.364934537037    -0.941870654967    15.994914619570
         O           -2.533079658894    -0.039140537037     1.212475345033    15.994914619570
         C            0.011810341106     0.619739462963     0.439765345033    12.000000000000
         C           -0.904867658894    -0.110462537037    -0.548434654967    12.000000000000
         C            1.454535341106     0.503615462963     0.069534345033    12.000000000000
         C           -2.388575658894    -0.166548537037    -0.037271654967    12.000000000000
         C            3.293756341106    -0.950740537037    -0.076377654967    12.000000000000
         H           -0.166131458894     0.156671162963     1.412898145033     1.007825032230
         H           -0.239404658894     1.682707462963     0.476317345033     1.007825032230
         H           -0.885679658894     0.367347462963    -1.534133654967     1.007825032230
         H           -0.552550658894    -1.141239537037    -0.682331654967     1.007825032230
         H            3.527370341106    -1.983239537037     0.183870345033     1.007825032230
         H            3.964210341106    -0.263535537037     0.445583345033     1.007825032230
         H            3.403052341106    -0.793560537037    -1.152013654967     1.007825032230

  Basis Set: AUG-CC-PVTZ
    Blend: AUG-CC-PVTZ
  Basis Set: (AUG-CC-PVTZ AUX)
    Blend: AUG-CC-PVTZ-JKFIT
	 Reference Energy          =    -493.1083761150010787 [Eh]
	 Singles Energy            =      -0.0000000000000000 [Eh]
	 Same-Spin Energy          =      -0.4837554358425002 [Eh]
	 Opposite-Spin Energy      =      -1.4759901088864893 [Eh]
	 Correlation Energy        =      -1.9597455447289895 [Eh]
	 Total Energy              =    -495.0681216597300818 [Eh]

	 ================> DF-SCS-MP2 Energies <==================
	-----------------------------------------------------------
	 SCS Same-Spin Scale       =       0.3333333333333333 [-]
	 SCS Opposite-Spin Scale   =       1.2000000000000000 [-]
	 SCS Same-Spin Energy      =      -0.1612518119475001 [Eh]
	 SCS Opposite-Spin Energy  =      -1.7711881306637871 [Eh]
	 SCS Correlation Energy    =      -1.9324399426112873 [Eh]
	 SCS Total Energy          =    -495.0408160576123464 [Eh]
	-----------------------------------------------------------

  Dipole Moment: [D]
     X:    11.3431      Y:    -0.7396      Z:    -0.0922     Total:    11.3675

*** Psi4 exiting successfully. Buy a developer a beer!
