                               Psi4 1.4a3.dev225

  ==> Input File <==

--------------------------------------------------------------------------
#psi4
#
memory 32 gb

molecule  {
-1 1
  O        1.8724200    -0.7415990     0.3394840
  O        2.1027790     1.3758310    -0.4300950
  O       -3.2410291    -0.3535693    -0.9937119
  O       -2.5979240    -0.0254400     1.2183870
  C       -0.0530340     0.6334400     0.4456770
  C       -0.9697120    -0.0967620    -0.5425230
  C        1.3896910     0.5173160     0.0754460
  C       -2.4534200    -0.1528480    -0.0313600
  C        3.2289120    -0.9370400    -0.0704660
  H       -0.2424870     0.2042160     1.4320630
  H       -0.3042490     1.6964080     0.4822290
  H       -0.9505240     0.3810480    -1.5282220
  H       -0.6173950    -1.1275390    -0.6764200
  H        3.4625260    -1.9695390     0.1897820
  H        3.8993660    -0.2498350     0.4514950
  H        3.3382080    -0.7798600    -1.1461020
units angstrom
no_reorient  #important for SAPT in psi4, default
symmetry c1  #important for SAPT in psi4, default
}

set PROPERTIES_ORIGIN ["COM"]
properties('MP2/aug-cc-pvtz', properties = ['dipole'])
--------------------------------------------------------------------------

    Molecular point group: c1
  Charge       = -1
  Multiplicity = 1
  Basis Set: AUG-CC-PVTZ
    Blend: AUG-CC-PVTZ
  Basis Set: (AUG-CC-PVTZ AUX)
    Blend: AUG-CC-PVTZ-JKFIT

    Orbital Energies [Eh]
    ---------------------

    Doubly Occupied:

       1A    -20.494627     2A    -20.432897     3A    -20.314358
       4A    -20.308946     5A    -11.264508     6A    -11.189828
       7A    -11.156920     8A    -11.098116     9A    -11.074497
      10A     -1.340694    11A     -1.238082    12A     -1.178538
      13A     -1.088448    14A     -0.932893    15A     -0.855414
      16A     -0.753326    17A     -0.660503    18A     -0.575181
      19A     -0.567185    20A     -0.559260    21A     -0.530795
      22A     -0.486255    23A     -0.464691    24A     -0.451536
      25A     -0.429916    26A     -0.418989    27A     -0.413102
      28A     -0.386452    29A     -0.359840    30A     -0.351782
      31A     -0.336669    32A     -0.326392    33A     -0.232293
      34A     -0.212954    35A     -0.204483

  @DF-RHF Final Energy:  -493.10622593032673

   => Energetics <=

    Nuclear Repulsion Energy =            435.5247036907241522
    One-Electron Energy =               -1551.8811179352048839
    Two-Electron Energy =                 623.2501883141540020
    Total Energy =                       -493.1062259303266728
  Basis Set: (AUG-CC-PVTZ AUX)
    Blend: AUG-CC-PVTZ-RI
    Molecular point group: c1

    Geometry (in Angstrom), charge = -1, multiplicity = 1:

       Center              X                  Y                   Z               Mass
    ------------   -----------------  -----------------  -----------------  -----------------
         O            1.929265495546    -0.755274781778     0.340520105038    15.994914619570
         O            2.159624495546     1.362155218222    -0.429058894962    15.994914619570
         O           -3.184183604454    -0.367245081778    -0.992675794962    15.994914619570
         O           -2.541078504454    -0.039115781778     1.219423105038    15.994914619570
         C            0.003811495546     0.619764218222     0.446713105038    12.000000000000
         C           -0.912866504454    -0.110437781778    -0.541486894962    12.000000000000
         C            1.446536495546     0.503640218222     0.076482105038    12.000000000000
         C           -2.396574504454    -0.166523781778    -0.030323894962    12.000000000000
         C            3.285757495546    -0.950715781778    -0.069429894962    12.000000000000
         H           -0.185641504454     0.190540218222     1.433099105038     1.007825032230
         H           -0.247403504454     1.682732218222     0.483265105038     1.007825032230
         H           -0.893678504454     0.367372218222    -1.527185894962     1.007825032230
         H           -0.560549504454    -1.141214781778    -0.675383894962     1.007825032230
         H            3.519371495546    -1.983214781778     0.190818105038     1.007825032230
         H            3.956211495546    -0.263510781778     0.452531105038     1.007825032230
         H            3.395053495546    -0.793535781778    -1.145065894962     1.007825032230

  Basis Set: AUG-CC-PVTZ
    Blend: AUG-CC-PVTZ
  Basis Set: (AUG-CC-PVTZ AUX)
    Blend: AUG-CC-PVTZ-JKFIT
	 Reference Energy          =    -493.1062259303267297 [Eh]
	 Singles Energy            =      -0.0000000000000000 [Eh]
	 Same-Spin Energy          =      -0.4840039961008789 [Eh]
	 Opposite-Spin Energy      =      -1.4763461215111158 [Eh]
	 Correlation Energy        =      -1.9603501176119946 [Eh]
	 Total Energy              =    -495.0665760479387245 [Eh]

	 ================> DF-SCS-MP2 Energies <==================
	-----------------------------------------------------------
	 SCS Same-Spin Scale       =       0.3333333333333333 [-]
	 SCS Opposite-Spin Scale   =       1.2000000000000000 [-]
	 SCS Same-Spin Energy      =      -0.1613346653669596 [Eh]
	 SCS Opposite-Spin Energy  =      -1.7716153458133388 [Eh]
	 SCS Correlation Energy    =      -1.9329500111802984 [Eh]
	 SCS Total Energy          =    -495.0391759415070396 [Eh]
	-----------------------------------------------------------

  Dipole Moment: [D]
     X:    11.0749      Y:    -0.7416      Z:     0.0326     Total:    11.0998

*** Psi4 exiting successfully. Buy a developer a beer!
