                               Psi4 1.4a3.dev225

  ==> Input File <==

--------------------------------------------------------------------------
#psi4
#
memory 32 gb

molecule  {
-1 1
  O        1.8724200    -0.7415990     0.3394840
  O        2.1027790     1.3758310    -0.4300950
  O       -3.3072830    -0.3512340    -0.9359590
  O       -2.5979240    -0.0254400     1.2183870
  C       -0.0530340     0.6334400     0.4456770
  C       -0.9697120    -0.0967620    -0.5425230
  C        1.3896910     0.5173160     0.0754460
  C       -2.4534200    -0.1528480    -0.0313600
  C        3.2289120    -0.9370400    -0.0704660
  H       -0.2755811     0.3087184     1.4645547
  H       -0.3042490     1.6964080     0.4822290
  H       -0.9505240     0.3810480    -1.5282220
  H       -0.6173950    -1.1275390    -0.6764200
  H        3.4625260    -1.9695390     0.1897820
  H        3.8993660    -0.2498350     0.4514950
  H        3.3382080    -0.7798600    -1.1461020
units angstrom
no_reorient  #important for SAPT in psi4, default
symmetry c1  #important for SAPT in psi4, default
}

set PROPERTIES_ORIGIN ["COM"]
properties('MP2/aug-cc-pvtz', properties = ['dipole'])
--------------------------------------------------------------------------

    Molecular point group: c1
  Charge       = -1
  Multiplicity = 1
  Basis Set: AUG-CC-PVTZ
    Blend: AUG-CC-PVTZ
  Basis Set: (AUG-CC-PVTZ AUX)
    Blend: AUG-CC-PVTZ-JKFIT

    Orbital Energies [Eh]
    ---------------------

    Doubly Occupied:

       1A    -20.496241     2A    -20.435370     3A    -20.309029
       4A    -20.306439     5A    -11.267409     6A    -11.190929
       7A    -11.154705     8A    -11.100049     9A    -11.079633
      10A     -1.342435    11A     -1.240075    12A     -1.177427
      13A     -1.081284    14A     -0.934382    15A     -0.857287
      16A     -0.757042    17A     -0.663204    18A     -0.578687
      19A     -0.568519    20A     -0.561470    21A     -0.530638
      22A     -0.485641    23A     -0.464076    24A     -0.452429
      25A     -0.431215    26A     -0.419136    27A     -0.412337
      28A     -0.383157    29A     -0.361406    30A     -0.354573
      31A     -0.339087    32A     -0.326225    33A     -0.225815
      34A     -0.209301    35A     -0.208177

  @DF-RHF Final Energy:  -493.10698957902343

   => Energetics <=

    Nuclear Repulsion Energy =            435.0083463341910601
    One-Electron Energy =               -1550.8210131885903138
    Two-Electron Energy =                 622.7056772753757059
    Total Energy =                       -493.1069895790234341
  Basis Set: (AUG-CC-PVTZ AUX)
    Blend: AUG-CC-PVTZ-RI
    Molecular point group: c1

    Geometry (in Angstrom), charge = -1, multiplicity = 1:

       Center              X                  Y                   Z               Mass
    ------------   -----------------  -----------------  -----------------  -----------------
         O            1.937607413813    -0.756363602897     0.333220507321    15.994914619570
         O            2.167966413813     1.361066397103    -0.436358492679    15.994914619570
         O           -3.242095586187    -0.365998602897    -0.942222492679    15.994914619570
         O           -2.532736586187    -0.040204602897     1.212123507321    15.994914619570
         C            0.012153413813     0.618675397103     0.439413507321    12.000000000000
         C           -0.904524586187    -0.111526602897    -0.548786492679    12.000000000000
         C            1.454878413813     0.502551397103     0.069182507321    12.000000000000
         C           -2.388232586187    -0.167612602897    -0.037623492679    12.000000000000
         C            3.294099413813    -0.951804602897    -0.076729492679    12.000000000000
         H           -0.210393686187     0.293953797103     1.458291207321     1.007825032230
         H           -0.239061586187     1.681643397103     0.475965507321     1.007825032230
         H           -0.885336586187     0.366283397103    -1.534485492679     1.007825032230
         H           -0.552207586187    -1.142303602897    -0.682683492679     1.007825032230
         H            3.527713413813    -1.984303602897     0.183518507321     1.007825032230
         H            3.964553413813    -0.264599602897     0.445231507321     1.007825032230
         H            3.403395413813    -0.794624602897    -1.152365492679     1.007825032230

  Basis Set: AUG-CC-PVTZ
    Blend: AUG-CC-PVTZ
  Basis Set: (AUG-CC-PVTZ AUX)
    Blend: AUG-CC-PVTZ-JKFIT
	 Reference Energy          =    -493.1069895790234341 [Eh]
	 Singles Energy            =      -0.0000000000000000 [Eh]
	 Same-Spin Energy          =      -0.4837951982107537 [Eh]
	 Opposite-Spin Energy      =      -1.4760702082629682 [Eh]
	 Correlation Energy        =      -1.9598654064737220 [Eh]
	 Total Energy              =    -495.0668549854971729 [Eh]

	 ================> DF-SCS-MP2 Energies <==================
	-----------------------------------------------------------
	 SCS Same-Spin Scale       =       0.3333333333333333 [-]
	 SCS Opposite-Spin Scale   =       1.2000000000000000 [-]
	 SCS Same-Spin Energy      =      -0.1612650660702512 [Eh]
	 SCS Opposite-Spin Energy  =      -1.7712842499155619 [Eh]
	 SCS Correlation Energy    =      -1.9325493159858131 [Eh]
	 SCS Total Energy          =    -495.0395388950092297 [Eh]
	-----------------------------------------------------------

  Dipole Moment: [D]
     X:    11.3429      Y:    -0.6947      Z:    -0.0672     Total:    11.3644

*** Psi4 exiting successfully. Buy a developer a beer!
