                               Psi4 1.4a3.dev225

  ==> Input File <==

--------------------------------------------------------------------------
#psi4
#
memory 32 gb

molecule  {
-1 1
  O        1.8724200    -0.7415990     0.3394840
  O        2.1027790     1.3758310    -0.4300950
  O       -3.3072830    -0.3512340    -0.9359590
  O       -2.5979240    -0.0254400     1.2183870
  C       -0.0530340     0.6334400     0.4456770
  C       -0.9697120    -0.0967620    -0.5425230
  C        1.3896910     0.5173160     0.0754460
  C       -2.4534200    -0.1528480    -0.0313600
  C        3.2289120    -0.9370400    -0.0704660
  H       -0.2424870     0.2042160     1.4320630
  H       -0.3042490     1.6964080     0.4822290
  H       -0.9513997     0.3592415    -1.4832363
  H       -0.6173950    -1.1275390    -0.6764200
  H        3.4625260    -1.9695390     0.1897820
  H        3.8993660    -0.2498350     0.4514950
  H        3.3382080    -0.7798600    -1.1461020
units angstrom
no_reorient  #important for SAPT in psi4, default
symmetry c1  #important for SAPT in psi4, default
}

set PROPERTIES_ORIGIN ["COM"]
properties('MP2/aug-cc-pvtz', properties = ['dipole'])
--------------------------------------------------------------------------

    Molecular point group: c1
  Charge       = -1
  Multiplicity = 1
  Basis Set: AUG-CC-PVTZ
    Blend: AUG-CC-PVTZ
  Basis Set: (AUG-CC-PVTZ AUX)
    Blend: AUG-CC-PVTZ-JKFIT

    Orbital Energies [Eh]
    ---------------------

    Doubly Occupied:

       1A    -20.496082     2A    -20.434704     3A    -20.308467
       4A    -20.306477     5A    -11.266319     6A    -11.190940
       7A    -11.154159     8A    -11.100258     9A    -11.073294
      10A     -1.342244    11A     -1.239729    12A     -1.177173
      13A     -1.081002    14A     -0.936050    15A     -0.858113
      16A     -0.759855    17A     -0.662331    18A     -0.577288
      19A     -0.568727    20A     -0.560745    21A     -0.532038
      22A     -0.489247    23A     -0.467618    24A     -0.452435
      25A     -0.431571    26A     -0.419109    27A     -0.411201
      28A     -0.386832    29A     -0.361759    30A     -0.354794
      31A     -0.337941    32A     -0.328942    33A     -0.225751
      34A     -0.208842    35A     -0.207911

  @DF-RHF Final Energy:  -493.10762307842441

   => Energetics <=

    Nuclear Repulsion Energy =            435.3720746823959757
    One-Electron Energy =               -1551.5395000989390155
    Two-Electron Energy =                 623.0598023381186295
    Total Energy =                       -493.1076230784243535
  Basis Set: (AUG-CC-PVTZ AUX)
    Blend: AUG-CC-PVTZ-RI
    Molecular point group: c1

    Geometry (in Angstrom), charge = -1, multiplicity = 1:

       Center              X                  Y                   Z               Mass
    ------------   -----------------  -----------------  -----------------  -----------------
         O            1.937359612460    -0.755392123358     0.333124412229    15.994914619570
         O            2.167718612460     1.362037876642    -0.436454587771    15.994914619570
         O           -3.242343387540    -0.365027123358    -0.942318587771    15.994914619570
         O           -2.532984387540    -0.039233123358     1.212027412229    15.994914619570
         C            0.011905612460     0.619646876642     0.439317412229    12.000000000000
         C           -0.904772387540    -0.110555123358    -0.548882587771    12.000000000000
         C            1.454630612460     0.503522876642     0.069086412229    12.000000000000
         C           -2.388480387540    -0.166641123358    -0.037719587771    12.000000000000
         C            3.293851612460    -0.950833123358    -0.076825587771    12.000000000000
         H           -0.177547387540     0.190422876642     1.425703412229     1.007825032230
         H           -0.239309387540     1.682614876642     0.475869412229     1.007825032230
         H           -0.886460087540     0.345448376642    -1.489595887771     1.007825032230
         H           -0.552455387540    -1.141332123358    -0.682779587771     1.007825032230
         H            3.527465612460    -1.983332123358     0.183422412229     1.007825032230
         H            3.964305612460    -0.263628123358     0.445135412229     1.007825032230
         H            3.403147612460    -0.793653123358    -1.152461587771     1.007825032230

  Basis Set: AUG-CC-PVTZ
    Blend: AUG-CC-PVTZ
  Basis Set: (AUG-CC-PVTZ AUX)
    Blend: AUG-CC-PVTZ-JKFIT
	 Reference Energy          =    -493.1076230784244103 [Eh]
	 Singles Energy            =      -0.0000000000000000 [Eh]
	 Same-Spin Energy          =      -0.4837272167421638 [Eh]
	 Opposite-Spin Energy      =      -1.4756869062011688 [Eh]
	 Correlation Energy        =      -1.9594141229433326 [Eh]
	 Total Energy              =    -495.0670372013677252 [Eh]

	 ================> DF-SCS-MP2 Energies <==================
	-----------------------------------------------------------
	 SCS Same-Spin Scale       =       0.3333333333333333 [-]
	 SCS Opposite-Spin Scale   =       1.2000000000000000 [-]
	 SCS Same-Spin Energy      =      -0.1612424055807213 [Eh]
	 SCS Opposite-Spin Energy  =      -1.7708242874414026 [Eh]
	 SCS Correlation Energy    =      -1.9320666930221240 [Eh]
	 SCS Total Energy          =    -495.0396897714465467 [Eh]
	-----------------------------------------------------------

  Dipole Moment: [D]
     X:    11.3511      Y:    -0.7223      Z:    -0.1162     Total:    11.3747

*** Psi4 exiting successfully. Buy a developer a beer!
