                               Psi4 1.4a3.dev225

  ==> Input File <==

--------------------------------------------------------------------------
#psi4
#
memory 32 gb

molecule  {
-1 1
  O        1.8724200    -0.7415990     0.3394840
  O        2.1027790     1.3758310    -0.4300950
  O       -3.3072830    -0.3512340    -0.9359590
  O       -2.5979240    -0.0254400     1.2183870
  C       -0.0530340     0.6334400     0.4456770
  C       -0.9697120    -0.0967620    -0.5425230
  C        1.3896910     0.5173160     0.0754460
  C       -2.3178494    -0.1213496     0.1122661
  C        3.2289120    -0.9370400    -0.0704660
  H       -0.2424870     0.2042160     1.4320630
  H       -0.3042490     1.6964080     0.4822290
  H       -0.9505240     0.3810480    -1.5282220
  H       -0.6173950    -1.1275390    -0.6764200
  H        3.4625260    -1.9695390     0.1897820
  H        3.8993660    -0.2498350     0.4514950
  H        3.3382080    -0.7798600    -1.1461020
units angstrom
no_reorient  #important for SAPT in psi4, default
symmetry c1  #important for SAPT in psi4, default
}

set PROPERTIES_ORIGIN ["COM"]
properties('MP2/aug-cc-pvtz', properties = ['dipole'])
--------------------------------------------------------------------------

    Molecular point group: c1
  Charge       = -1
  Multiplicity = 1
  Basis Set: AUG-CC-PVTZ
    Blend: AUG-CC-PVTZ
  Basis Set: (AUG-CC-PVTZ AUX)
    Blend: AUG-CC-PVTZ-JKFIT

    Orbital Energies [Eh]
    ---------------------

    Doubly Occupied:

       1A    -20.501231     2A    -20.439750     3A    -20.347506
       4A    -20.262411     5A    -11.271956     6A    -11.194815
       7A    -11.151338     8A    -11.109646     9A    -11.089583
      10A     -1.347431    11A     -1.246113    12A     -1.244791
      13A     -0.991510    14A     -0.946847    15A     -0.866066
      16A     -0.770855    17A     -0.667797    18A     -0.588848
      19A     -0.574497    20A     -0.566188    21A     -0.548653
      22A     -0.501207    23A     -0.479678    24A     -0.462251
      25A     -0.445739    26A     -0.428363    27A     -0.406713
      28A     -0.394656    29A     -0.370674    30A     -0.363040
      31A     -0.350120    32A     -0.338317    33A     -0.206804
      34A     -0.177384    35A     -0.172229

  @DF-RHF Final Energy:  -493.05637497882384

   => Energetics <=

    Nuclear Repulsion Energy =            436.3175472533580432
    One-Electron Energy =               -1553.0978291101619106
    Two-Electron Energy =                 623.7239068779800846
    Total Energy =                       -493.0563749788237828
  Basis Set: (AUG-CC-PVTZ AUX)
    Blend: AUG-CC-PVTZ-RI
    Molecular point group: c1

    Geometry (in Angstrom), charge = -1, multiplicity = 1:

       Center              X                  Y                   Z               Mass
    ------------   -----------------  -----------------  -----------------  -----------------
         O            1.924937459699    -0.758444435069     0.320317278730    15.994914619570
         O            2.155296459699     1.358985564931    -0.449261721270    15.994914619570
         O           -3.254765540301    -0.368079435069    -0.955125721270    15.994914619570
         O           -2.545406540301    -0.042285435069     1.199220278730    15.994914619570
         C           -0.000516540301     0.616594564931     0.426510278730    12.000000000000
         C           -0.917194540301    -0.113607435069    -0.561689721270    12.000000000000
         C            1.442208459699     0.500470564931     0.056279278730    12.000000000000
         C           -2.265331940301    -0.138195035069     0.093099378730    12.000000000000
         C            3.281429459699    -0.953885435069    -0.089632721270    12.000000000000
         H           -0.189969540301     0.187370564931     1.412896278730     1.007825032230
         H           -0.251731540301     1.679562564931     0.463062278730     1.007825032230
         H           -0.898006540301     0.364202564931    -1.547388721270     1.007825032230
         H           -0.564877540301    -1.144384435069    -0.695586721270     1.007825032230
         H            3.515043459699    -1.986384435069     0.170615278730     1.007825032230
         H            3.951883459699    -0.266680435069     0.432328278730     1.007825032230
         H            3.390725459699    -0.796705435069    -1.165268721270     1.007825032230

  Basis Set: AUG-CC-PVTZ
    Blend: AUG-CC-PVTZ
  Basis Set: (AUG-CC-PVTZ AUX)
    Blend: AUG-CC-PVTZ-JKFIT
	 Reference Energy          =    -493.0563749788238397 [Eh]
	 Singles Energy            =      -0.0000000000000000 [Eh]
	 Same-Spin Energy          =      -0.4853257775247551 [Eh]
	 Opposite-Spin Energy      =      -1.4798168455271132 [Eh]
	 Correlation Energy        =      -1.9651426230518685 [Eh]
	 Total Energy              =    -495.0215176018757006 [Eh]

	 ================> DF-SCS-MP2 Energies <==================
	-----------------------------------------------------------
	 SCS Same-Spin Scale       =       0.3333333333333333 [-]
	 SCS Opposite-Spin Scale   =       1.2000000000000000 [-]
	 SCS Same-Spin Energy      =      -0.1617752591749184 [Eh]
	 SCS Opposite-Spin Energy  =      -1.7757802146325359 [Eh]
	 SCS Correlation Energy    =      -1.9375554738074543 [Eh]
	 SCS Total Energy          =    -494.9939304526312753 [Eh]
	-----------------------------------------------------------

  Dipole Moment: [D]
     X:    12.6285      Y:    -0.4312      Z:     1.5136     Total:    12.7262

*** Psi4 exiting successfully. Buy a developer a beer!
