                               Psi4 1.4a3.dev225

  ==> Input File <==

--------------------------------------------------------------------------
#psi4
#
memory 32 gb

molecule  {
-1 1
  O        1.8724200    -0.7415990     0.3394840
  O        2.1027790     1.3758310    -0.4300950
  O       -3.3072830    -0.3512340    -0.9359590
  O       -2.5979240    -0.0254400     1.2183870
  C       -0.0530340     0.6334400     0.4456770
  C       -0.9697120    -0.0967620    -0.5425230
  C        1.3896910     0.5173160     0.0754460
  C       -2.4762754    -0.1326966     0.1663053
  C        3.2289120    -0.9370400    -0.0704660
  H       -0.2424870     0.2042160     1.4320630
  H       -0.3042490     1.6964080     0.4822290
  H       -0.9505240     0.3810480    -1.5282220
  H       -0.6173950    -1.1275390    -0.6764200
  H        3.4625260    -1.9695390     0.1897820
  H        3.8993660    -0.2498350     0.4514950
  H        3.3382080    -0.7798600    -1.1461020
units angstrom
no_reorient  #important for SAPT in psi4, default
symmetry c1  #important for SAPT in psi4, default
}

set PROPERTIES_ORIGIN ["COM"]
properties('MP2/aug-cc-pvtz', properties = ['dipole'])
--------------------------------------------------------------------------

    Molecular point group: c1
  Charge       = -1
  Multiplicity = 1
  Basis Set: AUG-CC-PVTZ
    Blend: AUG-CC-PVTZ
  Basis Set: (AUG-CC-PVTZ AUX)
    Blend: AUG-CC-PVTZ-JKFIT

    Orbital Energies [Eh]
    ---------------------

    Doubly Occupied:

       1A    -20.493098     2A    -20.430505     3A    -20.359575
       4A    -20.272173     5A    -11.262643     6A    -11.188839
       7A    -11.150256     8A    -11.098199     9A    -11.066789
      10A     -1.339057    11A     -1.316350    12A     -1.236221
      13A     -1.024453    14A     -0.930663    15A     -0.852342
      16A     -0.737441    17A     -0.658067    18A     -0.576912
      19A     -0.565216    20A     -0.558112    21A     -0.550193
      22A     -0.504810    23A     -0.470381    24A     -0.455582
      25A     -0.445305    26A     -0.427516    27A     -0.421057
      28A     -0.415719    29A     -0.366329    30A     -0.353443
      31A     -0.345533    32A     -0.332545    33A     -0.218899
      34A     -0.193485    35A     -0.166585

  @DF-RHF Final Energy:  -493.03559368304241

   => Energetics <=

    Nuclear Repulsion Energy =            436.0386668204556031
    One-Electron Energy =               -1552.5799348313428254
    Two-Electron Energy =                 623.5056743278448721
    Total Energy =                       -493.0355936830424071
  Basis Set: (AUG-CC-PVTZ AUX)
    Blend: AUG-CC-PVTZ-RI
    Molecular point group: c1

    Geometry (in Angstrom), charge = -1, multiplicity = 1:

       Center              X                  Y                   Z               Mass
    ------------   -----------------  -----------------  -----------------  -----------------
         O            1.939445951446    -0.757405288364     0.315368423825    15.994914619570
         O            2.169804951446     1.360024711636    -0.454210576175    15.994914619570
         O           -3.240257048554    -0.367040288364    -0.960074576175    15.994914619570
         O           -2.530898048554    -0.041246288364     1.194271423825    15.994914619570
         C            0.013991951446     0.617633711636     0.421561423825    12.000000000000
         C           -0.902686048554    -0.112568288364    -0.566638576175    12.000000000000
         C            1.456716951446     0.501509711636     0.051330423825    12.000000000000
         C           -2.409249448554    -0.148502888364     0.142189723825    12.000000000000
         C            3.295937951446    -0.952846288364    -0.094581576175    12.000000000000
         H           -0.175461048554     0.188409711636     1.407947423825     1.007825032230
         H           -0.237223048554     1.680601711636     0.458113423825     1.007825032230
         H           -0.883498048554     0.365241711636    -1.552337576175     1.007825032230
         H           -0.550369048554    -1.143345288364    -0.700535576175     1.007825032230
         H            3.529551951446    -1.985345288364     0.165666423825     1.007825032230
         H            3.966391951446    -0.265641288364     0.427379423825     1.007825032230
         H            3.405233951446    -0.795666288364    -1.170217576175     1.007825032230

  Basis Set: AUG-CC-PVTZ
    Blend: AUG-CC-PVTZ
  Basis Set: (AUG-CC-PVTZ AUX)
    Blend: AUG-CC-PVTZ-JKFIT
	 Reference Energy          =    -493.0355936830424071 [Eh]
	 Singles Energy            =      -0.0000000000000000 [Eh]
	 Same-Spin Energy          =      -0.4830034158879118 [Eh]
	 Opposite-Spin Energy      =      -1.4738797423163466 [Eh]
	 Correlation Energy        =      -1.9568831582042585 [Eh]
	 Total Energy              =    -494.9924768412466847 [Eh]

	 ================> DF-SCS-MP2 Energies <==================
	-----------------------------------------------------------
	 SCS Same-Spin Scale       =       0.3333333333333333 [-]
	 SCS Opposite-Spin Scale   =       1.2000000000000000 [-]
	 SCS Same-Spin Energy      =      -0.1610011386293039 [Eh]
	 SCS Opposite-Spin Energy  =      -1.7686556907796158 [Eh]
	 SCS Correlation Energy    =      -1.9296568294089198 [Eh]
	 SCS Total Energy          =    -494.9652505124513482 [Eh]
	-----------------------------------------------------------

  Dipole Moment: [D]
     X:    11.2736      Y:    -0.5087      Z:     1.9491     Total:    11.4521

*** Psi4 exiting successfully. Buy a developer a beer!
