                               Psi4 1.4a3.dev225

  ==> Input File <==

--------------------------------------------------------------------------
#psi4
#
memory 32 gb

molecule  {
-1 1
  O        1.8724200    -0.7415990     0.3394840
  O        2.1027790     1.3758310    -0.4300950
  O       -3.3388694    -0.3497030    -0.9054114
  O       -2.5979240    -0.0254400     1.2183870
  C       -0.0530340     0.6334400     0.4456770
  C       -0.9697120    -0.0967620    -0.5425230
  C        1.3896910     0.5173160     0.0754460
  C       -2.4534200    -0.1528480    -0.0313600
  C        3.2289120    -0.9370400    -0.0704660
  H       -0.2424870     0.2042160     1.4320630
  H       -0.3042490     1.6964080     0.4822290
  H       -0.9505240     0.3810480    -1.5282220
  H       -0.6173950    -1.1275390    -0.6764200
  H        3.4625260    -1.9695390     0.1897820
  H        3.8993660    -0.2498350     0.4514950
  H        3.3382080    -0.7798600    -1.1461020
units angstrom
no_reorient  #important for SAPT in psi4, default
symmetry c1  #important for SAPT in psi4, default
}

set PROPERTIES_ORIGIN ["COM"]
properties('MP2/aug-cc-pvtz', properties = ['dipole'])
--------------------------------------------------------------------------

    Molecular point group: c1
  Charge       = -1
  Multiplicity = 1
  Basis Set: AUG-CC-PVTZ
    Blend: AUG-CC-PVTZ
  Basis Set: (AUG-CC-PVTZ AUX)
    Blend: AUG-CC-PVTZ-JKFIT

    Orbital Energies [Eh]
    ---------------------

    Doubly Occupied:

       1A    -20.496922     2A    -20.435626     3A    -20.306248
       4A    -20.305120     5A    -11.267342     6A    -11.191530
       7A    -11.153572     8A    -11.102001     9A    -11.082110
      10A     -1.343084    11A     -1.240567    12A     -1.177002
      13A     -1.077525    14A     -0.936555    15A     -0.858193
      16A     -0.758264    17A     -0.662949    18A     -0.577667
      19A     -0.569570    20A     -0.561515    21A     -0.530306
      22A     -0.488609    23A     -0.466838    24A     -0.452478
      25A     -0.431802    26A     -0.419346    27A     -0.410184
      28A     -0.387058    29A     -0.361103    30A     -0.353624
      31A     -0.338624    32A     -0.328199    33A     -0.222353
      34A     -0.211291    35A     -0.205671

  @DF-RHF Final Energy:  -493.10847590241082

   => Energetics <=

    Nuclear Repulsion Energy =            434.9468140358960113
    One-Electron Energy =               -1550.6888805898743158
    Two-Electron Energy =                 622.6335906515674878
    Total Energy =                       -493.1084759024107598
  Basis Set: (AUG-CC-PVTZ AUX)
    Blend: AUG-CC-PVTZ-RI
    Molecular point group: c1

    Geometry (in Angstrom), charge = -1, multiplicity = 1:

       Center              X                  Y                   Z               Mass
    ------------   -----------------  -----------------  -----------------  -----------------
         O            1.941208518465    -0.755746727484     0.329741572110    15.994914619570
         O            2.171567518465     1.361683272516    -0.439837427890    15.994914619570
         O           -3.270080881535    -0.363850727484    -0.915153827890    15.994914619570
         O           -2.529135481535    -0.039587727484     1.208644572110    15.994914619570
         C            0.015754518465     0.619292272516     0.435934572110    12.000000000000
         C           -0.900923481535    -0.110909727484    -0.552265427890    12.000000000000
         C            1.458479518465     0.503168272516     0.065703572110    12.000000000000
         C           -2.384631481535    -0.166995727484    -0.041102427890    12.000000000000
         C            3.297700518465    -0.951187727484    -0.080208427890    12.000000000000
         H           -0.173698481535     0.190068272516     1.422320572110     1.007825032230
         H           -0.235460481535     1.682260272516     0.472486572110     1.007825032230
         H           -0.881735481535     0.366900272516    -1.537964427890     1.007825032230
         H           -0.548606481535    -1.141686727484    -0.686162427890     1.007825032230
         H            3.531314518465    -1.983686727484     0.180039572110     1.007825032230
         H            3.968154518465    -0.263982727484     0.441752572110     1.007825032230
         H            3.406996518465    -0.794007727484    -1.155844427890     1.007825032230

  Basis Set: AUG-CC-PVTZ
    Blend: AUG-CC-PVTZ
  Basis Set: (AUG-CC-PVTZ AUX)
    Blend: AUG-CC-PVTZ-JKFIT
	 Reference Energy          =    -493.1084759024108166 [Eh]
	 Singles Energy            =      -0.0000000000000000 [Eh]
	 Same-Spin Energy          =      -0.4836630691448361 [Eh]
	 Opposite-Spin Energy      =      -1.4758766092622562 [Eh]
	 Correlation Energy        =      -1.9595396784070922 [Eh]
	 Total Energy              =    -495.0680155808179279 [Eh]

	 ================> DF-SCS-MP2 Energies <==================
	-----------------------------------------------------------
	 SCS Same-Spin Scale       =       0.3333333333333333 [-]
	 SCS Opposite-Spin Scale   =       1.2000000000000000 [-]
	 SCS Same-Spin Energy      =      -0.1612210230482787 [Eh]
	 SCS Opposite-Spin Energy  =      -1.7710519311147073 [Eh]
	 SCS Correlation Energy    =      -1.9322729541629859 [Eh]
	 SCS Total Energy          =    -495.0407488565738277 [Eh]
	-----------------------------------------------------------

  Dipole Moment: [D]
     X:    11.4706      Y:    -0.7248      Z:    -0.1485     Total:    11.4944

*** Psi4 exiting successfully. Buy a developer a beer!
