                               Psi4 1.4a3.dev225

  ==> Input File <==

--------------------------------------------------------------------------
#psi4
#
memory 32 gb

molecule  {
-1 1
  O        1.8724200    -0.7415990     0.3394840
  O        2.1027790     1.3758310    -0.4300950
  O       -3.3072830    -0.3512340    -0.9359590
  O       -2.5979240    -0.0254400     1.2183870
  C       -0.0530340     0.6334400     0.4456770
  C       -0.9697120    -0.0967620    -0.5425230
  C        1.3896910     0.5173160     0.0754460
  C       -2.4534200    -0.1528480    -0.0313600
  C        3.2289120    -0.9370400    -0.0704660
  H       -0.2424870     0.2042160     1.4320630
  H       -0.3042490     1.6964080     0.4822290
  H       -0.9501737     0.3897706    -1.5462163
  H       -0.6173950    -1.1275390    -0.6764200
  H        3.4625260    -1.9695390     0.1897820
  H        3.8993660    -0.2498350     0.4514950
  H        3.3382080    -0.7798600    -1.1461020
units angstrom
no_reorient  #important for SAPT in psi4, default
symmetry c1  #important for SAPT in psi4, default
}

set PROPERTIES_ORIGIN ["COM"]
properties('MP2/aug-cc-pvtz', properties = ['dipole'])
--------------------------------------------------------------------------

    Molecular point group: c1
  Charge       = -1
  Multiplicity = 1
  Basis Set: AUG-CC-PVTZ
    Blend: AUG-CC-PVTZ
  Basis Set: (AUG-CC-PVTZ AUX)
    Blend: AUG-CC-PVTZ-JKFIT

    Orbital Energies [Eh]
    ---------------------

    Doubly Occupied:

       1A    -20.496237     2A    -20.434781     3A    -20.309215
       4A    -20.306459     5A    -11.266495     6A    -11.191006
       7A    -11.154895     8A    -11.100998     9A    -11.082085
      10A     -1.342357    11A     -1.239796    12A     -1.177530
      13A     -1.081361    14A     -0.935185    15A     -0.857036
      16A     -0.755554    17A     -0.662118    18A     -0.576744
      19A     -0.568844    20A     -0.560827    21A     -0.529903
      22A     -0.487378    23A     -0.465547    24A     -0.452024
      25A     -0.431062    26A     -0.419090    27A     -0.411412
      28A     -0.386851    29A     -0.360442    30A     -0.352243
      31A     -0.338039    32A     -0.327037    33A     -0.225894
      34A     -0.209449    35A     -0.208219

  @DF-RHF Final Energy:  -493.10790847548128

   => Energetics <=

    Nuclear Repulsion Energy =            435.0197851299716376
    One-Electron Energy =               -1550.8471600654881968
    Two-Electron Energy =                 622.7194664600353917
    Total Energy =                       -493.1079084754812811
  Basis Set: (AUG-CC-PVTZ AUX)
    Blend: AUG-CC-PVTZ-RI
    Molecular point group: c1

    Geometry (in Angstrom), charge = -1, multiplicity = 1:

       Center              X                  Y                   Z               Mass
    ------------   -----------------  -----------------  -----------------  -----------------
         O            1.937350182927    -0.755626931800     0.333608810251    15.994914619570
         O            2.167709182927     1.361803068200    -0.435970189749    15.994914619570
         O           -3.242352817073    -0.365261931800    -0.941834189749    15.994914619570
         O           -2.532993817073    -0.039467931800     1.212511810251    15.994914619570
         C            0.011896182927     0.619412068200     0.439801810251    12.000000000000
         C           -0.904781817073    -0.110789931800    -0.548398189749    12.000000000000
         C            1.454621182927     0.503288068200     0.069570810251    12.000000000000
         C           -2.388489817073    -0.166875931800    -0.037235189749    12.000000000000
         C            3.293842182927    -0.951067931800    -0.076341189749    12.000000000000
         H           -0.177556817073     0.190188068200     1.426187810251     1.007825032230
         H           -0.239318817073     1.682380068200     0.476353810251     1.007825032230
         H           -0.885243517073     0.375742668200    -1.552091489749     1.007825032230
         H           -0.552464817073    -1.141566931800    -0.682295189749     1.007825032230
         H            3.527456182927    -1.983566931800     0.183906810251     1.007825032230
         H            3.964296182927    -0.263862931800     0.445619810251     1.007825032230
         H            3.403138182927    -0.793887931800    -1.151977189749     1.007825032230

  Basis Set: AUG-CC-PVTZ
    Blend: AUG-CC-PVTZ
  Basis Set: (AUG-CC-PVTZ AUX)
    Blend: AUG-CC-PVTZ-JKFIT
	 Reference Energy          =    -493.1079084754812811 [Eh]
	 Singles Energy            =      -0.0000000000000000 [Eh]
	 Same-Spin Energy          =      -0.4837534174230009 [Eh]
	 Opposite-Spin Energy      =      -1.4761119703136658 [Eh]
	 Correlation Energy        =      -1.9598653877366667 [Eh]
	 Total Energy              =    -495.0677738632179512 [Eh]

	 ================> DF-SCS-MP2 Energies <==================
	-----------------------------------------------------------
	 SCS Same-Spin Scale       =       0.3333333333333333 [-]
	 SCS Opposite-Spin Scale   =       1.2000000000000000 [-]
	 SCS Same-Spin Energy      =      -0.1612511391410003 [Eh]
	 SCS Opposite-Spin Energy  =      -1.7713343643763990 [Eh]
	 SCS Correlation Energy    =      -1.9325855035173993 [Eh]
	 SCS Total Energy          =    -495.0404939789986543 [Eh]
	-----------------------------------------------------------

  Dipole Moment: [D]
     X:    11.3401      Y:    -0.7327      Z:    -0.0715     Total:    11.3640

*** Psi4 exiting successfully. Buy a developer a beer!
