                               Psi4 1.4a3.dev225

  ==> Input File <==

--------------------------------------------------------------------------
#psi4
#
memory 32 gb

molecule  {
-1 1
  O        1.8724200    -0.7415990     0.3394840
  O        2.1027790     1.3758310    -0.4300950
  O       -3.3072830    -0.3512340    -0.9359590
  O       -2.5979240    -0.0254400     1.2183870
  C       -0.0530340     0.6334400     0.4456770
  C       -0.9175752    -0.1870313    -0.5183916
  C        1.3896910     0.5173160     0.0754460
  C       -2.4534200    -0.1528480    -0.0313600
  C        3.2289120    -0.9370400    -0.0704660
  H       -0.2424870     0.2042160     1.4320630
  H       -0.3042490     1.6964080     0.4822290
  H       -0.9505240     0.3810480    -1.5282220
  H       -0.6173950    -1.1275390    -0.6764200
  H        3.4625260    -1.9695390     0.1897820
  H        3.8993660    -0.2498350     0.4514950
  H        3.3382080    -0.7798600    -1.1461020
units angstrom
no_reorient  #important for SAPT in psi4, default
symmetry c1  #important for SAPT in psi4, default
}

set PROPERTIES_ORIGIN ["COM"]
properties('MP2/aug-cc-pvtz', properties = ['dipole'])
--------------------------------------------------------------------------

    Molecular point group: c1
  Charge       = -1
  Multiplicity = 1
  Basis Set: AUG-CC-PVTZ
    Blend: AUG-CC-PVTZ
  Basis Set: (AUG-CC-PVTZ AUX)
    Blend: AUG-CC-PVTZ-JKFIT

    Orbital Energies [Eh]
    ---------------------

    Doubly Occupied:

       1A    -20.495337     2A    -20.433454     3A    -20.310263
       4A    -20.308833     5A    -11.264954     6A    -11.190514
       7A    -11.157868     8A    -11.101550     9A    -11.077362
      10A     -1.341527    11A     -1.238768    12A     -1.177491
      13A     -1.082164    14A     -0.936153    15A     -0.856154
      16A     -0.756381    17A     -0.662108    18A     -0.577023
      19A     -0.568505    20A     -0.560757    21A     -0.528582
      22A     -0.487291    23A     -0.469762    24A     -0.450794
      25A     -0.429853    26A     -0.415916    27A     -0.412094
      28A     -0.398428    29A     -0.359460    30A     -0.350046
      31A     -0.338077    32A     -0.325773    33A     -0.226394
      34A     -0.209238    35A     -0.204942

  @DF-RHF Final Energy:  -493.09507774421041

   => Energetics <=

    Nuclear Repulsion Energy =            435.0284769920940562
    One-Electron Energy =               -1550.8394789383501120
    Two-Electron Energy =                 622.7159242020455849
    Total Energy =                       -493.0950777442104709
  Basis Set: (AUG-CC-PVTZ AUX)
    Blend: AUG-CC-PVTZ-RI
    Molecular point group: c1

    Geometry (in Angstrom), charge = -1, multiplicity = 1:

       Center              X                  Y                   Z               Mass
    ------------   -----------------  -----------------  -----------------  -----------------
         O            1.932578242139    -0.747293073105     0.331260481669    15.994914619570
         O            2.162937242139     1.370136926895    -0.438318518331    15.994914619570
         O           -3.247124757861    -0.356928073105    -0.944182518331    15.994914619570
         O           -2.537765757861    -0.031134073105     1.210163481669    15.994914619570
         C            0.007124242139     0.627745926895     0.437453481669    12.000000000000
         C           -0.857416957861    -0.192725373105    -0.526615118331    12.000000000000
         C            1.449849242139     0.511621926895     0.067222481669    12.000000000000
         C           -2.393261757861    -0.158542073105    -0.039583518331    12.000000000000
         C            3.289070242139    -0.942734073105    -0.078689518331    12.000000000000
         H           -0.182328757861     0.198521926895     1.423839481669     1.007825032230
         H           -0.244090757861     1.690713926895     0.474005481669     1.007825032230
         H           -0.890365757861     0.375353926895    -1.536445518331     1.007825032230
         H           -0.557236757861    -1.133233073105    -0.684643518331     1.007825032230
         H            3.522684242139    -1.975233073105     0.181558481669     1.007825032230
         H            3.959524242139    -0.255529073105     0.443271481669     1.007825032230
         H            3.398366242139    -0.785554073105    -1.154325518331     1.007825032230

  Basis Set: AUG-CC-PVTZ
    Blend: AUG-CC-PVTZ
  Basis Set: (AUG-CC-PVTZ AUX)
    Blend: AUG-CC-PVTZ-JKFIT
	 Reference Energy          =    -493.0950777442104140 [Eh]
	 Singles Energy            =      -0.0000000000000000 [Eh]
	 Same-Spin Energy          =      -0.4840531228669352 [Eh]
	 Opposite-Spin Energy      =      -1.4767824197828823 [Eh]
	 Correlation Energy        =      -1.9608355426498174 [Eh]
	 Total Energy              =    -495.0559132868602319 [Eh]

	 ================> DF-SCS-MP2 Energies <==================
	-----------------------------------------------------------
	 SCS Same-Spin Scale       =       0.3333333333333333 [-]
	 SCS Opposite-Spin Scale   =       1.2000000000000000 [-]
	 SCS Same-Spin Energy      =      -0.1613510409556451 [Eh]
	 SCS Opposite-Spin Energy  =      -1.7721389037394586 [Eh]
	 SCS Correlation Energy    =      -1.9334899446951037 [Eh]
	 SCS Total Energy          =    -495.0285676889055253 [Eh]
	-----------------------------------------------------------

  Dipole Moment: [D]
     X:    11.2234      Y:    -0.8469      Z:     0.0035     Total:    11.2553

*** Psi4 exiting successfully. Buy a developer a beer!
