                               Psi4 1.4a3.dev225

  ==> Input File <==

--------------------------------------------------------------------------
#psi4
#
memory 32 gb

molecule  {
-1 1
  O        1.8724200    -0.7415990     0.3394840
  O        2.1027790     1.3758310    -0.4300950
  O       -3.3072830    -0.3512340    -0.9359590
  O       -2.5979240    -0.0254400     1.2183870
  C       -0.0530340     0.6334400     0.4456770
  C       -0.9697120    -0.0967620    -0.5425230
  C        1.3896910     0.5173160     0.0754460
  C       -2.4534200    -0.1528480    -0.0313600
  C        3.2289120    -0.9370400    -0.0704660
  H       -0.2424870     0.2042160     1.4320630
  H       -0.3042490     1.6964080     0.4822290
  H       -0.9766516     0.4447230    -1.4948984
  H       -0.6173950    -1.1275390    -0.6764200
  H        3.4625260    -1.9695390     0.1897820
  H        3.8993660    -0.2498350     0.4514950
  H        3.3382080    -0.7798600    -1.1461020
units angstrom
no_reorient  #important for SAPT in psi4, default
symmetry c1  #important for SAPT in psi4, default
}

set PROPERTIES_ORIGIN ["COM"]
properties('MP2/aug-cc-pvtz', properties = ['dipole'])
--------------------------------------------------------------------------

    Molecular point group: c1
  Charge       = -1
  Multiplicity = 1
  Basis Set: AUG-CC-PVTZ
    Blend: AUG-CC-PVTZ
  Basis Set: (AUG-CC-PVTZ AUX)
    Blend: AUG-CC-PVTZ-JKFIT

    Orbital Energies [Eh]
    ---------------------

    Doubly Occupied:

       1A    -20.496145     2A    -20.434664     3A    -20.308822
       4A    -20.306622     5A    -11.266296     6A    -11.190939
       7A    -11.154300     8A    -11.100113     9A    -11.079697
      10A     -1.342254    11A     -1.239700    12A     -1.177437
      13A     -1.081240    14A     -0.935466    15A     -0.857410
      16A     -0.756345    17A     -0.661919    18A     -0.576314
      19A     -0.568834    20A     -0.560602    21A     -0.529202
      22A     -0.489057    23A     -0.468731    24A     -0.451685
      25A     -0.430605    26A     -0.418906    27A     -0.411143
      28A     -0.387942    29A     -0.360026    30A     -0.350305
      31A     -0.338332    32A     -0.329559    33A     -0.225552
      34A     -0.208886    35A     -0.208155

  @DF-RHF Final Energy:  -493.10790802288665

   => Energetics <=

    Nuclear Repulsion Energy =            435.1582714864235868
    One-Electron Energy =               -1551.1259467551799389
    Two-Electron Energy =                 622.8597672458697616
    Total Energy =                       -493.1079080228867042
  Basis Set: (AUG-CC-PVTZ AUX)
    Blend: AUG-CC-PVTZ-RI
    Molecular point group: c1

    Geometry (in Angstrom), charge = -1, multiplicity = 1:

       Center              X                  Y                   Z               Mass
    ------------   -----------------  -----------------  -----------------  -----------------
         O            1.937553832378    -0.756049587149     0.333214108929    15.994914619570
         O            2.167912832378     1.361380412851    -0.436364891071    15.994914619570
         O           -3.242149167622    -0.365684587149    -0.942228891071    15.994914619570
         O           -2.532790167622    -0.039890587149     1.212117108929    15.994914619570
         C            0.012099832378     0.618989412851     0.439407108929    12.000000000000
         C           -0.904578167622    -0.111212587149    -0.548792891071    12.000000000000
         C            1.454824832378     0.502865412851     0.069176108929    12.000000000000
         C           -2.388286167622    -0.167298587149    -0.037629891071    12.000000000000
         C            3.294045832378    -0.951490587149    -0.076735891071    12.000000000000
         H           -0.177353167622     0.189765412851     1.425793108929     1.007825032230
         H           -0.239115167622     1.681957412851     0.475959108929     1.007825032230
         H           -0.911517767622     0.430272412851    -1.501168291071     1.007825032230
         H           -0.552261167622    -1.141989587149    -0.682689891071     1.007825032230
         H            3.527659832378    -1.983989587149     0.183512108929     1.007825032230
         H            3.964499832378    -0.264285587149     0.445225108929     1.007825032230
         H            3.403341832378    -0.794310587149    -1.152371891071     1.007825032230

  Basis Set: AUG-CC-PVTZ
    Blend: AUG-CC-PVTZ
  Basis Set: (AUG-CC-PVTZ AUX)
    Blend: AUG-CC-PVTZ-JKFIT
	 Reference Energy          =    -493.1079080228866474 [Eh]
	 Singles Energy            =      -0.0000000000000000 [Eh]
	 Same-Spin Energy          =      -0.4837987691662493 [Eh]
	 Opposite-Spin Energy      =      -1.4761088934356503 [Eh]
	 Correlation Energy        =      -1.9599076626018996 [Eh]
	 Total Energy              =    -495.0678156854885401 [Eh]

	 ================> DF-SCS-MP2 Energies <==================
	-----------------------------------------------------------
	 SCS Same-Spin Scale       =       0.3333333333333333 [-]
	 SCS Opposite-Spin Scale   =       1.2000000000000000 [-]
	 SCS Same-Spin Energy      =      -0.1612662563887498 [Eh]
	 SCS Opposite-Spin Energy  =      -1.7713306721227804 [Eh]
	 SCS Correlation Energy    =      -1.9325969285115301 [Eh]
	 SCS Total Energy          =    -495.0405049513981908 [Eh]
	-----------------------------------------------------------

  Dipole Moment: [D]
     X:    11.3235      Y:    -0.7186      Z:    -0.0755     Total:    11.3466

*** Psi4 exiting successfully. Buy a developer a beer!
