                               Psi4 1.4a3.dev225

  ==> Input File <==

--------------------------------------------------------------------------
#psi4
#
memory 32 gb

molecule  {
-1 1
  O        1.8724200    -0.7415990     0.3394840
  O        2.1027790     1.3758310    -0.4300950
  O       -3.3072830    -0.3512340    -0.9359590
  O       -2.5979240    -0.0254400     1.2183870
  C       -0.0530340     0.6334400     0.4456770
  C       -0.9697120    -0.0967620    -0.5425230
  C        1.3896910     0.5173160     0.0754460
  C       -2.4534200    -0.1528480    -0.0313600
  C        3.2289120    -0.9370400    -0.0704660
  H       -0.2424870     0.2042160     1.4320630
  H       -0.3042490     1.6964080     0.4822290
  H       -0.9487726     0.4246609    -1.6181934
  H       -0.6173950    -1.1275390    -0.6764200
  H        3.4625260    -1.9695390     0.1897820
  H        3.8993660    -0.2498350     0.4514950
  H        3.3382080    -0.7798600    -1.1461020
units angstrom
no_reorient  #important for SAPT in psi4, default
symmetry c1  #important for SAPT in psi4, default
}

set PROPERTIES_ORIGIN ["COM"]
properties('MP2/aug-cc-pvtz', properties = ['dipole'])
--------------------------------------------------------------------------

    Molecular point group: c1
  Charge       = -1
  Multiplicity = 1
  Basis Set: AUG-CC-PVTZ
    Blend: AUG-CC-PVTZ
  Basis Set: (AUG-CC-PVTZ AUX)
    Blend: AUG-CC-PVTZ-JKFIT

    Orbital Energies [Eh]
    ---------------------

    Doubly Occupied:

       1A    -20.496467     2A    -20.434909     3A    -20.310227
       4A    -20.306541     5A    -11.266764     6A    -11.191111
       7A    -11.155915     8A    -11.102040     9A    -11.091771
      10A     -1.342535    11A     -1.239911    12A     -1.178080
      13A     -1.081888    14A     -0.934736    15A     -0.856271
      16A     -0.751916    17A     -0.662018    18A     -0.576426
      19A     -0.569039    20A     -0.561035    21A     -0.528440
      22A     -0.485921    23A     -0.463526    24A     -0.451429
      25A     -0.430471    26A     -0.419142    27A     -0.411746
      28A     -0.387136    29A     -0.359862    30A     -0.349012
      31A     -0.338141    32A     -0.323244    33A     -0.226117
      34A     -0.210310    35A     -0.208643

  @DF-RHF Final Energy:  -493.10182237627669

   => Energetics <=

    Nuclear Repulsion Energy =            434.6464653946836165
    One-Electron Energy =               -1550.0910924069098655
    Two-Electron Energy =                 622.3428046359495056
    Total Energy =                       -493.1018223762766866
  Basis Set: (AUG-CC-PVTZ AUX)
    Blend: AUG-CC-PVTZ-RI
    Molecular point group: c1

    Geometry (in Angstrom), charge = -1, multiplicity = 1:

       Center              X                  Y                   Z               Mass
    ------------   -----------------  -----------------  -----------------  -----------------
         O            1.937339406648    -0.755895283535     0.334162407662    15.994914619570
         O            2.167698406648     1.361534716465    -0.435416592338    15.994914619570
         O           -3.242363593352    -0.365530283535    -0.941280592338    15.994914619570
         O           -2.533004593352    -0.039736283535     1.213065407662    15.994914619570
         C            0.011885406648     0.619143716465     0.440355407662    12.000000000000
         C           -0.904792593352    -0.111058283535    -0.547844592338    12.000000000000
         C            1.454610406648     0.503019716465     0.070124407662    12.000000000000
         C           -2.388500593352    -0.167144283535    -0.036681592338    12.000000000000
         C            3.293831406648    -0.951336283535    -0.075787592338    12.000000000000
         H           -0.177567593352     0.189919716465     1.426741407662     1.007825032230
         H           -0.239329593352     1.682111716465     0.476907407662     1.007825032230
         H           -0.883853193352     0.410364616465    -1.623514992338     1.007825032230
         H           -0.552475593352    -1.141835283535    -0.681741592338     1.007825032230
         H            3.527445406648    -1.983835283535     0.184460407662     1.007825032230
         H            3.964285406648    -0.264131283535     0.446173407662     1.007825032230
         H            3.403127406648    -0.794156283535    -1.151423592338     1.007825032230

  Basis Set: AUG-CC-PVTZ
    Blend: AUG-CC-PVTZ
  Basis Set: (AUG-CC-PVTZ AUX)
    Blend: AUG-CC-PVTZ-JKFIT
	 Reference Energy          =    -493.1018223762766866 [Eh]
	 Singles Energy            =      -0.0000000000000000 [Eh]
	 Same-Spin Energy          =      -0.4837950251274744 [Eh]
	 Opposite-Spin Energy      =      -1.4767472324805382 [Eh]
	 Correlation Energy        =      -1.9605422576080125 [Eh]
	 Total Energy              =    -495.0623646338847266 [Eh]

	 ================> DF-SCS-MP2 Energies <==================
	-----------------------------------------------------------
	 SCS Same-Spin Scale       =       0.3333333333333333 [-]
	 SCS Opposite-Spin Scale   =       1.2000000000000000 [-]
	 SCS Same-Spin Energy      =      -0.1612650083758248 [Eh]
	 SCS Opposite-Spin Energy  =      -1.7720966789766457 [Eh]
	 SCS Correlation Energy    =      -1.9333616873524704 [Eh]
	 SCS Total Energy          =    -495.0351840636291740 [Eh]
	-----------------------------------------------------------

  Dipole Moment: [D]
     X:    11.3264      Y:    -0.7488      Z:    -0.0077     Total:    11.3511

*** Psi4 exiting successfully. Buy a developer a beer!
