                               Psi4 1.4a3.dev225

  ==> Input File <==

--------------------------------------------------------------------------
#psi4
#
memory 32 gb

molecule  {
-1 1
  O        1.8724200    -0.7415990     0.3394840
  O        2.1027790     1.3758310    -0.4300950
  O       -3.3072830    -0.3512340    -0.9359590
  O       -2.5979240    -0.0254400     1.2183870
  C       -0.0530340     0.6334400     0.4456770
  C       -0.9697120    -0.0967620    -0.5425230
  C        1.3896910     0.5173160     0.0754460
  C       -2.4534200    -0.1528480    -0.0313600
  C        3.2289120    -0.9370400    -0.0704660
  H       -0.2424870     0.2042160     1.4320630
  H       -0.3042490     1.6964080     0.4822290
  H       -0.9635841     0.4131961    -1.5121509
  H       -0.6173950    -1.1275390    -0.6764200
  H        3.4625260    -1.9695390     0.1897820
  H        3.8993660    -0.2498350     0.4514950
  H        3.3382080    -0.7798600    -1.1461020
units angstrom
no_reorient  #important for SAPT in psi4, default
symmetry c1  #important for SAPT in psi4, default
}

set PROPERTIES_ORIGIN ["COM"]
properties('MP2/aug-cc-pvtz', properties = ['dipole'])
--------------------------------------------------------------------------

    Molecular point group: c1
  Charge       = -1
  Multiplicity = 1
  Basis Set: AUG-CC-PVTZ
    Blend: AUG-CC-PVTZ
  Basis Set: (AUG-CC-PVTZ AUX)
    Blend: AUG-CC-PVTZ-JKFIT

    Orbital Energies [Eh]
    ---------------------

    Doubly Occupied:

       1A    -20.496166     2A    -20.434710     3A    -20.308904
       4A    -20.306537     5A    -11.266367     6A    -11.190961
       7A    -11.154478     8A    -11.100438     9A    -11.079647
      10A     -1.342287    11A     -1.239737    12A     -1.177424
      13A     -1.081243    14A     -0.935416    15A     -0.857349
      16A     -0.756493    17A     -0.662041    18A     -0.576587
      19A     -0.568816    20A     -0.560693    21A     -0.529808
      22A     -0.488410    23A     -0.467450    24A     -0.451914
      25A     -0.430902    26A     -0.418994    27A     -0.411241
      28A     -0.387373    29A     -0.360330    30A     -0.351775
      31A     -0.338155    32A     -0.328703    33A     -0.225700
      34A     -0.209081    35A     -0.208137

  @DF-RHF Final Energy:  -493.10833049671373

   => Energetics <=

    Nuclear Repulsion Energy =            435.1372630720334769
    One-Electron Energy =               -1551.0826541946696580
    Two-Electron Energy =                 622.8370606259225042
    Total Energy =                       -493.1083304967137337
  Basis Set: (AUG-CC-PVTZ AUX)
    Blend: AUG-CC-PVTZ-RI
    Molecular point group: c1

    Geometry (in Angstrom), charge = -1, multiplicity = 1:

       Center              X                  Y                   Z               Mass
    ------------   -----------------  -----------------  -----------------  -----------------
         O            1.937453326326    -0.755807104329     0.333346803068    15.994914619570
         O            2.167812326326     1.361622895671    -0.436232196932    15.994914619570
         O           -3.242249673674    -0.365442104329    -0.942096196932    15.994914619570
         O           -2.532890673674    -0.039648104329     1.212249803068    15.994914619570
         C            0.011999326326     0.619231895671     0.439539803068    12.000000000000
         C           -0.904678673674    -0.110970104329    -0.548660196932    12.000000000000
         C            1.454724326326     0.503107895671     0.069308803068    12.000000000000
         C           -2.388386673674    -0.167056104329    -0.037497196932    12.000000000000
         C            3.293945326326    -0.951248104329    -0.076603196932    12.000000000000
         H           -0.177453673674     0.190007895671     1.425925803068     1.007825032230
         H           -0.239215673674     1.682199895671     0.476091803068     1.007825032230
         H           -0.898550773674     0.398987995671    -1.518288096932     1.007825032230
         H           -0.552361673674    -1.141747104329    -0.682557196932     1.007825032230
         H            3.527559326326    -1.983747104329     0.183644803068     1.007825032230
         H            3.964399326326    -0.264043104329     0.445357803068     1.007825032230
         H            3.403241326326    -0.794068104329    -1.152239196932     1.007825032230

  Basis Set: AUG-CC-PVTZ
    Blend: AUG-CC-PVTZ
  Basis Set: (AUG-CC-PVTZ AUX)
    Blend: AUG-CC-PVTZ-JKFIT
	 Reference Energy          =    -493.1083304967137337 [Eh]
	 Singles Energy            =      -0.0000000000000000 [Eh]
	 Same-Spin Energy          =      -0.4837644268302893 [Eh]
	 Opposite-Spin Energy      =      -1.4760325431211438 [Eh]
	 Correlation Energy        =      -1.9597969699514333 [Eh]
	 Total Energy              =    -495.0681274666651461 [Eh]

	 ================> DF-SCS-MP2 Energies <==================
	-----------------------------------------------------------
	 SCS Same-Spin Scale       =       0.3333333333333333 [-]
	 SCS Opposite-Spin Scale   =       1.2000000000000000 [-]
	 SCS Same-Spin Energy      =      -0.1612548089434298 [Eh]
	 SCS Opposite-Spin Energy  =      -1.7712390517453727 [Eh]
	 SCS Correlation Energy    =      -1.9324938606888025 [Eh]
	 SCS Total Energy          =    -495.0408243574025278 [Eh]
	-----------------------------------------------------------

  Dipole Moment: [D]
     X:    11.3335      Y:    -0.7236      Z:    -0.0807     Total:    11.3569

*** Psi4 exiting successfully. Buy a developer a beer!
