                               Psi4 1.4a3.dev225

  ==> Input File <==

--------------------------------------------------------------------------
#psi4
#
memory 32 gb

molecule  {
-1 1
  O        1.8724200    -0.7415990     0.3394840
  O        2.1027790     1.3758310    -0.4300950
  O       -3.3072830    -0.3512340    -0.9359590
  O       -2.5979240    -0.0254400     1.2183870
  C       -0.0530340     0.6334400     0.4456770
  C       -0.8899106    -0.2306937    -0.5045563
  C        1.3896910     0.5173160     0.0754460
  C       -2.4534200    -0.1528480    -0.0313600
  C        3.2289120    -0.9370400    -0.0704660
  H       -0.2424870     0.2042160     1.4320630
  H       -0.3042490     1.6964080     0.4822290
  H       -0.9505240     0.3810480    -1.5282220
  H       -0.6173950    -1.1275390    -0.6764200
  H        3.4625260    -1.9695390     0.1897820
  H        3.8993660    -0.2498350     0.4514950
  H        3.3382080    -0.7798600    -1.1461020
units angstrom
no_reorient  #important for SAPT in psi4, default
symmetry c1  #important for SAPT in psi4, default
}

set PROPERTIES_ORIGIN ["COM"]
properties('MP2/aug-cc-pvtz', properties = ['dipole'])
--------------------------------------------------------------------------

    Molecular point group: c1
  Charge       = -1
  Multiplicity = 1
  Basis Set: AUG-CC-PVTZ
    Blend: AUG-CC-PVTZ
  Basis Set: (AUG-CC-PVTZ AUX)
    Blend: AUG-CC-PVTZ-JKFIT

    Orbital Energies [Eh]
    ---------------------

    Doubly Occupied:

       1A    -20.494875     2A    -20.432798     3A    -20.311242
       4A    -20.310331     5A    -11.264268     6A    -11.190248
       7A    -11.160180     8A    -11.102584     9A    -11.077105
      10A     -1.341121    11A     -1.238259    12A     -1.177837
      13A     -1.082934    14A     -0.936887    15A     -0.855739
      16A     -0.757793    17A     -0.662373    18A     -0.577857
      19A     -0.568252    20A     -0.561092    21A     -0.529327
      22A     -0.486477    23A     -0.471948    24A     -0.450204
      25A     -0.429540    26A     -0.415795    27A     -0.412340
      28A     -0.403254    29A     -0.359634    30A     -0.351968
      31A     -0.335626    32A     -0.319502    33A     -0.226920
      34A     -0.210035    35A     -0.202335

  @DF-RHF Final Energy:  -493.07744192749919

   => Energetics <=

    Nuclear Repulsion Energy =            434.9808107306619149
    One-Electron Energy =               -1550.6991490737873391
    Two-Electron Energy =                 622.6408964156262300
    Total Energy =                       -493.0774419274991942
  Basis Set: (AUG-CC-PVTZ AUX)
    Blend: AUG-CC-PVTZ-RI
    Molecular point group: c1

    Geometry (in Angstrom), charge = -1, multiplicity = 1:

       Center              X                  Y                   Z               Mass
    ------------   -----------------  -----------------  -----------------  -----------------
         O            1.930044746243    -0.743294514977     0.329993458984    15.994914619570
         O            2.160403746243     1.374135485023    -0.439585541016    15.994914619570
         O           -3.249658253757    -0.352929514977    -0.945449541016    15.994914619570
         O           -2.540299253757    -0.027135514977     1.208896458984    15.994914619570
         C            0.004590746243     0.631744485023     0.436186458984    12.000000000000
         C           -0.832285853757    -0.232389214977    -0.514046841016    12.000000000000
         C            1.447315746243     0.515620485023     0.065955458984    12.000000000000
         C           -2.395795253757    -0.154543514977    -0.040850541016    12.000000000000
         C            3.286536746243    -0.938735514977    -0.079956541016    12.000000000000
         H           -0.184862253757     0.202520485023     1.422572458984     1.007825032230
         H           -0.246624253757     1.694712485023     0.472738458984     1.007825032230
         H           -0.892899253757     0.379352485023    -1.537712541016     1.007825032230
         H           -0.559770253757    -1.129234514977    -0.685910541016     1.007825032230
         H            3.520150746243    -1.971234514977     0.180291458984     1.007825032230
         H            3.956990746243    -0.251530514977     0.442004458984     1.007825032230
         H            3.395832746243    -0.781555514977    -1.155592541016     1.007825032230

  Basis Set: AUG-CC-PVTZ
    Blend: AUG-CC-PVTZ
  Basis Set: (AUG-CC-PVTZ AUX)
    Blend: AUG-CC-PVTZ-JKFIT
	 Reference Energy          =    -493.0774419274991942 [Eh]
	 Singles Energy            =      -0.0000000000000000 [Eh]
	 Same-Spin Energy          =      -0.4844029196362675 [Eh]
	 Opposite-Spin Energy      =      -1.4777163006137291 [Eh]
	 Correlation Energy        =      -1.9621192202499964 [Eh]
	 Total Energy              =    -495.0395611477491684 [Eh]

	 ================> DF-SCS-MP2 Energies <==================
	-----------------------------------------------------------
	 SCS Same-Spin Scale       =       0.3333333333333333 [-]
	 SCS Opposite-Spin Scale   =       1.2000000000000000 [-]
	 SCS Same-Spin Energy      =      -0.1614676398787558 [Eh]
	 SCS Opposite-Spin Energy  =      -1.7732595607364747 [Eh]
	 SCS Correlation Energy    =      -1.9347272006152305 [Eh]
	 SCS Total Energy          =    -495.0121691281144081 [Eh]
	-----------------------------------------------------------

  Dipole Moment: [D]
     X:    11.1461      Y:    -0.8929      Z:     0.0613     Total:    11.1819

*** Psi4 exiting successfully. Buy a developer a beer!
