                               Psi4 1.4a3.dev225

  ==> Input File <==

--------------------------------------------------------------------------
#psi4
#
memory 32 gb

molecule  {
-1 1
  O        1.8724200    -0.7415990     0.3394840
  O        2.1027790     1.3758310    -0.4300950
  O       -3.3072830    -0.3512340    -0.9359590
  O       -2.5979240    -0.0254400     1.2183870
  C       -0.0530340     0.6334400     0.4456770
  C       -0.9697120    -0.0967620    -0.5425230
  C        1.3790338     0.5409222     0.0301853
  C       -2.4534200    -0.1528480    -0.0313600
  C        3.2289120    -0.9370400    -0.0704660
  H       -0.2424870     0.2042160     1.4320630
  H       -0.3042490     1.6964080     0.4822290
  H       -0.9505240     0.3810480    -1.5282220
  H       -0.6173950    -1.1275390    -0.6764200
  H        3.4625260    -1.9695390     0.1897820
  H        3.8993660    -0.2498350     0.4514950
  H        3.3382080    -0.7798600    -1.1461020
units angstrom
no_reorient  #important for SAPT in psi4, default
symmetry c1  #important for SAPT in psi4, default
}

set PROPERTIES_ORIGIN ["COM"]
properties('MP2/aug-cc-pvtz', properties = ['dipole'])
--------------------------------------------------------------------------

    Molecular point group: c1
  Charge       = -1
  Multiplicity = 1
  Basis Set: AUG-CC-PVTZ
    Blend: AUG-CC-PVTZ
  Basis Set: (AUG-CC-PVTZ AUX)
    Blend: AUG-CC-PVTZ-JKFIT

    Orbital Energies [Eh]
    ---------------------

    Doubly Occupied:

       1A    -20.486724     2A    -20.442292     3A    -20.309291
       4A    -20.306514     5A    -11.265741     6A    -11.186423
       7A    -11.154709     8A    -11.101714     9A    -11.079520
      10A     -1.340034    11A     -1.248343    12A     -1.177578
      13A     -1.081418    14A     -0.934677    15A     -0.849970
      16A     -0.756263    17A     -0.656203    18A     -0.581033
      19A     -0.567944    20A     -0.555121    21A     -0.529435
      22A     -0.493255    23A     -0.463546    24A     -0.455551
      25A     -0.432104    26A     -0.419042    27A     -0.412638
      28A     -0.386028    29A     -0.359212    30A     -0.356232
      31A     -0.339142    32A     -0.328853    33A     -0.226113
      34A     -0.209193    35A     -0.208260

  @DF-RHF Final Energy:  -493.10708214992997

   => Energetics <=

    Nuclear Repulsion Energy =            435.1335900514729929
    One-Electron Energy =               -1551.0811125808618272
    Two-Electron Energy =                 622.8404403794588688
    Total Energy =                       -493.1070821499299655
  Basis Set: (AUG-CC-PVTZ AUX)
    Blend: AUG-CC-PVTZ-RI
    Molecular point group: c1

    Geometry (in Angstrom), charge = -1, multiplicity = 1:

       Center              X                  Y                   Z               Mass
    ------------   -----------------  -----------------  -----------------  -----------------
         O            1.938328852712    -0.757721675430     0.337615339522    15.994914619570
         O            2.168687852712     1.359708324570    -0.431963660478    15.994914619570
         O           -3.241374147288    -0.367356675430    -0.937827660478    15.994914619570
         O           -2.532015147288    -0.041562675430     1.216518339522    15.994914619570
         C            0.012874852712     0.617317324570     0.443808339522    12.000000000000
         C           -0.903803147288    -0.112884675430    -0.544391660478    12.000000000000
         C            1.444942652712     0.524799524570     0.028316639522    12.000000000000
         C           -2.387511147288    -0.168970675430    -0.033228660478    12.000000000000
         C            3.294820852712    -0.953162675430    -0.072334660478    12.000000000000
         H           -0.176578147288     0.188093324570     1.430194339522     1.007825032230
         H           -0.238340147288     1.680285324570     0.480360339522     1.007825032230
         H           -0.884615147288     0.364925324570    -1.530090660478     1.007825032230
         H           -0.551486147288    -1.143661675430    -0.678288660478     1.007825032230
         H            3.528434852712    -1.985661675430     0.187913339522     1.007825032230
         H            3.965274852712    -0.265957675430     0.449626339522     1.007825032230
         H            3.404116852712    -0.795982675430    -1.147970660478     1.007825032230

  Basis Set: AUG-CC-PVTZ
    Blend: AUG-CC-PVTZ
  Basis Set: (AUG-CC-PVTZ AUX)
    Blend: AUG-CC-PVTZ-JKFIT
	 Reference Energy          =    -493.1070821499299655 [Eh]
	 Singles Energy            =      -0.0000000000000000 [Eh]
	 Same-Spin Energy          =      -0.4835543963225838 [Eh]
	 Opposite-Spin Energy      =      -1.4757502628715260 [Eh]
	 Correlation Energy        =      -1.9593046591941099 [Eh]
	 Total Energy              =    -495.0663868091240829 [Eh]

	 ================> DF-SCS-MP2 Energies <==================
	-----------------------------------------------------------
	 SCS Same-Spin Scale       =       0.3333333333333333 [-]
	 SCS Opposite-Spin Scale   =       1.2000000000000000 [-]
	 SCS Same-Spin Energy      =      -0.1611847987741946 [Eh]
	 SCS Opposite-Spin Energy  =      -1.7709003154458312 [Eh]
	 SCS Correlation Energy    =      -1.9320851142200257 [Eh]
	 SCS Total Energy          =    -495.0391672641499667 [Eh]
	-----------------------------------------------------------

  Dipole Moment: [D]
     X:    11.2488      Y:    -0.4325      Z:    -0.2118     Total:    11.2591

*** Psi4 exiting successfully. Buy a developer a beer!
