                               Psi4 1.4a3.dev225

  ==> Input File <==

--------------------------------------------------------------------------
#psi4
#
memory 32 gb

molecule  {
-1 1
  O        1.8724200    -0.7415990     0.3394840
  O        2.1027790     1.3758310    -0.4300950
  O       -3.3072830    -0.3512340    -0.9359590
  O       -2.5979240    -0.0254400     1.2183870
  C       -0.0530340     0.6334400     0.4456770
  C       -0.9697120    -0.0967620    -0.5425230
  C        1.3896910     0.5173160     0.0754460
  C       -2.4534200    -0.1528480    -0.0313600
  C        3.2289120    -0.9370400    -0.0704660
  H       -0.2424870     0.2042160     1.4320630
  H       -0.3042490     1.6964080     0.4822290
  H       -0.9505240     0.3810480    -1.5282220
  H       -0.6815972    -0.9397020    -0.6520201
  H        3.4625260    -1.9695390     0.1897820
  H        3.8993660    -0.2498350     0.4514950
  H        3.3382080    -0.7798600    -1.1461020
units angstrom
no_reorient  #important for SAPT in psi4, default
symmetry c1  #important for SAPT in psi4, default
}

set PROPERTIES_ORIGIN ["COM"]
properties('MP2/aug-cc-pvtz', properties = ['dipole'])
--------------------------------------------------------------------------

    Molecular point group: c1
  Charge       = -1
  Multiplicity = 1
  Basis Set: AUG-CC-PVTZ
    Blend: AUG-CC-PVTZ
  Basis Set: (AUG-CC-PVTZ AUX)
    Blend: AUG-CC-PVTZ-JKFIT

    Orbital Energies [Eh]
    ---------------------

    Doubly Occupied:

       1A    -20.496738     2A    -20.434468     3A    -20.308259
       4A    -20.306124     5A    -11.266104     6A    -11.191278
       7A    -11.153282     8A    -11.098909     9A    -11.054309
      10A     -1.342561    11A     -1.239730    12A     -1.176975
      13A     -1.080676    14A     -0.940538    15A     -0.862225
      16A     -0.773167    17A     -0.664039    18A     -0.578876
      19A     -0.569550    20A     -0.562555    21A     -0.536290
      22A     -0.493328    23A     -0.474973    24A     -0.452131
      25A     -0.432387    26A     -0.419405    27A     -0.411058
      28A     -0.392942    29A     -0.360427    30A     -0.352030
      31A     -0.343066    32A     -0.331603    33A     -0.225344
      34A     -0.208153    35A     -0.207685

  @DF-RHF Final Energy:  -493.07574082847128

   => Energetics <=

    Nuclear Repulsion Energy =            436.1594627776459561
    One-Electron Energy =               -1552.9880354597482892
    Two-Electron Energy =                 623.7528318536310508
    Total Energy =                       -493.0757408284712255
  Basis Set: (AUG-CC-PVTZ AUX)
    Blend: AUG-CC-PVTZ-RI
    Molecular point group: c1

    Geometry (in Angstrom), charge = -1, multiplicity = 1:

       Center              X                  Y                   Z               Mass
    ------------   -----------------  -----------------  -----------------  -----------------
         O            1.937846675517    -0.757004554237     0.333282743776    15.994914619570
         O            2.168205675517     1.360425445763    -0.436296256224    15.994914619570
         O           -3.241856324483    -0.366639554237    -0.942160256224    15.994914619570
         O           -2.532497324483    -0.040845554237     1.212185743776    15.994914619570
         C            0.012392675517     0.618034445763     0.439475743776    12.000000000000
         C           -0.904285324483    -0.112167554237    -0.548724256224    12.000000000000
         C            1.455117675517     0.501910445763     0.069244743776    12.000000000000
         C           -2.387993324483    -0.168253554237    -0.037561256224    12.000000000000
         C            3.294338675517    -0.952445554237    -0.076667256224    12.000000000000
         H           -0.177060324483     0.188810445763     1.425861743776     1.007825032230
         H           -0.238822324483     1.681002445763     0.476027743776     1.007825032230
         H           -0.885097324483     0.365642445763    -1.534423256224     1.007825032230
         H           -0.616170524483    -0.955107554237    -0.658221356224     1.007825032230
         H            3.527952675517    -1.984944554237     0.183580743776     1.007825032230
         H            3.964792675517    -0.265240554237     0.445293743776     1.007825032230
         H            3.403634675517    -0.795265554237    -1.152303256224     1.007825032230

  Basis Set: AUG-CC-PVTZ
    Blend: AUG-CC-PVTZ
  Basis Set: (AUG-CC-PVTZ AUX)
    Blend: AUG-CC-PVTZ-JKFIT
	 Reference Energy          =    -493.0757408284712824 [Eh]
	 Singles Energy            =      -0.0000000000000000 [Eh]
	 Same-Spin Energy          =      -0.4837421752115118 [Eh]
	 Opposite-Spin Energy      =      -1.4753914760962243 [Eh]
	 Correlation Energy        =      -1.9591336513077362 [Eh]
	 Total Energy              =    -495.0348744797790346 [Eh]

	 ================> DF-SCS-MP2 Energies <==================
	-----------------------------------------------------------
	 SCS Same-Spin Scale       =       0.3333333333333333 [-]
	 SCS Opposite-Spin Scale   =       1.2000000000000000 [-]
	 SCS Same-Spin Energy      =      -0.1612473917371706 [Eh]
	 SCS Opposite-Spin Energy  =      -1.7704697713154691 [Eh]
	 SCS Correlation Energy    =      -1.9317171630526397 [Eh]
	 SCS Total Energy          =    -495.0074579915239497 [Eh]
	-----------------------------------------------------------

  Dipole Moment: [D]
     X:    11.3811      Y:    -0.7988      Z:    -0.1229     Total:    11.4098

*** Psi4 exiting successfully. Buy a developer a beer!
