                               Psi4 1.4a3.dev225

  ==> Input File <==

--------------------------------------------------------------------------
#psi4
#
memory 32 gb

molecule  {
-1 1
  O        1.8724200    -0.7415990     0.3394840
  O        2.1027790     1.3758310    -0.4300950
  O       -3.3072830    -0.3512340    -0.9359590
  O       -2.5979240    -0.0254400     1.2183870
  C       -0.0530340     0.6334400     0.4456770
  C       -0.9697120    -0.0967620    -0.5425230
  C        1.3896910     0.5173160     0.0754460
  C       -2.4534200    -0.1528480    -0.0313600
  C        3.2289120    -0.9370400    -0.0704660
  H       -0.2424870     0.2042160     1.4320630
  H       -0.3042490     1.6964080     0.4822290
  H       -0.9505240     0.3810480    -1.5282220
  H       -0.6173950    -1.1275390    -0.6764200
  H        3.4839561    -2.0642534     0.2136554
  H        3.8993660    -0.2498350     0.4514950
  H        3.3382080    -0.7798600    -1.1461020
units angstrom
no_reorient  #important for SAPT in psi4, default
symmetry c1  #important for SAPT in psi4, default
}

set PROPERTIES_ORIGIN ["COM"]
properties('MP2/aug-cc-pvtz', properties = ['dipole'])
--------------------------------------------------------------------------

    Molecular point group: c1
  Charge       = -1
  Multiplicity = 1
  Basis Set: AUG-CC-PVTZ
    Blend: AUG-CC-PVTZ
  Basis Set: (AUG-CC-PVTZ AUX)
    Blend: AUG-CC-PVTZ-JKFIT

    Orbital Energies [Eh]
    ---------------------

    Doubly Occupied:

       1A    -20.497771     2A    -20.435853     3A    -20.309280
       4A    -20.306731     5A    -11.267673     6A    -11.203303
       7A    -11.154988     8A    -11.101447     9A    -11.080027
      10A     -1.343608    11A     -1.240827    12A     -1.177703
      13A     -1.081533    14A     -0.935042    15A     -0.850517
      16A     -0.755860    17A     -0.663291    18A     -0.576540
      19A     -0.569681    20A     -0.557580    21A     -0.530248
      22A     -0.485685    23A     -0.462319    24A     -0.451093
      25A     -0.426784    26A     -0.417539    27A     -0.411562
      28A     -0.387048    29A     -0.361736    30A     -0.353764
      31A     -0.338739    32A     -0.328199    33A     -0.226138
      34A     -0.209579    35A     -0.208395

  @DF-RHF Final Energy:  -493.10184075392698

   => Energetics <=

    Nuclear Repulsion Energy =            434.6784400339914214
    One-Electron Energy =               -1550.1443887169343725
    Two-Electron Energy =                 622.3641079290160860
    Total Energy =                       -493.1018407539269219
  Basis Set: (AUG-CC-PVTZ AUX)
    Blend: AUG-CC-PVTZ-RI
    Molecular point group: c1

    Geometry (in Angstrom), charge = -1, multiplicity = 1:

       Center              X                  Y                   Z               Mass
    ------------   -----------------  -----------------  -----------------  -----------------
         O            1.937188051879    -0.754831366887     0.333286793245    15.994914619570
         O            2.167547051879     1.362598633113    -0.436292206755    15.994914619570
         O           -3.242514948121    -0.364466366887    -0.942156206755    15.994914619570
         O           -2.533155948121    -0.038672366887     1.212189793245    15.994914619570
         C            0.011734051879     0.620207633113     0.439479793245    12.000000000000
         C           -0.904943948121    -0.109994366887    -0.548720206755    12.000000000000
         C            1.454459051879     0.504083633113     0.069248793245    12.000000000000
         C           -2.388651948121    -0.166080366887    -0.037557206755    12.000000000000
         C            3.293680051879    -0.950272366887    -0.076663206755    12.000000000000
         H           -0.177718948121     0.190983633113     1.425865793245     1.007825032230
         H           -0.239480948121     1.683175633113     0.476031793245     1.007825032230
         H           -0.885755948121     0.367815633113    -1.534419206755     1.007825032230
         H           -0.552626948121    -1.140771366887    -0.682617206755     1.007825032230
         H            3.548724151879    -2.077485766887     0.207458193245     1.007825032230
         H            3.964134051879    -0.263067366887     0.445297793245     1.007825032230
         H            3.402976051879    -0.793092366887    -1.152299206755     1.007825032230

  Basis Set: AUG-CC-PVTZ
    Blend: AUG-CC-PVTZ
  Basis Set: (AUG-CC-PVTZ AUX)
    Blend: AUG-CC-PVTZ-JKFIT
	 Reference Energy          =    -493.1018407539269788 [Eh]
	 Singles Energy            =      -0.0000000000000000 [Eh]
	 Same-Spin Energy          =      -0.4837323874193650 [Eh]
	 Opposite-Spin Energy      =      -1.4766939583261534 [Eh]
	 Correlation Energy        =      -1.9604263457455184 [Eh]
	 Total Energy              =    -495.0622670996725105 [Eh]

	 ================> DF-SCS-MP2 Energies <==================
	-----------------------------------------------------------
	 SCS Same-Spin Scale       =       0.3333333333333333 [-]
	 SCS Opposite-Spin Scale   =       1.2000000000000000 [-]
	 SCS Same-Spin Energy      =      -0.1612441291397883 [Eh]
	 SCS Opposite-Spin Energy  =      -1.7720327499913839 [Eh]
	 SCS Correlation Energy    =      -1.9332768791311723 [Eh]
	 SCS Total Energy          =    -495.0351176330581779 [Eh]
	-----------------------------------------------------------

  Dipole Moment: [D]
     X:    11.2896      Y:    -0.6611      Z:    -0.0942     Total:    11.3093

*** Psi4 exiting successfully. Buy a developer a beer!
