                               Psi4 1.4a3.dev225

  ==> Input File <==

--------------------------------------------------------------------------
#psi4
#
memory 32 gb

molecule  {
-1 1
  O        1.8724200    -0.7415990     0.3394840
  O        2.1027790     1.3758310    -0.4300950
  O       -3.3072830    -0.3512340    -0.9359590
  O       -2.5979240    -0.0254400     1.2183870
  C       -0.0530340     0.6334400     0.4456770
  C       -0.9697120    -0.0967620    -0.5425230
  C        1.5060946     0.6574589    -0.0070779
  C       -2.4534200    -0.1528480    -0.0313600
  C        3.2289120    -0.9370400    -0.0704660
  H       -0.2424870     0.2042160     1.4320630
  H       -0.3042490     1.6964080     0.4822290
  H       -0.9505240     0.3810480    -1.5282220
  H       -0.6173950    -1.1275390    -0.6764200
  H        3.4625260    -1.9695390     0.1897820
  H        3.8993660    -0.2498350     0.4514950
  H        3.3382080    -0.7798600    -1.1461020
units angstrom
no_reorient  #important for SAPT in psi4, default
symmetry c1  #important for SAPT in psi4, default
}

set PROPERTIES_ORIGIN ["COM"]
properties('MP2/aug-cc-pvtz', properties = ['dipole'])
--------------------------------------------------------------------------

    Molecular point group: c1
  Charge       = -1
  Multiplicity = 1
  Basis Set: AUG-CC-PVTZ
    Blend: AUG-CC-PVTZ
  Basis Set: (AUG-CC-PVTZ AUX)
    Blend: AUG-CC-PVTZ-JKFIT

    Orbital Energies [Eh]
    ---------------------

    Doubly Occupied:

       1A    -20.473852     2A    -20.459452     3A    -20.303915
       4A    -20.301687     5A    -11.247210     6A    -11.175708
       7A    -11.149242     8A    -11.099030     9A    -11.070988
      10A     -1.456981    11A     -1.248269    12A     -1.172400
      13A     -1.076323    14A     -0.903018    15A     -0.830792
      16A     -0.736062    17A     -0.662105    18A     -0.627374
      19A     -0.583489    20A     -0.564224    21A     -0.523244
      22A     -0.503168    23A     -0.496763    24A     -0.461334
      25A     -0.436337    26A     -0.418635    27A     -0.410858
      28A     -0.378375    29A     -0.358779    30A     -0.344851
      31A     -0.323284    32A     -0.304851    33A     -0.220779
      34A     -0.203743    35A     -0.201926

  @DF-RHF Final Energy:  -493.02902082306787

   => Energetics <=

    Nuclear Repulsion Energy =            435.6752466214464903
    One-Electron Energy =               -1551.9504425144050401
    Two-Electron Energy =                 623.2461750698905689
    Total Energy =                       -493.0290208230678672
  Basis Set: (AUG-CC-PVTZ AUX)
    Blend: AUG-CC-PVTZ-RI
    Molecular point group: c1

    Geometry (in Angstrom), charge = -1, multiplicity = 1:

       Center              X                  Y                   Z               Mass
    ------------   -----------------  -----------------  -----------------  -----------------
         O            1.926692754041    -0.768393987741     0.341027865431    15.994914619570
         O            2.157051754041     1.349036012259    -0.428551134569    15.994914619570
         O           -3.253010245959    -0.378028987741    -0.934415134569    15.994914619570
         O           -2.543651245959    -0.052234987741     1.219930865431    15.994914619570
         C            0.001238754041     0.606645012259     0.447220865431    12.000000000000
         C           -0.915439245959    -0.123556987741    -0.540979134569    12.000000000000
         C            1.560367354041     0.630663912259    -0.005534034569    12.000000000000
         C           -2.399147245959    -0.179642987741    -0.029816134569    12.000000000000
         C            3.283184754041    -0.963834987741    -0.068922134569    12.000000000000
         H           -0.188214245959     0.177421012259     1.433606865431     1.007825032230
         H           -0.249976245959     1.669613012259     0.483772865431     1.007825032230
         H           -0.896251245959     0.354253012259    -1.526678134569     1.007825032230
         H           -0.563122245959    -1.154333987741    -0.674876134569     1.007825032230
         H            3.516798754041    -1.996333987741     0.191325865431     1.007825032230
         H            3.953638754041    -0.276629987741     0.453038865431     1.007825032230
         H            3.392480754041    -0.806654987741    -1.144558134569     1.007825032230

  Basis Set: AUG-CC-PVTZ
    Blend: AUG-CC-PVTZ
  Basis Set: (AUG-CC-PVTZ AUX)
    Blend: AUG-CC-PVTZ-JKFIT
	 Reference Energy          =    -493.0290208230678672 [Eh]
	 Singles Energy            =      -0.0000000000000000 [Eh]
	 Same-Spin Energy          =      -0.4807938525900299 [Eh]
	 Opposite-Spin Energy      =      -1.4709399278019994 [Eh]
	 Correlation Energy        =      -1.9517337803920294 [Eh]
	 Total Energy              =    -494.9807546034599000 [Eh]

	 ================> DF-SCS-MP2 Energies <==================
	-----------------------------------------------------------
	 SCS Same-Spin Scale       =       0.3333333333333333 [-]
	 SCS Opposite-Spin Scale   =       1.2000000000000000 [-]
	 SCS Same-Spin Energy      =      -0.1602646175300100 [Eh]
	 SCS Opposite-Spin Energy  =      -1.7651279133623994 [Eh]
	 SCS Correlation Energy    =      -1.9253925308924094 [Eh]
	 SCS Total Energy          =    -494.9544133539602626 [Eh]
	-----------------------------------------------------------

  Dipole Moment: [D]
     X:    11.9366      Y:     0.7285      Z:    -0.6373     Total:    11.9757

*** Psi4 exiting successfully. Buy a developer a beer!
