                               Psi4 1.4a3.dev225

  ==> Input File <==

--------------------------------------------------------------------------
#psi4
#
memory 32 gb

molecule  {
-1 1
  O        1.8724200    -0.7415990     0.3394840
  O        2.1027790     1.3758310    -0.4300950
  O       -3.3072830    -0.3512340    -0.9359590
  O       -2.5979240    -0.0254400     1.2183870
  C       -0.0530340     0.6334400     0.4456770
  C       -0.9697120    -0.0967620    -0.5425230
  C        1.3896910     0.5173160     0.0754460
  C       -2.4534200    -0.1528480    -0.0313600
  C        3.2289120    -0.9370400    -0.0704660
  H       -0.2424870     0.2042160     1.4320630
  H       -0.3042490     1.6964080     0.4822290
  H       -0.9374873     0.3483177    -1.5430922
  H       -0.6173950    -1.1275390    -0.6764200
  H        3.4625260    -1.9695390     0.1897820
  H        3.8993660    -0.2498350     0.4514950
  H        3.3382080    -0.7798600    -1.1461020
units angstrom
no_reorient  #important for SAPT in psi4, default
symmetry c1  #important for SAPT in psi4, default
}

set PROPERTIES_ORIGIN ["COM"]
properties('MP2/aug-cc-pvtz', properties = ['dipole'])
--------------------------------------------------------------------------

    Molecular point group: c1
  Charge       = -1
  Multiplicity = 1
  Basis Set: AUG-CC-PVTZ
    Blend: AUG-CC-PVTZ
  Basis Set: (AUG-CC-PVTZ AUX)
    Blend: AUG-CC-PVTZ-JKFIT

    Orbital Energies [Eh]
    ---------------------

    Doubly Occupied:

       1A    -20.496214     2A    -20.434801     3A    -20.309075
       4A    -20.306378     5A    -11.266514     6A    -11.191011
       7A    -11.154874     8A    -11.101108     9A    -11.079556
      10A     -1.342357    11A     -1.239811    12A     -1.177414
      13A     -1.081259    14A     -0.935362    15A     -0.857265
      16A     -0.756883    17A     -0.662300    18A     -0.577169
      19A     -0.568803    20A     -0.560904    21A     -0.531052
      22A     -0.487380    23A     -0.464780    24A     -0.452398
      25A     -0.431528    26A     -0.419191    27A     -0.411451
      28A     -0.386309    29A     -0.361199    30A     -0.354123
      31A     -0.337898    32A     -0.326513    33A     -0.225996
      34A     -0.209427    35A     -0.208120

  @DF-RHF Final Energy:  -493.10831761847078

   => Energetics <=

    Nuclear Repulsion Energy =            435.0998780626520102
    One-Electron Energy =               -1551.0035454507119539
    Two-Electron Energy =                 622.7953497695892793
    Total Energy =                       -493.1083176184707781
  Basis Set: (AUG-CC-PVTZ AUX)
    Blend: AUG-CC-PVTZ-RI
    Molecular point group: c1

    Geometry (in Angstrom), charge = -1, multiplicity = 1:

       Center              X                  Y                   Z               Mass
    ------------   -----------------  -----------------  -----------------  -----------------
         O            1.937252608029    -0.755308105144     0.333584781864    15.994914619570
         O            2.167611608029     1.362121894856    -0.435994218136    15.994914619570
         O           -3.242450391971    -0.364943105144    -0.941858218136    15.994914619570
         O           -2.533091391971    -0.039149105144     1.212487781864    15.994914619570
         C            0.011798608029     0.619730894856     0.439777781864    12.000000000000
         C           -0.904879391971    -0.110471105144    -0.548422218136    12.000000000000
         C            1.454523608029     0.503606894856     0.069546781864    12.000000000000
         C           -2.388587391971    -0.166557105144    -0.037259218136    12.000000000000
         C            3.293744608029    -0.950749105144    -0.076365218136    12.000000000000
         H           -0.177654391971     0.190506894856     1.426163781864     1.007825032230
         H           -0.239416391971     1.682698894856     0.476329781864     1.007825032230
         H           -0.872654691971     0.334608594856    -1.548991418136     1.007825032230
         H           -0.552562391971    -1.141248105144    -0.682319218136     1.007825032230
         H            3.527358608029    -1.983248105144     0.183882781864     1.007825032230
         H            3.964198608029    -0.263544105144     0.445595781864     1.007825032230
         H            3.403040608029    -0.793569105144    -1.152001218136     1.007825032230

  Basis Set: AUG-CC-PVTZ
    Blend: AUG-CC-PVTZ
  Basis Set: (AUG-CC-PVTZ AUX)
    Blend: AUG-CC-PVTZ-JKFIT
	 Reference Energy          =    -493.1083176184707781 [Eh]
	 Singles Energy            =      -0.0000000000000000 [Eh]
	 Same-Spin Energy          =      -0.4837387624177681 [Eh]
	 Opposite-Spin Energy      =      -1.4759404840051356 [Eh]
	 Correlation Energy        =      -1.9596792464229036 [Eh]
	 Total Energy              =    -495.0679968648937006 [Eh]

	 ================> DF-SCS-MP2 Energies <==================
	-----------------------------------------------------------
	 SCS Same-Spin Scale       =       0.3333333333333333 [-]
	 SCS Opposite-Spin Scale   =       1.2000000000000000 [-]
	 SCS Same-Spin Energy      =      -0.1612462541392560 [Eh]
	 SCS Opposite-Spin Energy  =      -1.7711285808061625 [Eh]
	 SCS Correlation Energy    =      -1.9323748349454186 [Eh]
	 SCS Total Energy          =    -495.0406924534161703 [Eh]
	-----------------------------------------------------------

  Dipole Moment: [D]
     X:    11.3530      Y:    -0.7359      Z:    -0.0896     Total:    11.3772

*** Psi4 exiting successfully. Buy a developer a beer!
