                               Psi4 1.4a3.dev225

  ==> Input File <==

--------------------------------------------------------------------------
#psi4
#
memory 32 gb

molecule  {
-1 1
  O        1.8724200    -0.7415990     0.3394840
  O        2.1027790     1.3758310    -0.4300950
  O       -3.3072830    -0.3512340    -0.9359590
  O       -2.5979240    -0.0254400     1.2183870
  C        0.0279519     0.6153520     0.3781253
  C       -0.9697120    -0.0967620    -0.5425230
  C        1.3896910     0.5173160     0.0754460
  C       -2.4534200    -0.1528480    -0.0313600
  C        3.2289120    -0.9370400    -0.0704660
  H       -0.2424870     0.2042160     1.4320630
  H       -0.3042490     1.6964080     0.4822290
  H       -0.9505240     0.3810480    -1.5282220
  H       -0.6173950    -1.1275390    -0.6764200
  H        3.4625260    -1.9695390     0.1897820
  H        3.8993660    -0.2498350     0.4514950
  H        3.3382080    -0.7798600    -1.1461020
units angstrom
no_reorient  #important for SAPT in psi4, default
symmetry c1  #important for SAPT in psi4, default
}

set PROPERTIES_ORIGIN ["COM"]
properties('MP2/aug-cc-pvtz', properties = ['dipole'])
--------------------------------------------------------------------------

    Molecular point group: c1
  Charge       = -1
  Multiplicity = 1
  Basis Set: AUG-CC-PVTZ
    Blend: AUG-CC-PVTZ
  Basis Set: (AUG-CC-PVTZ AUX)
    Blend: AUG-CC-PVTZ-JKFIT

    Orbital Energies [Eh]
    ---------------------

    Doubly Occupied:

       1A    -20.495221     2A    -20.433169     3A    -20.311095
       4A    -20.309172     5A    -11.263406     6A    -11.190586
       7A    -11.158145     8A    -11.102028     9A    -11.083198
      10A     -1.343761    11A     -1.239971    12A     -1.179376
      13A     -1.083217    14A     -0.948691    15A     -0.856443
      16A     -0.768672    17A     -0.659369    18A     -0.577944
      19A     -0.570567    20A     -0.561454    21A     -0.533231
      22A     -0.487560    23A     -0.464266    24A     -0.456158
      25A     -0.431690    26A     -0.424821    27A     -0.410512
      28A     -0.377433    29A     -0.359945    30A     -0.347515
      31A     -0.337981    32A     -0.321924    33A     -0.227787
      34A     -0.213306    35A     -0.210066

  @DF-RHF Final Energy:  -493.09375119439358

   => Energetics <=

    Nuclear Repulsion Energy =            436.1371397501924889
    One-Electron Energy =               -1552.9824239273759758
    Two-Electron Energy =                 623.7515329827898540
    Total Energy =                       -493.0937511943935760
  Basis Set: (AUG-CC-PVTZ AUX)
    Blend: AUG-CC-PVTZ-RI
    Molecular point group: c1

    Geometry (in Angstrom), charge = -1, multiplicity = 1:

       Center              X                  Y                   Z               Mass
    ------------   -----------------  -----------------  -----------------  -----------------
         O            1.929936270939    -0.753903363053     0.339656726602    15.994914619570
         O            2.160295270939     1.363526636947    -0.429922273398    15.994914619570
         O           -3.249766729061    -0.363538363053    -0.935786273398    15.994914619570
         O           -2.540407729061    -0.037744363053     1.218559726602    15.994914619570
         C            0.085468170939     0.603047636947     0.378298026602    12.000000000000
         C           -0.912195729061    -0.109066363053    -0.542350273398    12.000000000000
         C            1.447207270939     0.505011636947     0.075618726602    12.000000000000
         C           -2.395903729061    -0.165152363053    -0.031187273398    12.000000000000
         C            3.286428270939    -0.949344363053    -0.070293273398    12.000000000000
         H           -0.184970729061     0.191911636947     1.432235726602     1.007825032230
         H           -0.246732729061     1.684103636947     0.482401726602     1.007825032230
         H           -0.893007729061     0.368743636947    -1.528049273398     1.007825032230
         H           -0.559878729061    -1.139843363053    -0.676247273398     1.007825032230
         H            3.520042270939    -1.981843363053     0.189954726602     1.007825032230
         H            3.956882270939    -0.262139363053     0.451667726602     1.007825032230
         H            3.395724270939    -0.792164363053    -1.145929273398     1.007825032230

  Basis Set: AUG-CC-PVTZ
    Blend: AUG-CC-PVTZ
  Basis Set: (AUG-CC-PVTZ AUX)
    Blend: AUG-CC-PVTZ-JKFIT
	 Reference Energy          =    -493.0937511943935760 [Eh]
	 Singles Energy            =      -0.0000000000000000 [Eh]
	 Same-Spin Energy          =      -0.4852136600802277 [Eh]
	 Opposite-Spin Energy      =      -1.4779797614340691 [Eh]
	 Correlation Energy        =      -1.9631934215142968 [Eh]
	 Total Energy              =    -495.0569446159078666 [Eh]

	 ================> DF-SCS-MP2 Energies <==================
	-----------------------------------------------------------
	 SCS Same-Spin Scale       =       0.3333333333333333 [-]
	 SCS Opposite-Spin Scale   =       1.2000000000000000 [-]
	 SCS Same-Spin Energy      =      -0.1617378866934092 [Eh]
	 SCS Opposite-Spin Energy  =      -1.7735757137208827 [Eh]
	 SCS Correlation Energy    =      -1.9353136004142919 [Eh]
	 SCS Total Energy          =    -495.0290647948078799 [Eh]
	-----------------------------------------------------------

  Dipole Moment: [D]
     X:    11.1688      Y:    -0.7697      Z:    -0.1129     Total:    11.1958

*** Psi4 exiting successfully. Buy a developer a beer!
