                               Psi4 1.4a3.dev225

  ==> Input File <==

--------------------------------------------------------------------------
#psi4
#
memory 32 gb

molecule  {
-1 1
  O        1.8724200    -0.7415990     0.3394840
  O        2.1027790     1.3758310    -0.4300950
  O       -3.3693769    -0.3479322    -0.8737990
  O       -2.5979240    -0.0254400     1.2183870
  C       -0.0530340     0.6334400     0.4456770
  C       -0.9697120    -0.0967620    -0.5425230
  C        1.3896910     0.5173160     0.0754460
  C       -2.4534200    -0.1528480    -0.0313600
  C        3.2289120    -0.9370400    -0.0704660
  H       -0.2424870     0.2042160     1.4320630
  H       -0.3042490     1.6964080     0.4822290
  H       -0.9505240     0.3810480    -1.5282220
  H       -0.6173950    -1.1275390    -0.6764200
  H        3.4625260    -1.9695390     0.1897820
  H        3.8993660    -0.2498350     0.4514950
  H        3.3382080    -0.7798600    -1.1461020
units angstrom
no_reorient  #important for SAPT in psi4, default
symmetry c1  #important for SAPT in psi4, default
}

set PROPERTIES_ORIGIN ["COM"]
properties('MP2/aug-cc-pvtz', properties = ['dipole'])
--------------------------------------------------------------------------

    Molecular point group: c1
  Charge       = -1
  Multiplicity = 1
  Basis Set: AUG-CC-PVTZ
    Blend: AUG-CC-PVTZ
  Basis Set: (AUG-CC-PVTZ AUX)
    Blend: AUG-CC-PVTZ-JKFIT

    Orbital Energies [Eh]
    ---------------------

    Doubly Occupied:

       1A    -20.497624     2A    -20.436459     3A    -20.303721
       4A    -20.303466     5A    -11.268205     6A    -11.192053
       7A    -11.152493     8A    -11.103170     9A    -11.084589
      10A     -1.343815    11A     -1.241326    12A     -1.176688
      13A     -1.073708    14A     -0.937681    15A     -0.859052
      16A     -0.759804    17A     -0.663697    18A     -0.578430
      19A     -0.570305    20A     -0.562207    21A     -0.530226
      22A     -0.489333    23A     -0.467537    24A     -0.452810
      25A     -0.432356    26A     -0.419660    27A     -0.408934
      28A     -0.387314    29A     -0.361451    30A     -0.354129
      31A     -0.339204    32A     -0.328621    33A     -0.218754
      34A     -0.213095    35A     -0.203112

  @DF-RHF Final Energy:  -493.10775188028708

   => Energetics <=

    Nuclear Repulsion Energy =            434.7972266519967093
    One-Electron Energy =               -1550.3798968574094488
    Two-Electron Energy =                 622.4749183251257136
    Total Energy =                       -493.1077518802870827
  Basis Set: (AUG-CC-PVTZ AUX)
    Blend: AUG-CC-PVTZ-RI
    Molecular point group: c1

    Geometry (in Angstrom), charge = -1, multiplicity = 1:

       Center              X                  Y                   Z               Mass
    ------------   -----------------  -----------------  -----------------  -----------------
         O            1.944932462195    -0.755962882841     0.325882757106    15.994914619570
         O            2.175291462195     1.361467117159    -0.443696242894    15.994914619570
         O           -3.296864437805    -0.362296082841    -0.887400242894    15.994914619570
         O           -2.525411537805    -0.039803882841     1.204785757106    15.994914619570
         C            0.019478462195     0.619076117159     0.432075757106    12.000000000000
         C           -0.897199537805    -0.111125882841    -0.556124242894    12.000000000000
         C            1.462203462195     0.502952117159     0.061844757106    12.000000000000
         C           -2.380907537805    -0.167211882841    -0.044961242894    12.000000000000
         C            3.301424462195    -0.951403882841    -0.084067242894    12.000000000000
         H           -0.169974537805     0.189852117159     1.418461757106     1.007825032230
         H           -0.231736537805     1.682044117159     0.468627757106     1.007825032230
         H           -0.878011537805     0.366684117159    -1.541823242894     1.007825032230
         H           -0.544882537805    -1.141902882841    -0.690021242894     1.007825032230
         H            3.535038462195    -1.983902882841     0.176180757106     1.007825032230
         H            3.971878462195    -0.264198882841     0.437893757106     1.007825032230
         H            3.410720462195    -0.794223882841    -1.159703242894     1.007825032230

  Basis Set: AUG-CC-PVTZ
    Blend: AUG-CC-PVTZ
  Basis Set: (AUG-CC-PVTZ AUX)
    Blend: AUG-CC-PVTZ-JKFIT
	 Reference Energy          =    -493.1077518802870827 [Eh]
	 Singles Energy            =      -0.0000000000000000 [Eh]
	 Same-Spin Energy          =      -0.4836130982066033 [Eh]
	 Opposite-Spin Energy      =      -1.4758336108351908 [Eh]
	 Correlation Energy        =      -1.9594467090417940 [Eh]
	 Total Energy              =    -495.0671985893288820 [Eh]

	 ================> DF-SCS-MP2 Energies <==================
	-----------------------------------------------------------
	 SCS Same-Spin Scale       =       0.3333333333333333 [-]
	 SCS Opposite-Spin Scale   =       1.2000000000000000 [-]
	 SCS Same-Spin Energy      =      -0.1612043660688677 [Eh]
	 SCS Opposite-Spin Energy  =      -1.7710003330022290 [Eh]
	 SCS Correlation Energy    =      -1.9322046990710968 [Eh]
	 SCS Total Energy          =    -495.0399565793582042 [Eh]
	-----------------------------------------------------------

  Dipole Moment: [D]
     X:    11.5933      Y:    -0.7211      Z:    -0.2142     Total:    11.6177

*** Psi4 exiting successfully. Buy a developer a beer!
