                               Psi4 1.4a3.dev225

  ==> Input File <==

--------------------------------------------------------------------------
#psi4
#
memory 32 gb

molecule  {
-1 1
  O        1.8724200    -0.7415990     0.3394840
  O        2.1027790     1.3758310    -0.4300950
  O       -3.3072830    -0.3512340    -0.9359590
  O       -2.5979240    -0.0254400     1.2183870
  C       -0.0530340     0.6334400     0.4456770
  C       -0.9697120    -0.0967620    -0.5425230
  C        1.4013314     0.5313303     0.0671936
  C       -2.4534200    -0.1528480    -0.0313600
  C        3.2289120    -0.9370400    -0.0704660
  H       -0.2424870     0.2042160     1.4320630
  H       -0.3042490     1.6964080     0.4822290
  H       -0.9505240     0.3810480    -1.5282220
  H       -0.6173950    -1.1275390    -0.6764200
  H        3.4625260    -1.9695390     0.1897820
  H        3.8993660    -0.2498350     0.4514950
  H        3.3382080    -0.7798600    -1.1461020
units angstrom
no_reorient  #important for SAPT in psi4, default
symmetry c1  #important for SAPT in psi4, default
}

set PROPERTIES_ORIGIN ["COM"]
properties('MP2/aug-cc-pvtz', properties = ['dipole'])
--------------------------------------------------------------------------

    Molecular point group: c1
  Charge       = -1
  Multiplicity = 1
  Basis Set: AUG-CC-PVTZ
    Blend: AUG-CC-PVTZ
  Basis Set: (AUG-CC-PVTZ AUX)
    Blend: AUG-CC-PVTZ-JKFIT

    Orbital Energies [Eh]
    ---------------------

    Doubly Occupied:

       1A    -20.493128     2A    -20.438723     3A    -20.308443
       4A    -20.305931     5A    -11.264841     6A    -11.189557
       7A    -11.154083     8A    -11.100584     9A    -11.078637
      10A     -1.343672    11A     -1.249056    12A     -1.176873
      13A     -1.080716    14A     -0.931832    15A     -0.854648
      16A     -0.754493    17A     -0.660622    18A     -0.578939
      19A     -0.569925    20A     -0.559438    21A     -0.529585
      22A     -0.489808    23A     -0.464163    24A     -0.454141
      25A     -0.432369    26A     -0.420181    27A     -0.411718
      28A     -0.385370    29A     -0.361207    30A     -0.354686
      31A     -0.337795    32A     -0.327555    33A     -0.225323
      34A     -0.208618    35A     -0.207601

  @DF-RHF Final Energy:  -493.10914063450582

   => Energetics <=

    Nuclear Repulsion Energy =            435.1145197420991053
    One-Electron Energy =               -1551.0388033628562425
    Two-Electron Energy =                 622.8151429862514306
    Total Energy =                       -493.1091406345058203
  Basis Set: (AUG-CC-PVTZ AUX)
    Blend: AUG-CC-PVTZ-RI
    Molecular point group: c1

    Geometry (in Angstrom), charge = -1, multiplicity = 1:

       Center              X                  Y                   Z               Mass
    ------------   -----------------  -----------------  -----------------  -----------------
         O            1.936286861211    -0.756843258996     0.334226157095    15.994914619570
         O            2.166645861211     1.360586741004    -0.435352842905    15.994914619570
         O           -3.243416138789    -0.366478258996    -0.941216842905    15.994914619570
         O           -2.534057138789    -0.040684258996     1.213129157095    15.994914619570
         C            0.010832861211     0.618195741004     0.440419157095    12.000000000000
         C           -0.905845138789    -0.112006258996    -0.547780842905    12.000000000000
         C            1.465198261211     0.516086041004     0.061935757095    12.000000000000
         C           -2.389553138789    -0.168092258996    -0.036617842905    12.000000000000
         C            3.292778861211    -0.952284258996    -0.075723842905    12.000000000000
         H           -0.178620138789     0.188971741004     1.426805157095     1.007825032230
         H           -0.240382138789     1.681163741004     0.476971157095     1.007825032230
         H           -0.886657138789     0.365803741004    -1.533479842905     1.007825032230
         H           -0.553528138789    -1.142783258996    -0.681677842905     1.007825032230
         H            3.526392861211    -1.984783258996     0.184524157095     1.007825032230
         H            3.963232861211    -0.265079258996     0.446237157095     1.007825032230
         H            3.402074861211    -0.795104258996    -1.151359842905     1.007825032230

  Basis Set: AUG-CC-PVTZ
    Blend: AUG-CC-PVTZ
  Basis Set: (AUG-CC-PVTZ AUX)
    Blend: AUG-CC-PVTZ-JKFIT
	 Reference Energy          =    -493.1091406345058203 [Eh]
	 Singles Energy            =      -0.0000000000000000 [Eh]
	 Same-Spin Energy          =      -0.4833583318202718 [Eh]
	 Opposite-Spin Energy      =      -1.4753270443308029 [Eh]
	 Correlation Energy        =      -1.9586853761510747 [Eh]
	 Total Energy              =    -495.0678260106569155 [Eh]

	 ================> DF-SCS-MP2 Energies <==================
	-----------------------------------------------------------
	 SCS Same-Spin Scale       =       0.3333333333333333 [-]
	 SCS Opposite-Spin Scale   =       1.2000000000000000 [-]
	 SCS Same-Spin Energy      =      -0.1611194439400906 [Eh]
	 SCS Opposite-Spin Energy  =      -1.7703924531969635 [Eh]
	 SCS Correlation Energy    =      -1.9315118971370542 [Eh]
	 SCS Total Energy          =    -495.0406525316428770 [Eh]
	-----------------------------------------------------------

  Dipole Moment: [D]
     X:    11.4062      Y:    -0.5971      Z:    -0.1351     Total:    11.4226

*** Psi4 exiting successfully. Buy a developer a beer!
