                               Psi4 1.4a3.dev225

  ==> Input File <==

--------------------------------------------------------------------------
#psi4
#
memory 32 gb

molecule  {
-1 1
  O        1.8724200    -0.7415990     0.3394840
  O        2.1027790     1.3758310    -0.4300950
  O       -3.3072830    -0.3512340    -0.9359590
  O       -2.5979240    -0.0254400     1.2183870
  C       -0.0530340     0.6334400     0.4456770
  C       -0.9697120    -0.0967620    -0.5425230
  C        1.3896910     0.5173160     0.0754460
  C       -2.3856347    -0.1370988     0.0404531
  C        3.2289120    -0.9370400    -0.0704660
  H       -0.2424870     0.2042160     1.4320630
  H       -0.3042490     1.6964080     0.4822290
  H       -0.9505240     0.3810480    -1.5282220
  H       -0.6173950    -1.1275390    -0.6764200
  H        3.4625260    -1.9695390     0.1897820
  H        3.8993660    -0.2498350     0.4514950
  H        3.3382080    -0.7798600    -1.1461020
units angstrom
no_reorient  #important for SAPT in psi4, default
symmetry c1  #important for SAPT in psi4, default
}

set PROPERTIES_ORIGIN ["COM"]
properties('MP2/aug-cc-pvtz', properties = ['dipole'])
--------------------------------------------------------------------------

    Molecular point group: c1
  Charge       = -1
  Multiplicity = 1
  Basis Set: AUG-CC-PVTZ
    Blend: AUG-CC-PVTZ
  Basis Set: (AUG-CC-PVTZ AUX)
    Blend: AUG-CC-PVTZ-JKFIT

    Orbital Energies [Eh]
    ---------------------

    Doubly Occupied:

       1A    -20.498887     2A    -20.437487     3A    -20.328333
       4A    -20.283526     5A    -11.269463     6A    -11.193023
       7A    -11.153461     8A    -11.105345     9A    -11.084520
      10A     -1.345065    11A     -1.242490    12A     -1.200167
      13A     -1.040303    14A     -0.941816    15A     -0.861873
      16A     -0.764159    17A     -0.665148    18A     -0.582268
      19A     -0.571839    20A     -0.563636    21A     -0.538772
      22A     -0.492820    23A     -0.471635    24A     -0.456809
      25A     -0.436016    26A     -0.423985    27A     -0.403304
      28A     -0.388724    29A     -0.363896    30A     -0.357192
      31A     -0.340616    32A     -0.331853    33A     -0.223737
      34A     -0.198796    35A     -0.193578

  @DF-RHF Final Energy:  -493.09365907278323

   => Energetics <=

    Nuclear Repulsion Energy =            435.6205427018594492
    One-Electron Energy =               -1551.9193223932520596
    Two-Electron Energy =                 623.2051206186093850
    Total Energy =                       -493.0936590727832254
  Basis Set: (AUG-CC-PVTZ AUX)
    Blend: AUG-CC-PVTZ-RI
    Molecular point group: c1

    Geometry (in Angstrom), charge = -1, multiplicity = 1:

       Center              X                  Y                   Z               Mass
    ------------   -----------------  -----------------  -----------------  -----------------
         O            1.931145168444    -0.757002139371     0.326893840139    15.994914619570
         O            2.161504168444     1.360427860629    -0.442685159861    15.994914619570
         O           -3.248557831556    -0.366637139371    -0.948549159861    15.994914619570
         O           -2.539198831556    -0.040843139371     1.205796840139    15.994914619570
         C            0.005691168444     0.618036860629     0.433086840139    12.000000000000
         C           -0.910986831556    -0.112165139371    -0.555113159861    12.000000000000
         C            1.448416168444     0.501912860629     0.062855840139    12.000000000000
         C           -2.326909531556    -0.152501939371     0.027862940139    12.000000000000
         C            3.287637168444    -0.952443139371    -0.083056159861    12.000000000000
         H           -0.183761831556     0.188812860629     1.419472840139     1.007825032230
         H           -0.245523831556     1.681004860629     0.469638840139     1.007825032230
         H           -0.891798831556     0.365644860629    -1.540812159861     1.007825032230
         H           -0.558669831556    -1.142942139371    -0.689010159861     1.007825032230
         H            3.521251168444    -1.984942139371     0.177191840139     1.007825032230
         H            3.958091168444    -0.265238139371     0.438904840139     1.007825032230
         H            3.396933168444    -0.795263139371    -1.158692159861     1.007825032230

  Basis Set: AUG-CC-PVTZ
    Blend: AUG-CC-PVTZ
  Basis Set: (AUG-CC-PVTZ AUX)
    Blend: AUG-CC-PVTZ-JKFIT
	 Reference Energy          =    -493.0936590727832254 [Eh]
	 Singles Energy            =      -0.0000000000000000 [Eh]
	 Same-Spin Energy          =      -0.4844091361254025 [Eh]
	 Opposite-Spin Energy      =      -1.4775584497846617 [Eh]
	 Correlation Energy        =      -1.9619675859100640 [Eh]
	 Total Energy              =    -495.0556266586933134 [Eh]

	 ================> DF-SCS-MP2 Energies <==================
	-----------------------------------------------------------
	 SCS Same-Spin Scale       =       0.3333333333333333 [-]
	 SCS Opposite-Spin Scale   =       1.2000000000000000 [-]
	 SCS Same-Spin Energy      =      -0.1614697120418008 [Eh]
	 SCS Opposite-Spin Energy  =      -1.7730701397415940 [Eh]
	 SCS Correlation Energy    =      -1.9345398517833947 [Eh]
	 SCS Total Energy          =    -495.0281989245665955 [Eh]
	-----------------------------------------------------------

  Dipole Moment: [D]
     X:    11.9898      Y:    -0.5776      Z:     0.7170     Total:    12.0251

*** Psi4 exiting successfully. Buy a developer a beer!
