                               Psi4 1.4a3.dev225

  ==> Input File <==

--------------------------------------------------------------------------
#psi4
#
memory 32 gb

molecule  {
-1 1
  O        1.8724200    -0.7415990     0.3394840
  O        2.1027790     1.3758310    -0.4300950
  O       -3.3072830    -0.3512340    -0.9359590
  O       -2.5979240    -0.0254400     1.2183870
  C       -0.0530340     0.6334400     0.4456770
  C       -0.9697120    -0.0967620    -0.5425230
  C        1.4478928     0.5873874     0.0341841
  C       -2.4534200    -0.1528480    -0.0313600
  C        3.2289120    -0.9370400    -0.0704660
  H       -0.2424870     0.2042160     1.4320630
  H       -0.3042490     1.6964080     0.4822290
  H       -0.9505240     0.3810480    -1.5282220
  H       -0.6173950    -1.1275390    -0.6764200
  H        3.4625260    -1.9695390     0.1897820
  H        3.8993660    -0.2498350     0.4514950
  H        3.3382080    -0.7798600    -1.1461020
units angstrom
no_reorient  #important for SAPT in psi4, default
symmetry c1  #important for SAPT in psi4, default
}

set PROPERTIES_ORIGIN ["COM"]
properties('MP2/aug-cc-pvtz', properties = ['dipole'])
--------------------------------------------------------------------------

    Molecular point group: c1
  Charge       = -1
  Multiplicity = 1
  Basis Set: AUG-CC-PVTZ
    Blend: AUG-CC-PVTZ
  Basis Set: (AUG-CC-PVTZ AUX)
    Blend: AUG-CC-PVTZ-JKFIT

    Orbital Energies [Eh]
    ---------------------

    Doubly Occupied:

       1A    -20.479658     2A    -20.454293     3A    -20.306332
       4A    -20.303927     5A    -11.257567     6A    -11.183652
       7A    -11.151818     8A    -11.099801     9A    -11.075003
      10A     -1.375603    11A     -1.263774    12A     -1.174779
      13A     -1.078659    14A     -0.918174    15A     -0.844113
      16A     -0.745896    17A     -0.656523    18A     -0.598007
      19A     -0.569914    20A     -0.556416    21A     -0.526226
      22A     -0.496633    23A     -0.471594    24A     -0.459459
      25A     -0.437081    26A     -0.422027    27A     -0.412336
      28A     -0.381176    29A     -0.364213    30A     -0.352067
      31A     -0.329462    32A     -0.325576    33A     -0.223252
      34A     -0.206157    35A     -0.205382

  @DF-RHF Final Energy:  -493.09604841300461

   => Energetics <=

    Nuclear Repulsion Energy =            435.2176580542220563
    One-Electron Energy =               -1551.2143127713525246
    Two-Electron Energy =                 622.9006063041258585
    Total Energy =                       -493.0960484130046098
  Basis Set: (AUG-CC-PVTZ AUX)
    Blend: AUG-CC-PVTZ-RI
    Molecular point group: c1

    Geometry (in Angstrom), charge = -1, multiplicity = 1:

       Center              X                  Y                   Z               Mass
    ------------   -----------------  -----------------  -----------------  -----------------
         O            1.932022815615    -0.761976911129     0.337249133490    15.994914619570
         O            2.162381815615     1.355453088871    -0.432329866510    15.994914619570
         O           -3.247680184385    -0.371611911129    -0.938193866510    15.994914619570
         O           -2.538321184385    -0.045817911129     1.216152133490    15.994914619570
         C            0.006568815615     0.613062088871     0.443442133490    12.000000000000
         C           -0.910109184385    -0.117139911129    -0.544757866510    12.000000000000
         C            1.507495615615     0.567009488871     0.031949233490    12.000000000000
         C           -2.393817184385    -0.173225911129    -0.033594866510    12.000000000000
         C            3.288514815615    -0.957417911129    -0.072700866510    12.000000000000
         H           -0.182884184385     0.183838088871     1.429828133490     1.007825032230
         H           -0.244646184385     1.676030088871     0.479994133490     1.007825032230
         H           -0.890921184385     0.360670088871    -1.530456866510     1.007825032230
         H           -0.557792184385    -1.147916911129    -0.678654866510     1.007825032230
         H            3.522128815615    -1.989916911129     0.187547133490     1.007825032230
         H            3.958968815615    -0.270212911129     0.449260133490     1.007825032230
         H            3.397810815615    -0.800237911129    -1.148336866510     1.007825032230

  Basis Set: AUG-CC-PVTZ
    Blend: AUG-CC-PVTZ
  Basis Set: (AUG-CC-PVTZ AUX)
    Blend: AUG-CC-PVTZ-JKFIT
	 Reference Energy          =    -493.0960484130046098 [Eh]
	 Singles Energy            =      -0.0000000000000000 [Eh]
	 Same-Spin Energy          =      -0.4820233285351425 [Eh]
	 Opposite-Spin Energy      =      -1.4730807644030386 [Eh]
	 Correlation Energy        =      -1.9551040929381811 [Eh]
	 Total Energy              =    -495.0511525059428095 [Eh]

	 ================> DF-SCS-MP2 Energies <==================
	-----------------------------------------------------------
	 SCS Same-Spin Scale       =       0.3333333333333333 [-]
	 SCS Opposite-Spin Scale   =       1.2000000000000000 [-]
	 SCS Same-Spin Energy      =      -0.1606744428450475 [Eh]
	 SCS Opposite-Spin Energy  =      -1.7676969172836463 [Eh]
	 SCS Correlation Energy    =      -1.9283713601286938 [Eh]
	 SCS Total Energy          =    -495.0244197731333315 [Eh]
	-----------------------------------------------------------

  Dipole Moment: [D]
     X:    11.6519      Y:    -0.0379      Z:    -0.3464     Total:    11.6571

*** Psi4 exiting successfully. Buy a developer a beer!
