                               Psi4 1.4a3.dev225

  ==> Input File <==

--------------------------------------------------------------------------
#psi4
#
memory 32 gb

molecule  {
-1 1
  O        1.8724200    -0.7415990     0.3394840
  O        2.1027790     1.3758310    -0.4300950
  O       -3.3072830    -0.3512340    -0.9359590
  O       -2.5979240    -0.0254400     1.2183870
  C       -0.0530340     0.6334400     0.4456770
  C       -0.9697120    -0.0967620    -0.5425230
  C        1.3896910     0.5173160     0.0754460
  C       -2.4534200    -0.1528480    -0.0313600
  C        3.2289120    -0.9370400    -0.0704660
  H       -0.2537674     0.2385832     1.4441144
  H       -0.3042490     1.6964080     0.4822290
  H       -0.9505240     0.3810480    -1.5282220
  H       -0.6173950    -1.1275390    -0.6764200
  H        3.4625260    -1.9695390     0.1897820
  H        3.8993660    -0.2498350     0.4514950
  H        3.3382080    -0.7798600    -1.1461020
units angstrom
no_reorient  #important for SAPT in psi4, default
symmetry c1  #important for SAPT in psi4, default
}

set PROPERTIES_ORIGIN ["COM"]
properties('MP2/aug-cc-pvtz', properties = ['dipole'])
--------------------------------------------------------------------------

    Molecular point group: c1
  Charge       = -1
  Multiplicity = 1
  Basis Set: AUG-CC-PVTZ
    Blend: AUG-CC-PVTZ
  Basis Set: (AUG-CC-PVTZ AUX)
    Blend: AUG-CC-PVTZ-JKFIT

    Orbital Energies [Eh]
    ---------------------

    Doubly Occupied:

       1A    -20.496205     2A    -20.434971     3A    -20.309005
       4A    -20.306451     5A    -11.266763     6A    -11.190966
       7A    -11.154681     8A    -11.100520     9A    -11.079599
      10A     -1.342358    11A     -1.239879    12A     -1.177422
      13A     -1.081263    14A     -0.935013    15A     -0.857289
      16A     -0.756781    17A     -0.662493    18A     -0.577427
      19A     -0.568707    20A     -0.561027    21A     -0.530500
      22A     -0.487024    23A     -0.465495    24A     -0.452247
      25A     -0.431211    26A     -0.419104    27A     -0.411663
      28A     -0.385533    29A     -0.360978    30A     -0.353683
      31A     -0.338412    32A     -0.327293    33A     -0.225843
      34A     -0.209275    35A     -0.208145

  @DF-RHF Final Energy:  -493.10826554299234

   => Energetics <=

    Nuclear Repulsion Energy =            435.0799443501200585
    One-Electron Energy =               -1550.9659719502810731
    Two-Electron Energy =                 622.7777620571686157
    Total Energy =                       -493.1082655429923989
  Basis Set: (AUG-CC-PVTZ AUX)
    Blend: AUG-CC-PVTZ-RI
    Molecular point group: c1

    Geometry (in Angstrom), charge = -1, multiplicity = 1:

       Center              X                  Y                   Z               Mass
    ------------   -----------------  -----------------  -----------------  -----------------
         O            1.937439638120    -0.755824172091     0.333377719784    15.994914619570
         O            2.167798638120     1.361605827909    -0.436201280216    15.994914619570
         O           -3.242263361880    -0.365459172091    -0.942065280216    15.994914619570
         O           -2.532904361880    -0.039665172091     1.212280719784    15.994914619570
         C            0.011985638120     0.619214827909     0.439570719784    12.000000000000
         C           -0.904692361880    -0.110987172091    -0.548629280216    12.000000000000
         C            1.454710638120     0.503090827909     0.069339719784    12.000000000000
         C           -2.388400361880    -0.167073172091    -0.037466280216    12.000000000000
         C            3.293931638120    -0.951265172091    -0.076572280216    12.000000000000
         H           -0.188747761880     0.224358027909     1.438008119784     1.007825032230
         H           -0.239229361880     1.682182827909     0.476122719784     1.007825032230
         H           -0.885504361880     0.366822827909    -1.534328280216     1.007825032230
         H           -0.552375361880    -1.141764172091    -0.682526280216     1.007825032230
         H            3.527545638120    -1.983764172091     0.183675719784     1.007825032230
         H            3.964385638120    -0.264060172091     0.445388719784     1.007825032230
         H            3.403227638120    -0.794085172091    -1.152208280216     1.007825032230

  Basis Set: AUG-CC-PVTZ
    Blend: AUG-CC-PVTZ
  Basis Set: (AUG-CC-PVTZ AUX)
    Blend: AUG-CC-PVTZ-JKFIT
	 Reference Energy          =    -493.1082655429923420 [Eh]
	 Singles Energy            =      -0.0000000000000000 [Eh]
	 Same-Spin Energy          =      -0.4837473798911849 [Eh]
	 Opposite-Spin Energy      =      -1.4759846766839679 [Eh]
	 Correlation Energy        =      -1.9597320565751528 [Eh]
	 Total Energy              =    -495.0679975995674909 [Eh]

	 ================> DF-SCS-MP2 Energies <==================
	-----------------------------------------------------------
	 SCS Same-Spin Scale       =       0.3333333333333333 [-]
	 SCS Opposite-Spin Scale   =       1.2000000000000000 [-]
	 SCS Same-Spin Energy      =      -0.1612491266303950 [Eh]
	 SCS Opposite-Spin Energy  =      -1.7711816120207615 [Eh]
	 SCS Correlation Energy    =      -1.9324307386511566 [Eh]
	 SCS Total Energy          =    -495.0406962816434771 [Eh]
	-----------------------------------------------------------

  Dipole Moment: [D]
     X:    11.3434      Y:    -0.7185      Z:    -0.0789     Total:    11.3664

*** Psi4 exiting successfully. Buy a developer a beer!
