                               Psi4 1.4a3.dev225

  ==> Input File <==

--------------------------------------------------------------------------
#psi4
#
memory 32 gb

molecule  {
-1 1
  O        1.8724200    -0.7415990     0.3394840
  O        2.1027790     1.3758310    -0.4300950
  O       -3.3072830    -0.3512340    -0.9359590
  O       -2.5979240    -0.0254400     1.2183870
  C       -0.0530340     0.6334400     0.4456770
  C       -1.0173829    -0.0029352    -0.5618400
  C        1.3896910     0.5173160     0.0754460
  C       -2.4534200    -0.1528480    -0.0313600
  C        3.2289120    -0.9370400    -0.0704660
  H       -0.2424870     0.2042160     1.4320630
  H       -0.3042490     1.6964080     0.4822290
  H       -0.9505240     0.3810480    -1.5282220
  H       -0.6173950    -1.1275390    -0.6764200
  H        3.4625260    -1.9695390     0.1897820
  H        3.8993660    -0.2498350     0.4514950
  H        3.3382080    -0.7798600    -1.1461020
units angstrom
no_reorient  #important for SAPT in psi4, default
symmetry c1  #important for SAPT in psi4, default
}

set PROPERTIES_ORIGIN ["COM"]
properties('MP2/aug-cc-pvtz', properties = ['dipole'])
--------------------------------------------------------------------------

    Molecular point group: c1
  Charge       = -1
  Multiplicity = 1
  Basis Set: AUG-CC-PVTZ
    Blend: AUG-CC-PVTZ
  Basis Set: (AUG-CC-PVTZ AUX)
    Blend: AUG-CC-PVTZ-JKFIT

    Orbital Energies [Eh]
    ---------------------

    Doubly Occupied:

       1A    -20.496946     2A    -20.436042     3A    -20.308505
       4A    -20.304819     5A    -11.268065     6A    -11.191374
       7A    -11.153498     8A    -11.101593     9A    -11.084181
      10A     -1.343087    11A     -1.240759    12A     -1.178030
      13A     -1.081075    14A     -0.935553    15A     -0.858803
      16A     -0.759513    17A     -0.662859    18A     -0.578287
      19A     -0.569048    20A     -0.561744    21A     -0.537605
      22A     -0.487057    23A     -0.463112    24A     -0.453688
      25A     -0.433011    26A     -0.421786    27A     -0.412145
      28A     -0.380094    29A     -0.366782    30A     -0.357511
      31A     -0.337262    32A     -0.311018    33A     -0.225953
      34A     -0.212321    35A     -0.207691

  @DF-RHF Final Energy:  -493.09833601119453

   => Energetics <=

    Nuclear Repulsion Energy =            435.1670750082582231
    One-Electron Energy =               -1551.0891885196160729
    Two-Electron Energy =                 622.8237775001632599
    Total Energy =                       -493.0983360111945331
  Basis Set: (AUG-CC-PVTZ AUX)
    Blend: AUG-CC-PVTZ-RI
    Molecular point group: c1

    Geometry (in Angstrom), charge = -1, multiplicity = 1:

       Center              X                  Y                   Z               Mass
    ------------   -----------------  -----------------  -----------------  -----------------
         O            1.941718529666    -0.764152406469     0.335239441895    15.994914619570
         O            2.172077529666     1.353277593531    -0.434339558105    15.994914619570
         O           -3.237984470334    -0.373787406469    -0.940203558105    15.994914619570
         O           -2.528625470334    -0.047993406469     1.214142441895    15.994914619570
         C            0.016264529666     0.610886593531     0.441432441895    12.000000000000
         C           -0.948084370334    -0.025488606469    -0.566084558105    12.000000000000
         C            1.458989529666     0.494762593531     0.071201441895    12.000000000000
         C           -2.384121470334    -0.175401406469    -0.035604558105    12.000000000000
         C            3.298210529666    -0.959593406469    -0.074710558105    12.000000000000
         H           -0.173188470334     0.181662593531     1.427818441895     1.007825032230
         H           -0.234950470334     1.673854593531     0.477984441895     1.007825032230
         H           -0.881225470334     0.358494593531    -1.532466558105     1.007825032230
         H           -0.548096470334    -1.150092406469    -0.680664558105     1.007825032230
         H            3.531824529666    -1.992092406469     0.185537441895     1.007825032230
         H            3.968664529666    -0.272388406469     0.447250441895     1.007825032230
         H            3.407506529666    -0.802413406469    -1.150346558105     1.007825032230

  Basis Set: AUG-CC-PVTZ
    Blend: AUG-CC-PVTZ
  Basis Set: (AUG-CC-PVTZ AUX)
    Blend: AUG-CC-PVTZ-JKFIT
	 Reference Energy          =    -493.0983360111945331 [Eh]
	 Singles Energy            =      -0.0000000000000000 [Eh]
	 Same-Spin Energy          =      -0.4838957499870716 [Eh]
	 Opposite-Spin Energy      =      -1.4764059238903031 [Eh]
	 Correlation Energy        =      -1.9603016738773746 [Eh]
	 Total Energy              =    -495.0586376850719148 [Eh]

	 ================> DF-SCS-MP2 Energies <==================
	-----------------------------------------------------------
	 SCS Same-Spin Scale       =       0.3333333333333333 [-]
	 SCS Opposite-Spin Scale   =       1.2000000000000000 [-]
	 SCS Same-Spin Energy      =      -0.1612985833290239 [Eh]
	 SCS Opposite-Spin Energy  =      -1.7716871086683637 [Eh]
	 SCS Correlation Energy    =      -1.9329856919973876 [Eh]
	 SCS Total Energy          =    -495.0313217031919066 [Eh]
	-----------------------------------------------------------

  Dipole Moment: [D]
     X:    11.4198      Y:    -0.5822      Z:    -0.1387     Total:    11.4355

*** Psi4 exiting successfully. Buy a developer a beer!
