                               Psi4 1.4a3.dev225

  ==> Input File <==

--------------------------------------------------------------------------
#psi4
#
memory 32 gb

molecule  {
-1 1
  O        1.8724200    -0.7415990     0.3394840
  O        2.1027790     1.3758310    -0.4300950
  O       -3.3072830    -0.3512340    -0.9359590
  O       -2.5979240    -0.0254400     1.2183870
  C       -0.0530340     0.6334400     0.4456770
  C       -0.9697120    -0.0967620    -0.5425230
  C        1.3896910     0.5173160     0.0754460
  C       -2.4534200    -0.1528480    -0.0313600
  C        3.2289120    -0.9370400    -0.0704660
  H       -0.2424870     0.2042160     1.4320630
  H       -0.3042490     1.6964080     0.4822290
  H       -0.9505240     0.3810480    -1.5282220
  H       -0.6334456    -1.0805798    -0.6703200
  H        3.4625260    -1.9695390     0.1897820
  H        3.8993660    -0.2498350     0.4514950
  H        3.3382080    -0.7798600    -1.1461020
units angstrom
no_reorient  #important for SAPT in psi4, default
symmetry c1  #important for SAPT in psi4, default
}

set PROPERTIES_ORIGIN ["COM"]
properties('MP2/aug-cc-pvtz', properties = ['dipole'])
--------------------------------------------------------------------------

    Molecular point group: c1
  Charge       = -1
  Multiplicity = 1
  Basis Set: AUG-CC-PVTZ
    Blend: AUG-CC-PVTZ
  Basis Set: (AUG-CC-PVTZ AUX)
    Blend: AUG-CC-PVTZ-JKFIT

    Orbital Energies [Eh]
    ---------------------

    Doubly Occupied:

       1A    -20.496344     2A    -20.434658     3A    -20.308741
       4A    -20.306309     5A    -11.266320     6A    -11.191074
       7A    -11.154231     8A    -11.100190     9A    -11.073312
      10A     -1.342384    11A     -1.239751    12A     -1.177234
      13A     -1.081047    14A     -0.936173    15A     -0.858156
      16A     -0.759959    17A     -0.662574    18A     -0.577137
      19A     -0.568950    20A     -0.561137    21A     -0.531434
      22A     -0.488743    23A     -0.468701    24A     -0.452150
      25A     -0.431521    26A     -0.419131    27A     -0.411229
      28A     -0.388512    29A     -0.360608    30A     -0.352691
      31A     -0.339102    32A     -0.329409    33A     -0.225660
      34A     -0.208889    35A     -0.207976

  @DF-RHF Final Energy:  -493.10763578138500

   => Energetics <=

    Nuclear Repulsion Energy =            435.3548515825909817
    One-Electron Energy =               -1551.5020976523683203
    Two-Electron Energy =                 623.0396102883922822
    Total Energy =                       -493.1076357813850564
  Basis Set: (AUG-CC-PVTZ AUX)
    Blend: AUG-CC-PVTZ-RI
    Molecular point group: c1

    Geometry (in Angstrom), charge = -1, multiplicity = 1:

       Center              X                  Y                   Z               Mass
    ------------   -----------------  -----------------  -----------------  -----------------
         O            1.937476327156    -0.755921020930     0.333423493782    15.994914619570
         O            2.167835327156     1.361508979070    -0.436155506218    15.994914619570
         O           -3.242226672844    -0.365556020930    -0.942019506218    15.994914619570
         O           -2.532867672844    -0.039762020930     1.212326493782    15.994914619570
         C            0.012022327156     0.619117979070     0.439616493782    12.000000000000
         C           -0.904655672844    -0.111084020930    -0.548583506218    12.000000000000
         C            1.454747327156     0.502993979070     0.069385493782    12.000000000000
         C           -2.388363672844    -0.167170020930    -0.037420506218    12.000000000000
         C            3.293968327156    -0.951362020930    -0.076526506218    12.000000000000
         H           -0.177430672844     0.189893979070     1.426002493782     1.007825032230
         H           -0.239192672844     1.682085979070     0.476168493782     1.007825032230
         H           -0.885467672844     0.366725979070    -1.534282506218     1.007825032230
         H           -0.568389272844    -1.094901820930    -0.676380506218     1.007825032230
         H            3.527582327156    -1.983861020930     0.183721493782     1.007825032230
         H            3.964422327156    -0.264157020930     0.445434493782     1.007825032230
         H            3.403264327156    -0.794182020930    -1.152162506218     1.007825032230

  Basis Set: AUG-CC-PVTZ
    Blend: AUG-CC-PVTZ
  Basis Set: (AUG-CC-PVTZ AUX)
    Blend: AUG-CC-PVTZ-JKFIT
	 Reference Energy          =    -493.1076357813849995 [Eh]
	 Singles Energy            =      -0.0000000000000000 [Eh]
	 Same-Spin Energy          =      -0.4837236719413156 [Eh]
	 Opposite-Spin Energy      =      -1.4756924370006339 [Eh]
	 Correlation Energy        =      -1.9594161089419495 [Eh]
	 Total Energy              =    -495.0670518903269226 [Eh]

	 ================> DF-SCS-MP2 Energies <==================
	-----------------------------------------------------------
	 SCS Same-Spin Scale       =       0.3333333333333333 [-]
	 SCS Opposite-Spin Scale   =       1.2000000000000000 [-]
	 SCS Same-Spin Energy      =      -0.1612412239804385 [Eh]
	 SCS Opposite-Spin Energy  =      -1.7708309244007607 [Eh]
	 SCS Correlation Energy    =      -1.9320721483811993 [Eh]
	 SCS Total Energy          =    -495.0397079297662231 [Eh]
	-----------------------------------------------------------

  Dipole Moment: [D]
     X:    11.3548      Y:    -0.7533      Z:    -0.0967     Total:    11.3802

*** Psi4 exiting successfully. Buy a developer a beer!
