                               Psi4 1.4a3.dev225

  ==> Input File <==

--------------------------------------------------------------------------
#psi4
#
memory 32 gb

molecule  {
-1 1
  O        1.8724200    -0.7415990     0.3394840
  O        2.1027790     1.3758310    -0.4300950
  O       -3.3072830    -0.3512340    -0.9359590
  O       -2.5979240    -0.0254400     1.2183870
  C       -0.0530340     0.6334400     0.4456770
  C       -0.9697120    -0.0967620    -0.5425230
  C        1.3896910     0.5173160     0.0754460
  C       -2.4534200    -0.1528480    -0.0313600
  C        3.2289120    -0.9370400    -0.0704660
  H       -0.2424870     0.2042160     1.4320630
  H       -0.3042490     1.6964080     0.4822290
  H       -0.9570521     0.3971973    -1.5203354
  H       -0.6173950    -1.1275390    -0.6764200
  H        3.4625260    -1.9695390     0.1897820
  H        3.8993660    -0.2498350     0.4514950
  H        3.3382080    -0.7798600    -1.1461020
units angstrom
no_reorient  #important for SAPT in psi4, default
symmetry c1  #important for SAPT in psi4, default
}

set PROPERTIES_ORIGIN ["COM"]
properties('MP2/aug-cc-pvtz', properties = ['dipole'])
--------------------------------------------------------------------------

    Molecular point group: c1
  Charge       = -1
  Multiplicity = 1
  Basis Set: AUG-CC-PVTZ
    Blend: AUG-CC-PVTZ
  Basis Set: (AUG-CC-PVTZ AUX)
    Blend: AUG-CC-PVTZ-JKFIT

    Orbital Energies [Eh]
    ---------------------

    Doubly Occupied:

       1A    -20.496177     2A    -20.434733     3A    -20.308946
       4A    -20.306496     5A    -11.266403     6A    -11.190973
       7A    -11.154572     8A    -11.100604     9A    -11.079623
      10A     -1.342304    11A     -1.239755    12A     -1.177420
      13A     -1.081246    14A     -0.935397    15A     -0.857323
      16A     -0.756578    17A     -0.662103    18A     -0.576727
      19A     -0.568810    20A     -0.560742    21A     -0.530116
      22A     -0.488122    23A     -0.466793    24A     -0.452032
      25A     -0.431054    26A     -0.419041    27A     -0.411292
      28A     -0.387095    29A     -0.360513    30A     -0.352440
      31A     -0.338079    32A     -0.328215    33A     -0.225774
      34A     -0.209173    35A     -0.208130

  @DF-RHF Final Energy:  -493.10843446094430

   => Energetics <=

    Nuclear Repulsion Energy =            435.1273383269716533
    One-Electron Energy =               -1551.0619403765754214
    Two-Electron Energy =                 622.8261675886593594
    Total Energy =                       -493.1084344609442951
  Basis Set: (AUG-CC-PVTZ AUX)
    Blend: AUG-CC-PVTZ-RI
    Molecular point group: c1

    Geometry (in Angstrom), charge = -1, multiplicity = 1:

       Center              X                  Y                   Z               Mass
    ------------   -----------------  -----------------  -----------------  -----------------
         O            1.937403086759    -0.755684052771     0.333409752507    15.994914619570
         O            2.167762086759     1.361745947229    -0.436169247493    15.994914619570
         O           -3.242299913241    -0.365319052771    -0.942033247493    15.994914619570
         O           -2.532940913241    -0.039525052771     1.212312752507    15.994914619570
         C            0.011949086759     0.619354947229     0.439602752507    12.000000000000
         C           -0.904728913241    -0.110847052771    -0.548597247493    12.000000000000
         C            1.454674086759     0.503230947229     0.069371752507    12.000000000000
         C           -2.388436913241    -0.166933052771    -0.037434247493    12.000000000000
         C            3.293895086759    -0.951125052771    -0.076540247493    12.000000000000
         H           -0.177503913241     0.190130947229     1.425988752507     1.007825032230
         H           -0.239265913241     1.682322947229     0.476154752507     1.007825032230
         H           -0.892069013241     0.383112247229    -1.526409647493     1.007825032230
         H           -0.552411913241    -1.141624052771    -0.682494247493     1.007825032230
         H            3.527509086759    -1.983624052771     0.183707752507     1.007825032230
         H            3.964349086759    -0.263920052771     0.445420752507     1.007825032230
         H            3.403191086759    -0.793945052771    -1.152176247493     1.007825032230

  Basis Set: AUG-CC-PVTZ
    Blend: AUG-CC-PVTZ
  Basis Set: (AUG-CC-PVTZ AUX)
    Blend: AUG-CC-PVTZ-JKFIT
	 Reference Energy          =    -493.1084344609442951 [Eh]
	 Singles Energy            =      -0.0000000000000000 [Eh]
	 Same-Spin Energy          =      -0.4837526181402020 [Eh]
	 Opposite-Spin Energy      =      -1.4760017686829188 [Eh]
	 Correlation Energy        =      -1.9597543868231209 [Eh]
	 Total Energy              =    -495.0681888477674306 [Eh]

	 ================> DF-SCS-MP2 Energies <==================
	-----------------------------------------------------------
	 SCS Same-Spin Scale       =       0.3333333333333333 [-]
	 SCS Opposite-Spin Scale   =       1.2000000000000000 [-]
	 SCS Same-Spin Energy      =      -0.1612508727134007 [Eh]
	 SCS Opposite-Spin Energy  =      -1.7712021224195025 [Eh]
	 SCS Correlation Energy    =      -1.9324529951329030 [Eh]
	 SCS Total Energy          =    -495.0408874560772006 [Eh]
	-----------------------------------------------------------

  Dipole Moment: [D]
     X:    11.3384      Y:    -0.7264      Z:    -0.0831     Total:    11.3620

*** Psi4 exiting successfully. Buy a developer a beer!
