                               Psi4 1.4a3.dev225

  ==> Input File <==

--------------------------------------------------------------------------
#psi4
#
memory 32 gb

molecule  {
-1 1
  O        1.8724200    -0.7415990     0.3394840
  O        2.1027790     1.3758310    -0.4300950
  O       -3.3072830    -0.3512340    -0.9359590
  O       -2.5979240    -0.0254400     1.2183870
  C       -0.0530340     0.6334400     0.4456770
  C       -0.9697120    -0.0967620    -0.5425230
  C        1.3896910     0.5173160     0.0754460
  C       -2.4534200    -0.1528480    -0.0313600
  C        3.2289120    -0.9370400    -0.0704660
  H       -0.2424870     0.2042160     1.4320630
  H       -0.3042490     1.6964080     0.4822290
  H       -0.9505240     0.3810480    -1.5282220
  H       -0.6173950    -1.1275390    -0.6764200
  H        3.4196657    -1.7801103     0.1420353
  H        3.8993660    -0.2498350     0.4514950
  H        3.3382080    -0.7798600    -1.1461020
units angstrom
no_reorient  #important for SAPT in psi4, default
symmetry c1  #important for SAPT in psi4, default
}

set PROPERTIES_ORIGIN ["COM"]
properties('MP2/aug-cc-pvtz', properties = ['dipole'])
--------------------------------------------------------------------------

    Molecular point group: c1
  Charge       = -1
  Multiplicity = 1
  Basis Set: AUG-CC-PVTZ
    Blend: AUG-CC-PVTZ
  Basis Set: (AUG-CC-PVTZ AUX)
    Blend: AUG-CC-PVTZ-JKFIT

    Orbital Energies [Eh]
    ---------------------

    Doubly Occupied:

       1A    -20.494149     2A    -20.433266     3A    -20.308602
       4A    -20.306091     5A    -11.264827     6A    -11.165679
       7A    -11.154247     8A    -11.099871     9A    -11.079035
      10A     -1.340852    11A     -1.238710    12A     -1.177036
      13A     -1.080873    14A     -0.939878    15A     -0.880000
      16A     -0.759463    17A     -0.660789    18A     -0.587700
      19A     -0.569518    20A     -0.564762    21A     -0.531226
      22A     -0.497234    23A     -0.473261    24A     -0.452895
      25A     -0.435227    26A     -0.419086    27A     -0.410854
      28A     -0.386393    29A     -0.359485    30A     -0.352075
      31A     -0.337061    32A     -0.326993    33A     -0.225464
      34A     -0.208841    35A     -0.207767

  @DF-RHF Final Energy:  -493.07354853092465

   => Energetics <=

    Nuclear Repulsion Energy =            436.1850944780834993
    One-Electron Energy =               -1553.0588613405952856
    Two-Electron Energy =                 623.8002183315870752
    Total Energy =                       -493.0735485309246542
  Basis Set: (AUG-CC-PVTZ AUX)
    Blend: AUG-CC-PVTZ-RI
    Molecular point group: c1

    Geometry (in Angstrom), charge = -1, multiplicity = 1:

       Center              X                  Y                   Z               Mass
    ------------   -----------------  -----------------  -----------------  -----------------
         O            1.937682528579    -0.757016796478     0.333837644861    15.994914619570
         O            2.168041528579     1.360413203522    -0.435741355139    15.994914619570
         O           -3.242020471421    -0.366651796478    -0.941605355139    15.994914619570
         O           -2.532661471421    -0.040857796478     1.212740644861    15.994914619570
         C            0.012228528579     0.618022203522     0.440030644861    12.000000000000
         C           -0.904449471421    -0.112179796478    -0.548169355139    12.000000000000
         C            1.454953528579     0.501898203522     0.069799644861    12.000000000000
         C           -2.388157471421    -0.168265796478    -0.037006355139    12.000000000000
         C            3.294174528579    -0.952457796478    -0.076112355139    12.000000000000
         H           -0.177224471421     0.188798203522     1.426416644861     1.007825032230
         H           -0.238986471421     1.680990203522     0.476582644861     1.007825032230
         H           -0.885261471421     0.365630203522    -1.533868355139     1.007825032230
         H           -0.552132471421    -1.142956796478    -0.682066355139     1.007825032230
         H            3.484928228579    -1.795528096478     0.136388944861     1.007825032230
         H            3.964628528579    -0.265252796478     0.445848644861     1.007825032230
         H            3.403470528579    -0.795277796478    -1.151748355139     1.007825032230

  Basis Set: AUG-CC-PVTZ
    Blend: AUG-CC-PVTZ
  Basis Set: (AUG-CC-PVTZ AUX)
    Blend: AUG-CC-PVTZ-JKFIT
	 Reference Energy          =    -493.0735485309246542 [Eh]
	 Singles Energy            =      -0.0000000000000000 [Eh]
	 Same-Spin Energy          =      -0.4839013709663226 [Eh]
	 Opposite-Spin Energy      =      -1.4754037568656462 [Eh]
	 Correlation Energy        =      -1.9593051278319686 [Eh]
	 Total Energy              =    -495.0328536587566077 [Eh]

	 ================> DF-SCS-MP2 Energies <==================
	-----------------------------------------------------------
	 SCS Same-Spin Scale       =       0.3333333333333333 [-]
	 SCS Opposite-Spin Scale   =       1.2000000000000000 [-]
	 SCS Same-Spin Energy      =      -0.1613004569887742 [Eh]
	 SCS Opposite-Spin Energy  =      -1.7704845082387755 [Eh]
	 SCS Correlation Energy    =      -1.9317849652275496 [Eh]
	 SCS Total Energy          =    -495.0053334961522182 [Eh]
	-----------------------------------------------------------

  Dipole Moment: [D]
     X:    11.4192      Y:    -0.8097      Z:    -0.0783     Total:    11.4481

*** Psi4 exiting successfully. Buy a developer a beer!
