                               Psi4 1.4a3.dev225

  ==> Input File <==

--------------------------------------------------------------------------
#psi4
#
memory 32 gb

molecule  {
-1 1
  O        1.8724200    -0.7415990     0.3394840
  O        2.1027790     1.3758310    -0.4300950
  O       -3.3072830    -0.3512340    -0.9359590
  O       -2.5979240    -0.0254400     1.2183870
  C       -0.0530340     0.6334400     0.4456770
  C       -0.9697120    -0.0967620    -0.5425230
  C        1.3896910     0.5173160     0.0754460
  C       -2.4465116    -0.2621726    -0.0350539
  C        3.2289120    -0.9370400    -0.0704660
  H       -0.2424870     0.2042160     1.4320630
  H       -0.3042490     1.6964080     0.4822290
  H       -0.9505240     0.3810480    -1.5282220
  H       -0.6173950    -1.1275390    -0.6764200
  H        3.4625260    -1.9695390     0.1897820
  H        3.8993660    -0.2498350     0.4514950
  H        3.3382080    -0.7798600    -1.1461020
units angstrom
no_reorient  #important for SAPT in psi4, default
symmetry c1  #important for SAPT in psi4, default
}

set PROPERTIES_ORIGIN ["COM"]
properties('MP2/aug-cc-pvtz', properties = ['dipole'])
--------------------------------------------------------------------------

    Molecular point group: c1
  Charge       = -1
  Multiplicity = 1
  Basis Set: AUG-CC-PVTZ
    Blend: AUG-CC-PVTZ
  Basis Set: (AUG-CC-PVTZ AUX)
    Blend: AUG-CC-PVTZ-JKFIT

    Orbital Energies [Eh]
    ---------------------

    Doubly Occupied:

       1A    -20.496037     2A    -20.435069     3A    -20.310642
       4A    -20.305384     5A    -11.266672     6A    -11.190921
       7A    -11.156182     8A    -11.101103     9A    -11.079943
      10A     -1.342295    11A     -1.239891    12A     -1.176459
      13A     -1.077135    14A     -0.934968    15A     -0.857035
      16A     -0.757767    17A     -0.662338    18A     -0.576441
      19A     -0.568498    20A     -0.561103    21A     -0.530413
      22A     -0.487355    23A     -0.465675    24A     -0.451906
      25A     -0.430653    26A     -0.418616    27A     -0.410943
      28A     -0.386935    29A     -0.360249    30A     -0.352524
      31A     -0.337272    32A     -0.327201    33A     -0.224503
      34A     -0.208645    35A     -0.206609

  @DF-RHF Final Energy:  -493.10180774276103

   => Energetics <=

    Nuclear Repulsion Energy =            434.8752685599716870
    One-Electron Energy =               -1550.5633935980686147
    Two-Electron Energy =                 622.5863172953360163
    Total Energy =                       -493.1018077427610251
  Basis Set: (AUG-CC-PVTZ AUX)
    Blend: AUG-CC-PVTZ-RI
    Molecular point group: c1

    Geometry (in Angstrom), charge = -1, multiplicity = 1:

       Center              X                  Y                   Z               Mass
    ------------   -----------------  -----------------  -----------------  -----------------
         O            1.936720212952    -0.745548008136     0.333808694307    15.994914619570
         O            2.167079212952     1.371881991864    -0.435770305693    15.994914619570
         O           -3.242982787048    -0.355183008136    -0.941634305693    15.994914619570
         O           -2.533623787048    -0.029389008136     1.212711694307    15.994914619570
         C            0.011266212952     0.629490991864     0.440001694307    12.000000000000
         C           -0.905411787048    -0.100711008136    -0.548198305693    12.000000000000
         C            1.453991212952     0.513366991864     0.069770694307    12.000000000000
         C           -2.382211387048    -0.266121608136    -0.040729205693    12.000000000000
         C            3.293212212952    -0.940989008136    -0.076141305693    12.000000000000
         H           -0.178186787048     0.200266991864     1.426387694307     1.007825032230
         H           -0.239948787048     1.692458991864     0.476553694307     1.007825032230
         H           -0.886223787048     0.377098991864    -1.533897305693     1.007825032230
         H           -0.553094787048    -1.131488008136    -0.682095305693     1.007825032230
         H            3.526826212952    -1.973488008136     0.184106694307     1.007825032230
         H            3.963666212952    -0.253784008136     0.445819694307     1.007825032230
         H            3.402508212952    -0.783809008136    -1.151777305693     1.007825032230

  Basis Set: AUG-CC-PVTZ
    Blend: AUG-CC-PVTZ
  Basis Set: (AUG-CC-PVTZ AUX)
    Blend: AUG-CC-PVTZ-JKFIT
	 Reference Energy          =    -493.1018077427610251 [Eh]
	 Singles Energy            =      -0.0000000000000000 [Eh]
	 Same-Spin Energy          =      -0.4841525057592675 [Eh]
	 Opposite-Spin Energy      =      -1.4768919069417978 [Eh]
	 Correlation Energy        =      -1.9610444127010653 [Eh]
	 Total Energy              =    -495.0628521554621102 [Eh]

	 ================> DF-SCS-MP2 Energies <==================
	-----------------------------------------------------------
	 SCS Same-Spin Scale       =       0.3333333333333333 [-]
	 SCS Opposite-Spin Scale   =       1.2000000000000000 [-]
	 SCS Same-Spin Energy      =      -0.1613841685864225 [Eh]
	 SCS Opposite-Spin Energy  =      -1.7722702883301573 [Eh]
	 SCS Correlation Energy    =      -1.9336544569165799 [Eh]
	 SCS Total Energy          =    -495.0354621996776245 [Eh]
	-----------------------------------------------------------

  Dipole Moment: [D]
     X:    11.3183      Y:    -0.8000      Z:    -0.2444     Total:    11.3491

*** Psi4 exiting successfully. Buy a developer a beer!
