                               Psi4 1.4a3.dev225

  ==> Input File <==

--------------------------------------------------------------------------
#psi4
#
memory 32 gb

molecule  {
-1 1
  O        1.8724200    -0.7415990     0.3394840
  O        2.1027790     1.3758310    -0.4300950
  O       -3.3072830    -0.3512340    -0.9359590
  O       -2.5979240    -0.0254400     1.2183870
  C       -0.0530340     0.6334400     0.4456770
  C       -0.9941207    -0.0502651    -0.5527898
  C        1.3896910     0.5173160     0.0754460
  C       -2.4534200    -0.1528480    -0.0313600
  C        3.2289120    -0.9370400    -0.0704660
  H       -0.2424870     0.2042160     1.4320630
  H       -0.3042490     1.6964080     0.4822290
  H       -0.9505240     0.3810480    -1.5282220
  H       -0.6173950    -1.1275390    -0.6764200
  H        3.4625260    -1.9695390     0.1897820
  H        3.8993660    -0.2498350     0.4514950
  H        3.3382080    -0.7798600    -1.1461020
units angstrom
no_reorient  #important for SAPT in psi4, default
symmetry c1  #important for SAPT in psi4, default
}

set PROPERTIES_ORIGIN ["COM"]
properties('MP2/aug-cc-pvtz', properties = ['dipole'])
--------------------------------------------------------------------------

    Molecular point group: c1
  Charge       = -1
  Multiplicity = 1
  Basis Set: AUG-CC-PVTZ
    Blend: AUG-CC-PVTZ
  Basis Set: (AUG-CC-PVTZ AUX)
    Blend: AUG-CC-PVTZ-JKFIT

    Orbital Energies [Eh]
    ---------------------

    Doubly Occupied:

       1A    -20.496579     2A    -20.435401     3A    -20.308658
       4A    -20.305551     5A    -11.267236     6A    -11.191190
       7A    -11.153827     8A    -11.100992     9A    -11.081588
      10A     -1.342708    11A     -1.240269    12A     -1.177649
      13A     -1.081078    14A     -0.935351    15A     -0.858014
      16A     -0.757885    17A     -0.662450    18A     -0.577409
      19A     -0.568920    20A     -0.561171    21A     -0.533455
      22A     -0.487554    23A     -0.464546    24A     -0.452896
      25A     -0.432076    26A     -0.420546    27A     -0.411590
      28A     -0.382541    29A     -0.363250    30A     -0.356171
      31A     -0.337004    32A     -0.321313    33A     -0.225829
      34A     -0.210922    35A     -0.207851

  @DF-RHF Final Energy:  -493.10590572672413

   => Energetics <=

    Nuclear Repulsion Energy =            435.1499836727734305
    One-Electron Energy =               -1551.0888408663292921
    Two-Electron Energy =                 622.8329514668316733
    Total Energy =                       -493.1059057267241315
  Basis Set: (AUG-CC-PVTZ AUX)
    Blend: AUG-CC-PVTZ-RI
    Molecular point group: c1

    Geometry (in Angstrom), charge = -1, multiplicity = 1:

       Center              X                  Y                   Z               Mass
    ------------   -----------------  -----------------  -----------------  -----------------
         O            1.939588201079    -0.759817982426     0.334410633796    15.994914619570
         O            2.169947201079     1.357612017574    -0.435168366204    15.994914619570
         O           -3.240114798921    -0.369452982426    -0.941032366204    15.994914619570
         O           -2.530755798921    -0.043658982426     1.213313633796    15.994914619570
         C            0.014134201079     0.615221017574     0.440603633796    12.000000000000
         C           -0.926952498921    -0.068484082426    -0.557863166204    12.000000000000
         C            1.456859201079     0.499097017574     0.070372633796    12.000000000000
         C           -2.386251798921    -0.171066982426    -0.036433366204    12.000000000000
         C            3.296080201079    -0.955258982426    -0.075539366204    12.000000000000
         H           -0.175318798921     0.185997017574     1.426989633796     1.007825032230
         H           -0.237080798921     1.678189017574     0.477155633796     1.007825032230
         H           -0.883355798921     0.362829017574    -1.533295366204     1.007825032230
         H           -0.550226798921    -1.145757982426    -0.681493366204     1.007825032230
         H            3.529694201079    -1.987757982426     0.184708633796     1.007825032230
         H            3.966534201079    -0.268053982426     0.446421633796     1.007825032230
         H            3.405376201079    -0.798078982426    -1.151175366204     1.007825032230

  Basis Set: AUG-CC-PVTZ
    Blend: AUG-CC-PVTZ
  Basis Set: (AUG-CC-PVTZ AUX)
    Blend: AUG-CC-PVTZ-JKFIT
	 Reference Energy          =    -493.1059057267241315 [Eh]
	 Singles Energy            =      -0.0000000000000000 [Eh]
	 Same-Spin Energy          =      -0.4837672263416446 [Eh]
	 Opposite-Spin Energy      =      -1.4760476500156849 [Eh]
	 Correlation Energy        =      -1.9598148763573295 [Eh]
	 Total Energy              =    -495.0657206030814450 [Eh]

	 ================> DF-SCS-MP2 Energies <==================
	-----------------------------------------------------------
	 SCS Same-Spin Scale       =       0.3333333333333333 [-]
	 SCS Opposite-Spin Scale   =       1.2000000000000000 [-]
	 SCS Same-Spin Energy      =      -0.1612557421138815 [Eh]
	 SCS Opposite-Spin Energy  =      -1.7712571800188219 [Eh]
	 SCS Correlation Energy    =      -1.9325129221327035 [Eh]
	 SCS Total Energy          =    -495.0384186488568616 [Eh]
	-----------------------------------------------------------

  Dipole Moment: [D]
     X:    11.3867      Y:    -0.6590      Z:    -0.1163     Total:    11.4063

*** Psi4 exiting successfully. Buy a developer a beer!
