                               Psi4 1.4a3.dev225

  ==> Input File <==

--------------------------------------------------------------------------
#psi4
#
memory 32 gb

molecule  {
-1 1
  O        1.8724200    -0.7415990     0.3394840
  O        2.1027790     1.3758310    -0.4300950
  O       -3.3072830    -0.3512340    -0.9359590
  O       -2.5979240    -0.0254400     1.2183870
  C       -0.0530340     0.6334400     0.4456770
  C       -0.9697120    -0.0967620    -0.5425230
  C        1.3896910     0.5173160     0.0754460
  C       -2.4541642    -0.0980499    -0.0304463
  C        3.2289120    -0.9370400    -0.0704660
  H       -0.2424870     0.2042160     1.4320630
  H       -0.3042490     1.6964080     0.4822290
  H       -0.9505240     0.3810480    -1.5282220
  H       -0.6173950    -1.1275390    -0.6764200
  H        3.4625260    -1.9695390     0.1897820
  H        3.8993660    -0.2498350     0.4514950
  H        3.3382080    -0.7798600    -1.1461020
units angstrom
no_reorient  #important for SAPT in psi4, default
symmetry c1  #important for SAPT in psi4, default
}

set PROPERTIES_ORIGIN ["COM"]
properties('MP2/aug-cc-pvtz', properties = ['dipole'])
--------------------------------------------------------------------------

    Molecular point group: c1
  Charge       = -1
  Multiplicity = 1
  Basis Set: AUG-CC-PVTZ
    Blend: AUG-CC-PVTZ
  Basis Set: (AUG-CC-PVTZ AUX)
    Blend: AUG-CC-PVTZ-JKFIT

    Orbital Energies [Eh]
    ---------------------

    Doubly Occupied:

       1A    -20.496377     2A    -20.434730     3A    -20.311188
       4A    -20.304832     5A    -11.266445     6A    -11.191101
       7A    -11.155192     8A    -11.100823     9A    -11.080367
      10A     -1.342450    11A     -1.239836    12A     -1.176817
      13A     -1.079319    14A     -0.935803    15A     -0.857595
      16A     -0.756456    17A     -0.662222    18A     -0.577275
      19A     -0.569109    20A     -0.560814    21A     -0.531020
      22A     -0.488201    23A     -0.466477    24A     -0.452196
      25A     -0.431267    26A     -0.418903    27A     -0.410294
      28A     -0.386408    29A     -0.360862    30A     -0.353247
      31A     -0.338325    32A     -0.327253    33A     -0.225860
      34A     -0.209142    35A     -0.207270

  @DF-RHF Final Energy:  -493.10620465324115

   => Energetics <=

    Nuclear Repulsion Energy =            435.1076371158828806
    One-Electron Energy =               -1551.0167305902248245
    Two-Electron Energy =                 622.8028888211007370
    Total Energy =                       -493.1062046532412069
  Basis Set: (AUG-CC-PVTZ AUX)
    Blend: AUG-CC-PVTZ-RI
    Molecular point group: c1

    Geometry (in Angstrom), charge = -1, multiplicity = 1:

       Center              X                  Y                   Z               Mass
    ------------   -----------------  -----------------  -----------------  -----------------
         O            1.937421030267    -0.760578197868     0.333386734991    15.994914619570
         O            2.167780030267     1.356851802132    -0.436192265009    15.994914619570
         O           -3.242281969733    -0.370213197868    -0.942056265009    15.994914619570
         O           -2.532922969733    -0.044419197868     1.212289734991    15.994914619570
         C            0.011967030267     0.614460802132     0.439579734991    12.000000000000
         C           -0.904710969733    -0.115741197868    -0.548620265009    12.000000000000
         C            1.454692030267     0.498336802132     0.069348734991    12.000000000000
         C           -2.389163169733    -0.117029097868    -0.036543565009    12.000000000000
         C            3.293913030267    -0.956019197868    -0.076563265009    12.000000000000
         H           -0.177485969733     0.185236802132     1.425965734991     1.007825032230
         H           -0.239247969733     1.677428802132     0.476131734991     1.007825032230
         H           -0.885522969733     0.362068802132    -1.534319265009     1.007825032230
         H           -0.552393969733    -1.146518197868    -0.682517265009     1.007825032230
         H            3.527527030267    -1.988518197868     0.183684734991     1.007825032230
         H            3.964367030267    -0.268814197868     0.445397734991     1.007825032230
         H            3.403209030267    -0.798839197868    -1.152199265009     1.007825032230

  Basis Set: AUG-CC-PVTZ
    Blend: AUG-CC-PVTZ
  Basis Set: (AUG-CC-PVTZ AUX)
    Blend: AUG-CC-PVTZ-JKFIT
	 Reference Energy          =    -493.1062046532411500 [Eh]
	 Singles Energy            =      -0.0000000000000000 [Eh]
	 Same-Spin Energy          =      -0.4839357428529882 [Eh]
	 Opposite-Spin Energy      =      -1.4764816576200073 [Eh]
	 Correlation Energy        =      -1.9604174004729955 [Eh]
	 Total Energy              =    -495.0666220537141271 [Eh]

	 ================> DF-SCS-MP2 Energies <==================
	-----------------------------------------------------------
	 SCS Same-Spin Scale       =       0.3333333333333333 [-]
	 SCS Opposite-Spin Scale   =       1.2000000000000000 [-]
	 SCS Same-Spin Energy      =      -0.1613119142843294 [Eh]
	 SCS Opposite-Spin Energy  =      -1.7717779891440086 [Eh]
	 SCS Correlation Energy    =      -1.9330899034283380 [Eh]
	 SCS Total Energy          =    -495.0392945566694607 [Eh]
	-----------------------------------------------------------

  Dipole Moment: [D]
     X:    11.3752      Y:    -0.6928      Z:    -0.0112     Total:    11.3963

*** Psi4 exiting successfully. Buy a developer a beer!
