                               Psi4 1.4a3.dev225

  ==> Input File <==

--------------------------------------------------------------------------
#psi4
#
memory 32 gb

molecule  {
-1 1
  O        1.8724200    -0.7415990     0.3394840
  O        2.1027790     1.3758310    -0.4300950
  O       -3.3072830    -0.3512340    -0.9359590
  O       -2.5979240    -0.0254400     1.2183870
  C       -0.0530340     0.6334400     0.4456770
  C       -0.9697120    -0.0967620    -0.5425230
  C        1.3780506     0.5033017     0.0836984
  C       -2.4534200    -0.1528480    -0.0313600
  C        3.2289120    -0.9370400    -0.0704660
  H       -0.2424870     0.2042160     1.4320630
  H       -0.3042490     1.6964080     0.4822290
  H       -0.9505240     0.3810480    -1.5282220
  H       -0.6173950    -1.1275390    -0.6764200
  H        3.4625260    -1.9695390     0.1897820
  H        3.8993660    -0.2498350     0.4514950
  H        3.3382080    -0.7798600    -1.1461020
units angstrom
no_reorient  #important for SAPT in psi4, default
symmetry c1  #important for SAPT in psi4, default
}

set PROPERTIES_ORIGIN ["COM"]
properties('MP2/aug-cc-pvtz', properties = ['dipole'])
--------------------------------------------------------------------------

    Molecular point group: c1
  Charge       = -1
  Multiplicity = 1
  Basis Set: AUG-CC-PVTZ
    Blend: AUG-CC-PVTZ
  Basis Set: (AUG-CC-PVTZ AUX)
    Blend: AUG-CC-PVTZ-JKFIT

    Orbital Energies [Eh]
    ---------------------

    Doubly Occupied:

       1A    -20.499143     2A    -20.430742     3A    -20.309542
       4A    -20.306990     5A    -11.267937     6A    -11.192397
       7A    -11.155265     8A    -11.100952     9A    -11.080585
      10A     -1.342791    11A     -1.229096    12A     -1.177967
      13A     -1.081791    14A     -0.938967    15A     -0.859969
      16A     -0.758853    17A     -0.663831    18A     -0.576733
      19A     -0.566536    20A     -0.562141    21A     -0.531237
      22A     -0.485895    23A     -0.468322    24A     -0.450884
      25A     -0.430183    26A     -0.417943    27A     -0.410918
      28A     -0.388352    29A     -0.361066    30A     -0.349928
      31A     -0.337522    32A     -0.327563    33A     -0.226377
      34A     -0.209906    35A     -0.208651

  @DF-RHF Final Energy:  -493.10649412871180

   => Energetics <=

    Nuclear Repulsion Energy =            435.1311149511876692
    One-Electron Energy =               -1551.0612698203274249
    Two-Electron Energy =                 622.8236607404278402
    Total Energy =                       -493.1064941287118017
  Basis Set: (AUG-CC-PVTZ AUX)
    Blend: AUG-CC-PVTZ-RI
    Molecular point group: c1

    Geometry (in Angstrom), charge = -1, multiplicity = 1:

       Center              X                  Y                   Z               Mass
    ------------   -----------------  -----------------  -----------------  -----------------
         O            1.938418893167    -0.754276428351     0.332714664318    15.994914619570
         O            2.168777893167     1.363153571649    -0.436864335682    15.994914619570
         O           -3.241284106833    -0.363911428351    -0.942728335682    15.994914619570
         O           -2.531925106833    -0.038117428351     1.211617664318    15.994914619570
         C            0.012964893167     0.620762571649     0.438907664318    12.000000000000
         C           -0.903713106833    -0.109439428351    -0.549292335682    12.000000000000
         C            1.444049493167     0.490624271649     0.076929064318    12.000000000000
         C           -2.387421106833    -0.165525428351    -0.038129335682    12.000000000000
         C            3.294910893167    -0.949717428351    -0.077235335682    12.000000000000
         H           -0.176488106833     0.191538571649     1.425293664318     1.007825032230
         H           -0.238250106833     1.683730571649     0.475459664318     1.007825032230
         H           -0.884525106833     0.368370571649    -1.534991335682     1.007825032230
         H           -0.551396106833    -1.140216428351    -0.683189335682     1.007825032230
         H            3.528524893167    -1.982216428351     0.183012664318     1.007825032230
         H            3.965364893167    -0.262512428351     0.444725664318     1.007825032230
         H            3.404206893167    -0.792537428351    -1.152871335682     1.007825032230

  Basis Set: AUG-CC-PVTZ
    Blend: AUG-CC-PVTZ
  Basis Set: (AUG-CC-PVTZ AUX)
    Blend: AUG-CC-PVTZ-JKFIT
	 Reference Energy          =    -493.1064941287118017 [Eh]
	 Singles Energy            =      -0.0000000000000000 [Eh]
	 Same-Spin Energy          =      -0.4841493878915353 [Eh]
	 Opposite-Spin Energy      =      -1.4766571441849319 [Eh]
	 Correlation Energy        =      -1.9608065320764672 [Eh]
	 Total Energy              =    -495.0673006607882485 [Eh]

	 ================> DF-SCS-MP2 Energies <==================
	-----------------------------------------------------------
	 SCS Same-Spin Scale       =       0.3333333333333333 [-]
	 SCS Opposite-Spin Scale   =       1.2000000000000000 [-]
	 SCS Same-Spin Energy      =      -0.1613831292971784 [Eh]
	 SCS Opposite-Spin Energy  =      -1.7719885730219183 [Eh]
	 SCS Correlation Energy    =      -1.9333717023190966 [Eh]
	 SCS Total Energy          =    -495.0398658310309088 [Eh]
	-----------------------------------------------------------

  Dipole Moment: [D]
     X:    11.2798      Y:    -0.8588      Z:    -0.0368     Total:    11.3125

*** Psi4 exiting successfully. Buy a developer a beer!
