                               Psi4 1.4a3.dev225

  ==> Input File <==

--------------------------------------------------------------------------
#psi4
#
memory 32 gb

molecule  {
-1 1
  O        1.8724200    -0.7415990     0.3394840
  O        2.1027790     1.3758310    -0.4300950
  O       -3.3072830    -0.3512340    -0.9359590
  O       -2.5979240    -0.0254400     1.2183870
  C       -0.0530340     0.6334400     0.4456770
  C       -0.9697120    -0.0967620    -0.5425230
  C        1.3896910     0.5173160     0.0754460
  C       -2.4534200    -0.1528480    -0.0313600
  C        3.2289120    -0.9370400    -0.0704660
  H       -0.2648032     0.2734315     1.4549493
  H       -0.3042490     1.6964080     0.4822290
  H       -0.9505240     0.3810480    -1.5282220
  H       -0.6173950    -1.1275390    -0.6764200
  H        3.4625260    -1.9695390     0.1897820
  H        3.8993660    -0.2498350     0.4514950
  H        3.3382080    -0.7798600    -1.1461020
units angstrom
no_reorient  #important for SAPT in psi4, default
symmetry c1  #important for SAPT in psi4, default
}

set PROPERTIES_ORIGIN ["COM"]
properties('MP2/aug-cc-pvtz', properties = ['dipole'])
--------------------------------------------------------------------------

    Molecular point group: c1
  Charge       = -1
  Multiplicity = 1
  Basis Set: AUG-CC-PVTZ
    Blend: AUG-CC-PVTZ
  Basis Set: (AUG-CC-PVTZ AUX)
    Blend: AUG-CC-PVTZ-JKFIT

    Orbital Energies [Eh]
    ---------------------

    Doubly Occupied:

       1A    -20.496222     2A    -20.435176     3A    -20.309019
       4A    -20.306445     5A    -11.267086     6A    -11.190947
       7A    -11.154693     8A    -11.100279     9A    -11.079611
      10A     -1.342396    11A     -1.239979    12A     -1.177425
      13A     -1.081275    14A     -0.934680    15A     -0.857284
      16A     -0.756904    17A     -0.662838    18A     -0.578033
      19A     -0.568612    20A     -0.561253    21A     -0.530571
      22A     -0.486286    23A     -0.464809    24A     -0.452339
      25A     -0.431213    26A     -0.419120    27A     -0.411994
      28A     -0.384296    29A     -0.361220    30A     -0.354191
      31A     -0.338769    32A     -0.326807    33A     -0.225832
      34A     -0.209288    35A     -0.208163

  @DF-RHF Final Energy:  -493.10777279407080

   => Energetics <=

    Nuclear Repulsion Energy =            435.0434672974693626
    One-Electron Energy =               -1550.8923665762201836
    Two-Electron Energy =                 622.7411264846800805
    Total Energy =                       -493.1077727940707973
  Basis Set: (AUG-CC-PVTZ AUX)
    Blend: AUG-CC-PVTZ-RI
    Molecular point group: c1

    Geometry (in Angstrom), charge = -1, multiplicity = 1:

       Center              X                  Y                   Z               Mass
    ------------   -----------------  -----------------  -----------------  -----------------
         O            1.937524517760    -0.756092200792     0.333294385326    15.994914619570
         O            2.167883517760     1.361337799208    -0.436284614674    15.994914619570
         O           -3.242178482240    -0.365727200792    -0.942148614674    15.994914619570
         O           -2.532819482240    -0.039933200792     1.212197385326    15.994914619570
         C            0.012070517760     0.618946799208     0.439487385326    12.000000000000
         C           -0.904607482240    -0.111255200792    -0.548712614674    12.000000000000
         C            1.454795517760     0.502822799208     0.069256385326    12.000000000000
         C           -2.388315482240    -0.167341200792    -0.037549614674    12.000000000000
         C            3.294016517760    -0.951533200792    -0.076655614674    12.000000000000
         H           -0.199698682240     0.258938299208     1.448759685326     1.007825032230
         H           -0.239144482240     1.681914799208     0.476039385326     1.007825032230
         H           -0.885419482240     0.366554799208    -1.534411614674     1.007825032230
         H           -0.552290482240    -1.142032200792    -0.682609614674     1.007825032230
         H            3.527630517760    -1.984032200792     0.183592385326     1.007825032230
         H            3.964470517760    -0.264328200792     0.445305385326     1.007825032230
         H            3.403312517760    -0.794353200792    -1.152291614674     1.007825032230

  Basis Set: AUG-CC-PVTZ
    Blend: AUG-CC-PVTZ
  Basis Set: (AUG-CC-PVTZ AUX)
    Blend: AUG-CC-PVTZ-JKFIT
	 Reference Energy          =    -493.1077727940707973 [Eh]
	 Singles Energy            =      -0.0000000000000000 [Eh]
	 Same-Spin Energy          =      -0.4837643204382542 [Eh]
	 Opposite-Spin Energy      =      -1.4760160128464295 [Eh]
	 Correlation Energy        =      -1.9597803332846837 [Eh]
	 Total Energy              =    -495.0675531273554952 [Eh]

	 ================> DF-SCS-MP2 Energies <==================
	-----------------------------------------------------------
	 SCS Same-Spin Scale       =       0.3333333333333333 [-]
	 SCS Opposite-Spin Scale   =       1.2000000000000000 [-]
	 SCS Same-Spin Energy      =      -0.1612547734794181 [Eh]
	 SCS Opposite-Spin Energy  =      -1.7712192154157154 [Eh]
	 SCS Correlation Energy    =      -1.9324739888951334 [Eh]
	 SCS Total Energy          =    -495.0402467829659372 [Eh]
	-----------------------------------------------------------

  Dipole Moment: [D]
     X:    11.3433      Y:    -0.7070      Z:    -0.0729     Total:    11.3655

*** Psi4 exiting successfully. Buy a developer a beer!
