                               Psi4 1.4a3.dev225

  ==> Input File <==

--------------------------------------------------------------------------
#psi4
#
memory 32 gb

molecule  {
-1 1
  O        1.8724200    -0.7415990     0.3394840
  O        2.1027790     1.3758310    -0.4300950
  O       -3.3072830    -0.3512340    -0.9359590
  O       -2.5979240    -0.0254400     1.2183870
  C       -0.0530340     0.6334400     0.4456770
  C       -0.9697120    -0.0967620    -0.5425230
  C        1.3605901     0.4822803     0.0960770
  C       -2.4534200    -0.1528480    -0.0313600
  C        3.2289120    -0.9370400    -0.0704660
  H       -0.2424870     0.2042160     1.4320630
  H       -0.3042490     1.6964080     0.4822290
  H       -0.9505240     0.3810480    -1.5282220
  H       -0.6173950    -1.1275390    -0.6764200
  H        3.4625260    -1.9695390     0.1897820
  H        3.8993660    -0.2498350     0.4514950
  H        3.3382080    -0.7798600    -1.1461020
units angstrom
no_reorient  #important for SAPT in psi4, default
symmetry c1  #important for SAPT in psi4, default
}

set PROPERTIES_ORIGIN ["COM"]
properties('MP2/aug-cc-pvtz', properties = ['dipole'])
--------------------------------------------------------------------------

    Molecular point group: c1
  Charge       = -1
  Multiplicity = 1
  Basis Set: AUG-CC-PVTZ
    Blend: AUG-CC-PVTZ
  Basis Set: (AUG-CC-PVTZ AUX)
    Blend: AUG-CC-PVTZ-JKFIT

    Orbital Energies [Eh]
    ---------------------

    Doubly Occupied:

       1A    -20.503389     2A    -20.424621     3A    -20.310384
       4A    -20.307809     5A    -11.269986     6A    -11.194482
       7A    -11.156173     8A    -11.101218     9A    -11.082105
      10A     -1.345739    11A     -1.211637    12A     -1.178807
      13A     -1.082618    14A     -0.944384    15A     -0.864009
      16A     -0.762125    17A     -0.666487    18A     -0.578240
      19A     -0.565646    20A     -0.561333    21A     -0.532364
      22A     -0.483106    23A     -0.471893    24A     -0.450017
      25A     -0.428865    26A     -0.416393    27A     -0.410049
      28A     -0.390567    29A     -0.362241    30A     -0.344153
      31A     -0.335431    32A     -0.326580    33A     -0.227176
      34A     -0.210871    35A     -0.209444

  @DF-RHF Final Energy:  -493.10133957706108

   => Energetics <=

    Nuclear Repulsion Energy =            435.1682740710595567
    One-Electron Energy =               -1551.1185407017965190
    Two-Electron Energy =                 622.8489270536757658
    Total Energy =                       -493.1013395770611396
  Basis Set: (AUG-CC-PVTZ AUX)
    Blend: AUG-CC-PVTZ-RI
    Molecular point group: c1

    Geometry (in Angstrom), charge = -1, multiplicity = 1:

       Center              X                  Y                   Z               Mass
    ------------   -----------------  -----------------  -----------------  -----------------
         O            1.940017907976    -0.752351309946     0.331581044736    15.994914619570
         O            2.170376907976     1.365078690054    -0.437997955264    15.994914619570
         O           -3.239685092024    -0.361986309946    -0.943861955264    15.994914619570
         O           -2.530326092024    -0.036192309946     1.210484044736    15.994914619570
         C            0.014563907976     0.622687690054     0.437774044736    12.000000000000
         C           -0.902114092024    -0.107514309946    -0.550425955264    12.000000000000
         C            1.428188007976     0.471527990054     0.088174044736    12.000000000000
         C           -2.385822092024    -0.163600309946    -0.039262955264    12.000000000000
         C            3.296509907976    -0.947792309946    -0.078368955264    12.000000000000
         H           -0.174889092024     0.193463690054     1.424160044736     1.007825032230
         H           -0.236651092024     1.685655690054     0.474326044736     1.007825032230
         H           -0.882926092024     0.370295690054    -1.536124955264     1.007825032230
         H           -0.549797092024    -1.138291309946    -0.684322955264     1.007825032230
         H            3.530123907976    -1.980291309946     0.181879044736     1.007825032230
         H            3.966963907976    -0.260587309946     0.443592044736     1.007825032230
         H            3.405805907976    -0.790612309946    -1.154004955264     1.007825032230

  Basis Set: AUG-CC-PVTZ
    Blend: AUG-CC-PVTZ
  Basis Set: (AUG-CC-PVTZ AUX)
    Blend: AUG-CC-PVTZ-JKFIT
	 Reference Energy          =    -493.1013395770610828 [Eh]
	 Singles Energy            =      -0.0000000000000000 [Eh]
	 Same-Spin Energy          =      -0.4847882606708195 [Eh]
	 Opposite-Spin Energy      =      -1.4777320864188255 [Eh]
	 Correlation Energy        =      -1.9625203470896451 [Eh]
	 Total Energy              =    -495.0638599241507336 [Eh]

	 ================> DF-SCS-MP2 Energies <==================
	-----------------------------------------------------------
	 SCS Same-Spin Scale       =       0.3333333333333333 [-]
	 SCS Opposite-Spin Scale   =       1.2000000000000000 [-]
	 SCS Same-Spin Energy      =      -0.1615960868902732 [Eh]
	 SCS Opposite-Spin Energy  =      -1.7732785037025904 [Eh]
	 SCS Correlation Energy    =      -1.9348745905928635 [Eh]
	 SCS Total Energy          =    -495.0362141676539522 [Eh]
	-----------------------------------------------------------

  Dipole Moment: [D]
     X:    11.1832      Y:    -1.0483      Z:     0.0341     Total:    11.2323

*** Psi4 exiting successfully. Buy a developer a beer!
