                               Psi4 1.4a3.dev225

  ==> Input File <==

--------------------------------------------------------------------------
#psi4
#
memory 32 gb

molecule  {
-1 1
  O        1.8724200    -0.7415990     0.3394840
  O        2.1027790     1.3758310    -0.4300950
  O       -3.3072830    -0.3512340    -0.9359590
  O       -2.5979240    -0.0254400     1.2183870
  C       -0.0530340     0.6334400     0.4456770
  C       -0.9697120    -0.0967620    -0.5425230
  C        1.3314892     0.4472446     0.1167079
  C       -2.4534200    -0.1528480    -0.0313600
  C        3.2289120    -0.9370400    -0.0704660
  H       -0.2424870     0.2042160     1.4320630
  H       -0.3042490     1.6964080     0.4822290
  H       -0.9505240     0.3810480    -1.5282220
  H       -0.6173950    -1.1275390    -0.6764200
  H        3.4625260    -1.9695390     0.1897820
  H        3.8993660    -0.2498350     0.4514950
  H        3.3382080    -0.7798600    -1.1461020
units angstrom
no_reorient  #important for SAPT in psi4, default
symmetry c1  #important for SAPT in psi4, default
}

set PROPERTIES_ORIGIN ["COM"]
properties('MP2/aug-cc-pvtz', properties = ['dipole'])
--------------------------------------------------------------------------

    Molecular point group: c1
  Charge       = -1
  Multiplicity = 1
  Basis Set: AUG-CC-PVTZ
    Blend: AUG-CC-PVTZ
  Basis Set: (AUG-CC-PVTZ AUX)
    Blend: AUG-CC-PVTZ-JKFIT

    Orbital Energies [Eh]
    ---------------------

    Doubly Occupied:

       1A    -20.510019     2A    -20.414133     3A    -20.311824
       4A    -20.309221     5A    -11.272845     6A    -11.197872
       7A    -11.157729     8A    -11.101664     9A    -11.084755
      10A     -1.353818    11A     -1.181708    12A     -1.180016
      13A     -1.084035    14A     -0.953422    15A     -0.870862
      16A     -0.767561    17A     -0.671159    18A     -0.582207
      19A     -0.570004    20A     -0.556278    21A     -0.533863
      22A     -0.481332    23A     -0.476242    24A     -0.450410
      25A     -0.427391    26A     -0.415313    27A     -0.407257
      28A     -0.392547    29A     -0.364637    30A     -0.338777
      31A     -0.325713    32A     -0.321621    33A     -0.228522
      34A     -0.212467    35A     -0.210791

  @DF-RHF Final Energy:  -493.08765944836244

   => Energetics <=

    Nuclear Repulsion Energy =            435.2700898659755921
    One-Electron Energy =               -1551.2794655961386070
    Two-Electron Energy =                 622.9217162818003999
    Total Energy =                       -493.0876594483625013
  Basis Set: (AUG-CC-PVTZ AUX)
    Blend: AUG-CC-PVTZ-RI
    Molecular point group: c1

    Geometry (in Angstrom), charge = -1, multiplicity = 1:

       Center              X                  Y                   Z               Mass
    ------------   -----------------  -----------------  -----------------  -----------------
         O            1.942682938764    -0.749142776219     0.329691687924    15.994914619570
         O            2.173041938764     1.368287223781    -0.439887312076    15.994914619570
         O           -3.237020061236    -0.358777776219    -0.945751312076    15.994914619570
         O           -2.527661061236    -0.032983776219     1.208594687924    15.994914619570
         C            0.017228938764     0.625896223781     0.435884687924    12.000000000000
         C           -0.899449061236    -0.104305776219    -0.552315312076    12.000000000000
         C            1.401752138764     0.439700823781     0.106915587924    12.000000000000
         C           -2.383157061236    -0.160391776219    -0.041152312076    12.000000000000
         C            3.299174938764    -0.944583776219    -0.080258312076    12.000000000000
         H           -0.172224061236     0.196672223781     1.422270687924     1.007825032230
         H           -0.233986061236     1.688864223781     0.472436687924     1.007825032230
         H           -0.880261061236     0.373504223781    -1.538014312076     1.007825032230
         H           -0.547132061236    -1.135082776219    -0.686212312076     1.007825032230
         H            3.532788938764    -1.977082776219     0.179989687924     1.007825032230
         H            3.969628938764    -0.257378776219     0.441702687924     1.007825032230
         H            3.408470938764    -0.787403776219    -1.155894312076     1.007825032230

  Basis Set: AUG-CC-PVTZ
    Blend: AUG-CC-PVTZ
  Basis Set: (AUG-CC-PVTZ AUX)
    Blend: AUG-CC-PVTZ-JKFIT
	 Reference Energy          =    -493.0876594483624444 [Eh]
	 Singles Energy            =      -0.0000000000000000 [Eh]
	 Same-Spin Energy          =      -0.4859168860567547 [Eh]
	 Opposite-Spin Energy      =      -1.4796351041858844 [Eh]
	 Correlation Energy        =      -1.9655519902426390 [Eh]
	 Total Energy              =    -495.0532114386051035 [Eh]

	 ================> DF-SCS-MP2 Energies <==================
	-----------------------------------------------------------
	 SCS Same-Spin Scale       =       0.3333333333333333 [-]
	 SCS Opposite-Spin Scale   =       1.2000000000000000 [-]
	 SCS Same-Spin Energy      =      -0.1619722953522515 [Eh]
	 SCS Opposite-Spin Energy  =      -1.7755621250230613 [Eh]
	 SCS Correlation Energy    =      -1.9375344203753129 [Eh]
	 SCS Total Energy          =    -495.0251938687377447 [Eh]
	-----------------------------------------------------------

  Dipole Moment: [D]
     X:    11.0167      Y:    -1.3540      Z:     0.1482     Total:    11.1006

*** Psi4 exiting successfully. Buy a developer a beer!
