                               Psi4 1.4a3.dev225

  ==> Input File <==

--------------------------------------------------------------------------
#psi4
#
memory 32 gb

molecule  {
-1 1
  O        1.8724200    -0.7415990     0.3394840
  O        2.1027790     1.3758310    -0.4300950
  O       -3.3072830    -0.3512340    -0.9359590
  O       -2.5979240    -0.0254400     1.2183870
  C       -0.0530340     0.6334400     0.4456770
  C       -0.9697120    -0.0967620    -0.5425230
  C        1.3896910     0.5173160     0.0754460
  C       -2.4534200    -0.1528480    -0.0313600
  C        3.2289120    -0.9370400    -0.0704660
  H       -0.2424870     0.2042160     1.4320630
  H       -0.3042490     1.6964080     0.4822290
  H       -0.9505240     0.3810480    -1.5282220
  H       -0.6013444    -1.1744982    -0.6825200
  H        3.4625260    -1.9695390     0.1897820
  H        3.8993660    -0.2498350     0.4514950
  H        3.3382080    -0.7798600    -1.1461020
units angstrom
no_reorient  #important for SAPT in psi4, default
symmetry c1  #important for SAPT in psi4, default
}

set PROPERTIES_ORIGIN ["COM"]
properties('MP2/aug-cc-pvtz', properties = ['dipole'])
--------------------------------------------------------------------------

    Molecular point group: c1
  Charge       = -1
  Multiplicity = 1
  Basis Set: AUG-CC-PVTZ
    Blend: AUG-CC-PVTZ
  Basis Set: (AUG-CC-PVTZ AUX)
    Blend: AUG-CC-PVTZ-JKFIT

    Orbital Energies [Eh]
    ---------------------

    Doubly Occupied:

       1A    -20.496023     2A    -20.434872     3A    -20.309288
       4A    -20.306655     5A    -11.266585     6A    -11.190886
       7A    -11.155174     8A    -11.101428     9A    -11.085739
      10A     -1.342258    11A     -1.239805    12A     -1.177653
      13A     -1.081499    14A     -0.934835    15A     -0.856632
      16A     -0.753933    17A     -0.661809    18A     -0.576712
      19A     -0.568684    20A     -0.560515    21A     -0.529722
      22A     -0.487250    23A     -0.463648    24A     -0.452124
      25A     -0.430897    26A     -0.419083    27A     -0.411496
      28A     -0.385096    29A     -0.360864    30A     -0.353475
      31A     -0.337238    32A     -0.325185    33A     -0.226083
      34A     -0.209696    35A     -0.208306

  @DF-RHF Final Energy:  -493.10629350146195

   => Energetics <=

    Nuclear Repulsion Energy =            434.8931009301642803
    One-Electron Energy =               -1550.5964870193261049
    Two-Electron Energy =                 622.5970925876998763
    Total Energy =                       -493.1062935014618915
  Basis Set: (AUG-CC-PVTZ AUX)
    Blend: AUG-CC-PVTZ-RI
    Molecular point group: c1

    Geometry (in Angstrom), charge = -1, multiplicity = 1:

       Center              X                  Y                   Z               Mass
    ------------   -----------------  -----------------  -----------------  -----------------
         O            1.937229427223    -0.755198666417     0.333517327632    15.994914619570
         O            2.167588427223     1.362231333583    -0.436061672368    15.994914619570
         O           -3.242473572777    -0.364833666417    -0.941925672368    15.994914619570
         O           -2.533114572777    -0.039039666417     1.212420327632    15.994914619570
         C            0.011775427223     0.619840333583     0.439710327632    12.000000000000
         C           -0.904902572777    -0.110361666417    -0.548489672368    12.000000000000
         C            1.454500427223     0.503716333583     0.069479327632    12.000000000000
         C           -2.388610572777    -0.166447666417    -0.037326672368    12.000000000000
         C            3.293721427223    -0.950639666417    -0.076432672368    12.000000000000
         H           -0.177677572777     0.190616333583     1.426096327632     1.007825032230
         H           -0.239439572777     1.682808333583     0.476262327632     1.007825032230
         H           -0.885714572777     0.367448333583    -1.534188672368     1.007825032230
         H           -0.536534972777    -1.188097866417    -0.688486672368     1.007825032230
         H            3.527335427223    -1.983138666417     0.183815327632     1.007825032230
         H            3.964175427223    -0.263434666417     0.445528327632     1.007825032230
         H            3.403017427223    -0.793459666417    -1.152068672368     1.007825032230

  Basis Set: AUG-CC-PVTZ
    Blend: AUG-CC-PVTZ
  Basis Set: (AUG-CC-PVTZ AUX)
    Blend: AUG-CC-PVTZ-JKFIT
	 Reference Energy          =    -493.1062935014619484 [Eh]
	 Singles Energy            =      -0.0000000000000000 [Eh]
	 Same-Spin Energy          =      -0.4837718175247867 [Eh]
	 Opposite-Spin Energy      =      -1.4763273741218099 [Eh]
	 Correlation Energy        =      -1.9600991916465966 [Eh]
	 Total Energy              =    -495.0663926931085257 [Eh]

	 ================> DF-SCS-MP2 Energies <==================
	-----------------------------------------------------------
	 SCS Same-Spin Scale       =       0.3333333333333333 [-]
	 SCS Opposite-Spin Scale   =       1.2000000000000000 [-]
	 SCS Same-Spin Energy      =      -0.1612572725082622 [Eh]
	 SCS Opposite-Spin Energy  =      -1.7715928489461719 [Eh]
	 SCS Correlation Energy    =      -1.9328501214544340 [Eh]
	 SCS Total Energy          =    -495.0391436229163560 [Eh]
	-----------------------------------------------------------

  Dipole Moment: [D]
     X:    11.3302      Y:    -0.7008      Z:    -0.0725     Total:    11.3521

*** Psi4 exiting successfully. Buy a developer a beer!
