                               Psi4 1.4a3.dev225

  ==> Input File <==

--------------------------------------------------------------------------
#psi4
#
memory 32 gb

molecule  {
-1 1
  O        1.8724200    -0.7415990     0.3394840
  O        2.1027790     1.3758310    -0.4300950
  O       -3.2064423    -0.3543707    -1.0208469
  O       -2.5979240    -0.0254400     1.2183870
  C       -0.0530340     0.6334400     0.4456770
  C       -0.9697120    -0.0967620    -0.5425230
  C        1.3896910     0.5173160     0.0754460
  C       -2.4534200    -0.1528480    -0.0313600
  C        3.2289120    -0.9370400    -0.0704660
  H       -0.2424870     0.2042160     1.4320630
  H       -0.3042490     1.6964080     0.4822290
  H       -0.9505240     0.3810480    -1.5282220
  H       -0.6173950    -1.1275390    -0.6764200
  H        3.4625260    -1.9695390     0.1897820
  H        3.8993660    -0.2498350     0.4514950
  H        3.3382080    -0.7798600    -1.1461020
units angstrom
no_reorient  #important for SAPT in psi4, default
symmetry c1  #important for SAPT in psi4, default
}

set PROPERTIES_ORIGIN ["COM"]
properties('MP2/aug-cc-pvtz', properties = ['dipole'])
--------------------------------------------------------------------------

    Molecular point group: c1
  Charge       = -1
  Multiplicity = 1
  Basis Set: AUG-CC-PVTZ
    Blend: AUG-CC-PVTZ
  Basis Set: (AUG-CC-PVTZ AUX)
    Blend: AUG-CC-PVTZ-JKFIT

    Orbital Energies [Eh]
    ---------------------

    Doubly Occupied:

       1A    -20.493796     2A    -20.431907     3A    -20.316991
       4A    -20.310103     5A    -11.263476     6A    -11.189215
       7A    -11.158073     8A    -11.096688     9A    -11.071915
      10A     -1.339828    11A     -1.237181    12A     -1.179246
      13A     -1.091938    14A     -0.931577    15A     -0.854418
      16A     -0.751573    17A     -0.659618    18A     -0.574287
      19A     -0.566328    20A     -0.558447    21A     -0.531053
      22A     -0.485407    23A     -0.463982    24A     -0.451251
      25A     -0.429216    26A     -0.419295    27A     -0.413529
      28A     -0.386329    29A     -0.359348    30A     -0.351107
      31A     -0.335930    32A     -0.325609    33A     -0.235227
      34A     -0.215240    35A     -0.201810

  @DF-RHF Final Energy:  -493.10397001069867

   => Energetics <=

    Nuclear Repulsion Energy =            435.7611024612358506
    One-Electron Energy =               -1552.3682729934905637
    Two-Electron Energy =                 623.5032005215559820
    Total Energy =                       -493.1039700106987311
  Basis Set: (AUG-CC-PVTZ AUX)
    Blend: AUG-CC-PVTZ-RI
    Molecular point group: c1

    Geometry (in Angstrom), charge = -1, multiplicity = 1:

       Center              X                  Y                   Z               Mass
    ------------   -----------------  -----------------  -----------------  -----------------
         O            1.925043605946    -0.755176957685     0.343832379499    15.994914619570
         O            2.155402605946     1.362253042315    -0.425746620501    15.994914619570
         O           -3.153818694054    -0.367948657685    -1.016498520501    15.994914619570
         O           -2.545300394054    -0.039017957685     1.222735379499    15.994914619570
         C           -0.000410394054     0.619862042315     0.450025379499    12.000000000000
         C           -0.917088394054    -0.110339957685    -0.538174620501    12.000000000000
         C            1.442314605946     0.503738042315     0.079794379499    12.000000000000
         C           -2.400796394054    -0.166425957685    -0.027011620501    12.000000000000
         C            3.281535605946    -0.950617957685    -0.066117620501    12.000000000000
         H           -0.189863394054     0.190638042315     1.436411379499     1.007825032230
         H           -0.251625394054     1.682830042315     0.486577379499     1.007825032230
         H           -0.897900394054     0.367470042315    -1.523873620501     1.007825032230
         H           -0.564771394054    -1.141116957685    -0.672071620501     1.007825032230
         H            3.515149605946    -1.983116957685     0.194130379499     1.007825032230
         H            3.951989605946    -0.263412957685     0.455843379499     1.007825032230
         H            3.390831605946    -0.793437957685    -1.141753620501     1.007825032230

  Basis Set: AUG-CC-PVTZ
    Blend: AUG-CC-PVTZ
  Basis Set: (AUG-CC-PVTZ AUX)
    Blend: AUG-CC-PVTZ-JKFIT
	 Reference Energy          =    -493.1039700106986743 [Eh]
	 Singles Energy            =      -0.0000000000000000 [Eh]
	 Same-Spin Energy          =      -0.4841842087412006 [Eh]
	 Opposite-Spin Energy      =      -1.4766188468649200 [Eh]
	 Correlation Energy        =      -1.9608030556061204 [Eh]
	 Total Energy              =    -495.0647730663047810 [Eh]

	 ================> DF-SCS-MP2 Energies <==================
	-----------------------------------------------------------
	 SCS Same-Spin Scale       =       0.3333333333333333 [-]
	 SCS Opposite-Spin Scale   =       1.2000000000000000 [-]
	 SCS Same-Spin Energy      =      -0.1613947362470669 [Eh]
	 SCS Opposite-Spin Energy  =      -1.7719426162379039 [Eh]
	 SCS Correlation Energy    =      -1.9333373524849709 [Eh]
	 SCS Total Energy          =    -495.0373073631836291 [Eh]
	-----------------------------------------------------------

  Dipole Moment: [D]
     X:    10.9338      Y:    -0.7494      Z:     0.0869     Total:    10.9598

*** Psi4 exiting successfully. Buy a developer a beer!
