                               Psi4 1.4a3.dev225

  ==> Input File <==

--------------------------------------------------------------------------
#psi4
#
memory 32 gb

molecule  {
-1 1
  O        1.8724200    -0.7415990     0.3394840
  O        2.1027790     1.3758310    -0.4300950
  O       -3.3072830    -0.3512340    -0.9359590
  O       -2.5979240    -0.0254400     1.2183870
  C       -0.0530340     0.6334400     0.4456770
  C       -0.9697120    -0.0967620    -0.5425230
  C        1.3943612     0.5055642     0.0982490
  C       -2.4534200    -0.1528480    -0.0313600
  C        3.2289120    -0.9370400    -0.0704660
  H       -0.2424870     0.2042160     1.4320630
  H       -0.3042490     1.6964080     0.4822290
  H       -0.9505240     0.3810480    -1.5282220
  H       -0.6173950    -1.1275390    -0.6764200
  H        3.4625260    -1.9695390     0.1897820
  H        3.8993660    -0.2498350     0.4514950
  H        3.3382080    -0.7798600    -1.1461020
units angstrom
no_reorient  #important for SAPT in psi4, default
symmetry c1  #important for SAPT in psi4, default
}

set PROPERTIES_ORIGIN ["COM"]
properties('MP2/aug-cc-pvtz', properties = ['dipole'])
--------------------------------------------------------------------------

    Molecular point group: c1
  Charge       = -1
  Multiplicity = 1
  Basis Set: AUG-CC-PVTZ
    Blend: AUG-CC-PVTZ
  Basis Set: (AUG-CC-PVTZ AUX)
    Blend: AUG-CC-PVTZ-JKFIT

    Orbital Energies [Eh]
    ---------------------

    Doubly Occupied:

       1A    -20.500709     2A    -20.431018     3A    -20.308879
       4A    -20.306465     5A    -11.266941     6A    -11.193201
       7A    -11.154690     8A    -11.100503     9A    -11.079702
      10A     -1.346285    11A     -1.232472    12A     -1.177375
      13A     -1.081204    14A     -0.936000    15A     -0.860854
      16A     -0.756965    17A     -0.665403    18A     -0.577097
      19A     -0.567717    20A     -0.563520    21A     -0.530776
      22A     -0.485174    23A     -0.467451    24A     -0.451164
      25A     -0.431195    26A     -0.418668    27A     -0.410714
      28A     -0.387333    29A     -0.361248    30A     -0.350521
      31A     -0.336704    32A     -0.326802    33A     -0.225752
      34A     -0.209340    35A     -0.208084

  @DF-RHF Final Energy:  -493.10728545475581

   => Energetics <=

    Nuclear Repulsion Energy =            435.1005813834616447
    One-Electron Energy =               -1550.9998849855078333
    Two-Electron Energy =                 622.7920181472902641
    Total Energy =                       -493.1072854547558109
  Basis Set: (AUG-CC-PVTZ AUX)
    Blend: AUG-CC-PVTZ-RI
    Molecular point group: c1

    Geometry (in Angstrom), charge = -1, multiplicity = 1:

       Center              X                  Y                   Z               Mass
    ------------   -----------------  -----------------  -----------------  -----------------
         O            1.936925185029    -0.754483625797     0.331382135188    15.994914619570
         O            2.167284185029     1.362946374203    -0.438196864812    15.994914619570
         O           -3.242777814971    -0.364118625797    -0.944060864812    15.994914619570
         O           -2.533418814971    -0.038324625797     1.210285135188    15.994914619570
         C            0.011471185029     0.620555374203     0.437575135188    12.000000000000
         C           -0.905206814971    -0.109646625797    -0.550624864812    12.000000000000
         C            1.458866385029     0.492679574203     0.090147135188    12.000000000000
         C           -2.388914814971    -0.165732625797    -0.039461864812    12.000000000000
         C            3.293417185029    -0.949924625797    -0.078567864812    12.000000000000
         H           -0.177981814971     0.191331374203     1.423961135188     1.007825032230
         H           -0.239743814971     1.683523374203     0.474127135188     1.007825032230
         H           -0.886018814971     0.368163374203    -1.536323864812     1.007825032230
         H           -0.552889814971    -1.140423625797    -0.684521864812     1.007825032230
         H            3.527031185029    -1.982423625797     0.181680135188     1.007825032230
         H            3.963871185029    -0.262719625797     0.443393135188     1.007825032230
         H            3.402713185029    -0.792744625797    -1.154203864812     1.007825032230

  Basis Set: AUG-CC-PVTZ
    Blend: AUG-CC-PVTZ
  Basis Set: (AUG-CC-PVTZ AUX)
    Blend: AUG-CC-PVTZ-JKFIT
	 Reference Energy          =    -493.1072854547558109 [Eh]
	 Singles Energy            =      -0.0000000000000000 [Eh]
	 Same-Spin Energy          =      -0.4839050010441928 [Eh]
	 Opposite-Spin Energy      =      -1.4762379722890486 [Eh]
	 Correlation Energy        =      -1.9601429733332414 [Eh]
	 Total Energy              =    -495.0674284280890447 [Eh]

	 ================> DF-SCS-MP2 Energies <==================
	-----------------------------------------------------------
	 SCS Same-Spin Scale       =       0.3333333333333333 [-]
	 SCS Opposite-Spin Scale   =       1.2000000000000000 [-]
	 SCS Same-Spin Energy      =      -0.1613016670147309 [Eh]
	 SCS Opposite-Spin Energy  =      -1.7714855667468583 [Eh]
	 SCS Correlation Energy    =      -1.9327872337615892 [Eh]
	 SCS Total Energy          =    -495.0400726885173981 [Eh]
	-----------------------------------------------------------

  Dipole Moment: [D]
     X:    11.3832      Y:    -0.8746      Z:    -0.0245     Total:    11.4168

*** Psi4 exiting successfully. Buy a developer a beer!
