                               Psi4 1.4a3.dev225

  ==> Input File <==

--------------------------------------------------------------------------
#psi4
#
memory 32 gb

molecule  {
-1 1
  O        1.8724200    -0.7415990     0.3394840
  O        2.1027790     1.3758310    -0.4300950
  O       -3.3072830    -0.3512340    -0.9359590
  O       -2.5979240    -0.0254400     1.2183870
  C       -0.0530340     0.6334400     0.4456770
  C       -0.9441864    -0.1423693    -0.5310523
  C        1.3896910     0.5173160     0.0754460
  C       -2.4534200    -0.1528480    -0.0313600
  C        3.2289120    -0.9370400    -0.0704660
  H       -0.2424870     0.2042160     1.4320630
  H       -0.3042490     1.6964080     0.4822290
  H       -0.9505240     0.3810480    -1.5282220
  H       -0.6173950    -1.1275390    -0.6764200
  H        3.4625260    -1.9695390     0.1897820
  H        3.8993660    -0.2498350     0.4514950
  H        3.3382080    -0.7798600    -1.1461020
units angstrom
no_reorient  #important for SAPT in psi4, default
symmetry c1  #important for SAPT in psi4, default
}

set PROPERTIES_ORIGIN ["COM"]
properties('MP2/aug-cc-pvtz', properties = ['dipole'])
--------------------------------------------------------------------------

    Molecular point group: c1
  Charge       = -1
  Multiplicity = 1
  Basis Set: AUG-CC-PVTZ
    Blend: AUG-CC-PVTZ
  Basis Set: (AUG-CC-PVTZ AUX)
    Blend: AUG-CC-PVTZ-JKFIT

    Orbital Energies [Eh]
    ---------------------

    Doubly Occupied:

       1A    -20.495775     2A    -20.434107     3A    -20.309517
       4A    -20.307545     5A    -11.265678     6A    -11.190760
       7A    -11.156022     8A    -11.100950     9A    -11.078195
      10A     -1.341927    11A     -1.239273    12A     -1.177357
      13A     -1.081607    14A     -0.935649    15A     -0.856677
      16A     -0.756090    17A     -0.662044    18A     -0.576718
      19A     -0.568678    20A     -0.560650    21A     -0.528816
      22A     -0.487786    23A     -0.467851    24A     -0.451451
      25A     -0.430447    26A     -0.417468    27A     -0.411494
      28A     -0.392452    29A     -0.359732    30A     -0.349681
      31A     -0.339760    32A     -0.328682    33A     -0.226034
      34A     -0.208640    35A     -0.207215

  @DF-RHF Final Energy:  -493.10514405660996

   => Energetics <=

    Nuclear Repulsion Energy =            435.0756529892963158
    One-Electron Energy =               -1550.9561351326346994
    Two-Electron Energy =                 622.7753380867284250
    Total Energy =                       -493.1051440566100155
  Basis Set: (AUG-CC-PVTZ AUX)
    Blend: AUG-CC-PVTZ-RI
    Molecular point group: c1

    Geometry (in Angstrom), charge = -1, multiplicity = 1:

       Center              X                  Y                   Z               Mass
    ------------   -----------------  -----------------  -----------------  -----------------
         O            1.935015268735    -0.751383173584     0.332419935682    15.994914619570
         O            2.165374268735     1.366046826416    -0.437159064318    15.994914619570
         O           -3.244687731265    -0.361018173584    -0.943023064318    15.994914619570
         O           -2.535328731265    -0.035224173584     1.211322935682    15.994914619570
         C            0.009561268735     0.623655826416     0.438612935682    12.000000000000
         C           -0.881591131265    -0.152153473584    -0.538116364318    12.000000000000
         C            1.452286268735     0.507531826416     0.068381935682    12.000000000000
         C           -2.390824731265    -0.162632173584    -0.038424064318    12.000000000000
         C            3.291507268735    -0.946824173584    -0.077530064318    12.000000000000
         H           -0.179891731265     0.194431826416     1.424998935682     1.007825032230
         H           -0.241653731265     1.686623826416     0.475164935682     1.007825032230
         H           -0.887928731265     0.371263826416    -1.535286064318     1.007825032230
         H           -0.554799731265    -1.137323173584    -0.683484064318     1.007825032230
         H            3.525121268735    -1.979323173584     0.182717935682     1.007825032230
         H            3.961961268735    -0.259619173584     0.444430935682     1.007825032230
         H            3.400803268735    -0.789644173584    -1.153166064318     1.007825032230

  Basis Set: AUG-CC-PVTZ
    Blend: AUG-CC-PVTZ
  Basis Set: (AUG-CC-PVTZ AUX)
    Blend: AUG-CC-PVTZ-JKFIT
	 Reference Energy          =    -493.1051440566099586 [Eh]
	 Singles Energy            =      -0.0000000000000000 [Eh]
	 Same-Spin Energy          =      -0.4838365546491468 [Eh]
	 Opposite-Spin Energy      =      -1.4762120511567240 [Eh]
	 Correlation Energy        =      -1.9600486058058708 [Eh]
	 Total Energy              =    -495.0651926624158250 [Eh]

	 ================> DF-SCS-MP2 Energies <==================
	-----------------------------------------------------------
	 SCS Same-Spin Scale       =       0.3333333333333333 [-]
	 SCS Opposite-Spin Scale   =       1.2000000000000000 [-]
	 SCS Same-Spin Energy      =      -0.1612788515497156 [Eh]
	 SCS Opposite-Spin Energy  =      -1.7714544613880687 [Eh]
	 SCS Correlation Energy    =      -1.9327333129377844 [Eh]
	 SCS Total Energy          =    -495.0378773695477435 [Eh]
	-----------------------------------------------------------

  Dipole Moment: [D]
     X:    11.2891      Y:    -0.7922      Z:    -0.0455     Total:    11.3169

*** Psi4 exiting successfully. Buy a developer a beer!
