                               Psi4 1.4a3.dev225

  ==> Input File <==

--------------------------------------------------------------------------
#psi4
#
memory 32 gb

molecule  {
-1 1
  O        1.8724200    -0.7415990     0.3394840
  O        2.1027790     1.3758310    -0.4300950
  O       -3.3072830    -0.3512340    -0.9359590
  O       -2.5979240    -0.0254400     1.2183870
  C       -0.0530340     0.6334400     0.4456770
  C       -0.9697120    -0.0967620    -0.5425230
  C        1.3896910     0.5173160     0.0754460
  C       -2.4530999    -0.0432501    -0.0301564
  C        3.2289120    -0.9370400    -0.0704660
  H       -0.2424870     0.2042160     1.4320630
  H       -0.3042490     1.6964080     0.4822290
  H       -0.9505240     0.3810480    -1.5282220
  H       -0.6173950    -1.1275390    -0.6764200
  H        3.4625260    -1.9695390     0.1897820
  H        3.8993660    -0.2498350     0.4514950
  H        3.3382080    -0.7798600    -1.1461020
units angstrom
no_reorient  #important for SAPT in psi4, default
symmetry c1  #important for SAPT in psi4, default
}

set PROPERTIES_ORIGIN ["COM"]
properties('MP2/aug-cc-pvtz', properties = ['dipole'])
--------------------------------------------------------------------------

    Molecular point group: c1
  Charge       = -1
  Multiplicity = 1
  Basis Set: AUG-CC-PVTZ
    Blend: AUG-CC-PVTZ
  Basis Set: (AUG-CC-PVTZ AUX)
    Blend: AUG-CC-PVTZ-JKFIT

    Orbital Energies [Eh]
    ---------------------

    Doubly Occupied:

       1A    -20.496634     2A    -20.434787     3A    -20.313623
       4A    -20.303557     5A    -11.266526     6A    -11.191269
       7A    -11.156536     8A    -11.101012     9A    -11.081749
      10A     -1.342652    11A     -1.239973    12A     -1.175449
      13A     -1.074855    14A     -0.936362    15A     -0.857992
      16A     -0.756451    17A     -0.662364    18A     -0.577807
      19A     -0.569512    20A     -0.560937    21A     -0.531987
      22A     -0.488615    23A     -0.466855    24A     -0.452195
      25A     -0.431212    26A     -0.418393    27A     -0.408485
      28A     -0.385797    29A     -0.360896    30A     -0.353397
      31A     -0.338477    32A     -0.326442    33A     -0.225444
      34A     -0.208801    35A     -0.205338

  @DF-RHF Final Energy:  -493.10021145878136

   => Energetics <=

    Nuclear Repulsion Energy =            435.0112950948267212
    One-Electron Energy =               -1550.8182491354270951
    Two-Electron Energy =                 622.7067425818190713
    Total Energy =                       -493.1002114587813594
  Basis Set: (AUG-CC-PVTZ AUX)
    Blend: AUG-CC-PVTZ-RI
    Molecular point group: c1

    Geometry (in Angstrom), charge = -1, multiplicity = 1:

       Center              X                  Y                   Z               Mass
    ------------   -----------------  -----------------  -----------------  -----------------
         O            1.937323562757    -0.765596707747     0.333360186244    15.994914619570
         O            2.167682562757     1.351833292253    -0.436218813756    15.994914619570
         O           -3.242379437243    -0.375231707747    -0.942082813756    15.994914619570
         O           -2.533020437243    -0.049437707747     1.212263186244    15.994914619570
         C            0.011869562757     0.609442292253     0.439553186244    12.000000000000
         C           -0.904808437243    -0.120759707747    -0.548646813756    12.000000000000
         C            1.454594562757     0.493318292253     0.069322186244    12.000000000000
         C           -2.388196337243    -0.067247807747    -0.036280213756    12.000000000000
         C            3.293815562757    -0.961037707747    -0.076589813756    12.000000000000
         H           -0.177583437243     0.180218292253     1.425939186244     1.007825032230
         H           -0.239345437243     1.672410292253     0.476105186244     1.007825032230
         H           -0.885620437243     0.357050292253    -1.534345813756     1.007825032230
         H           -0.552491437243    -1.151536707747    -0.682543813756     1.007825032230
         H            3.527429562757    -1.993536707747     0.183658186244     1.007825032230
         H            3.964269562757    -0.273832707747     0.445371186244     1.007825032230
         H            3.403111562757    -0.803857707747    -1.152225813756     1.007825032230

  Basis Set: AUG-CC-PVTZ
    Blend: AUG-CC-PVTZ
  Basis Set: (AUG-CC-PVTZ AUX)
    Blend: AUG-CC-PVTZ-JKFIT
	 Reference Energy          =    -493.1002114587813594 [Eh]
	 Singles Energy            =      -0.0000000000000000 [Eh]
	 Same-Spin Energy          =      -0.4843912958103833 [Eh]
	 Opposite-Spin Energy      =      -1.4776318658344372 [Eh]
	 Correlation Energy        =      -1.9620231616448205 [Eh]
	 Total Energy              =    -495.0622346204261817 [Eh]

	 ================> DF-SCS-MP2 Energies <==================
	-----------------------------------------------------------
	 SCS Same-Spin Scale       =       0.3333333333333333 [-]
	 SCS Opposite-Spin Scale   =       1.2000000000000000 [-]
	 SCS Same-Spin Energy      =      -0.1614637652701278 [Eh]
	 SCS Opposite-Spin Energy  =      -1.7731582390013245 [Eh]
	 SCS Correlation Energy    =      -1.9346220042714524 [Eh]
	 SCS Total Energy          =    -495.0348334630527916 [Eh]
	-----------------------------------------------------------

  Dipole Moment: [D]
     X:    11.4186      Y:    -0.6589      Z:     0.0579     Total:    11.4378

*** Psi4 exiting successfully. Buy a developer a beer!
