                               Psi4 1.4a3.dev225

  ==> Input File <==

--------------------------------------------------------------------------
#psi4
#
memory 32 gb

molecule  {
-1 1
  O        1.8724200    -0.7415990     0.3394840
  O        2.1027790     1.3758310    -0.4300950
  O       -3.3072830    -0.3512340    -0.9359590
  O       -2.5979240    -0.0254400     1.2183870
  C       -0.0530340     0.6334400     0.4456770
  C       -0.9697120    -0.0967620    -0.5425230
  C        1.3896910     0.5173160     0.0754460
  C       -2.4534200    -0.1528480    -0.0313600
  C        3.2289120    -0.9370400    -0.0704660
  H       -0.2424870     0.2042160     1.4320630
  H       -0.3042490     1.6964080     0.4822290
  H       -0.9505240     0.3810480    -1.5282220
  H       -0.6109748    -1.1463227    -0.6788600
  H        3.4625260    -1.9695390     0.1897820
  H        3.8993660    -0.2498350     0.4514950
  H        3.3382080    -0.7798600    -1.1461020
units angstrom
no_reorient  #important for SAPT in psi4, default
symmetry c1  #important for SAPT in psi4, default
}

set PROPERTIES_ORIGIN ["COM"]
properties('MP2/aug-cc-pvtz', properties = ['dipole'])
--------------------------------------------------------------------------

    Molecular point group: c1
  Charge       = -1
  Multiplicity = 1
  Basis Set: AUG-CC-PVTZ
    Blend: AUG-CC-PVTZ
  Basis Set: (AUG-CC-PVTZ AUX)
    Blend: AUG-CC-PVTZ-JKFIT

    Orbital Energies [Eh]
    ---------------------

    Doubly Occupied:

       1A    -20.496124     2A    -20.434800     3A    -20.309102
       4A    -20.306529     5A    -11.266494     6A    -11.190947
       7A    -11.154863     8A    -11.101024     9A    -11.082075
      10A     -1.342296    11A     -1.239785    12A     -1.177505
      13A     -1.081344    14A     -0.935136    15A     -0.857012
      16A     -0.755512    17A     -0.662018    18A     -0.576796
      19A     -0.568754    20A     -0.560675    21A     -0.530109
      22A     -0.487582    23A     -0.465112    24A     -0.452146
      25A     -0.431084    26A     -0.419083    27A     -0.411401
      28A     -0.386134    29A     -0.360772    30A     -0.353216
      31A     -0.337662    32A     -0.326785    33A     -0.225936
      34A     -0.209428    35A     -0.208194

  @DF-RHF Final Energy:  -493.10791151899861

   => Energetics <=

    Nuclear Repulsion Energy =            435.0265245009861133
    One-Electron Energy =               -1550.8620008785608206
    Two-Electron Energy =                 622.7275648585761019
    Total Energy =                       -493.1079115189985487
  Basis Set: (AUG-CC-PVTZ AUX)
    Blend: AUG-CC-PVTZ-RI
    Molecular point group: c1

    Geometry (in Angstrom), charge = -1, multiplicity = 1:

       Center              X                  Y                   Z               Mass
    ------------   -----------------  -----------------  -----------------  -----------------
         O            1.937303497510    -0.755415372617     0.333489177477    15.994914619570
         O            2.167662497510     1.362014627383    -0.436089822523    15.994914619570
         O           -3.242399502490    -0.365050372617    -0.941953822523    15.994914619570
         O           -2.533040502490    -0.039256372617     1.212392177477    15.994914619570
         C            0.011849497510     0.619623627383     0.439682177477    12.000000000000
         C           -0.904828502490    -0.110578372617    -0.548517822523    12.000000000000
         C            1.454574497510     0.503499627383     0.069451177477    12.000000000000
         C           -2.388536502490    -0.166664372617    -0.037354822523    12.000000000000
         C            3.293795497510    -0.950856372617    -0.076460822523    12.000000000000
         H           -0.177603502490     0.190399627383     1.426068177477     1.007825032230
         H           -0.239365502490     1.682591627383     0.476234177477     1.007825032230
         H           -0.885640502490     0.367231627383    -1.534216822523     1.007825032230
         H           -0.546091302490    -1.160139072617    -0.684854822523     1.007825032230
         H            3.527409497510    -1.983355372617     0.183787177477     1.007825032230
         H            3.964249497510    -0.263651372617     0.445500177477     1.007825032230
         H            3.403091497510    -0.793676372617    -1.152096822523     1.007825032230

  Basis Set: AUG-CC-PVTZ
    Blend: AUG-CC-PVTZ
  Basis Set: (AUG-CC-PVTZ AUX)
    Blend: AUG-CC-PVTZ-JKFIT
	 Reference Energy          =    -493.1079115189986055 [Eh]
	 Singles Energy            =      -0.0000000000000000 [Eh]
	 Same-Spin Energy          =      -0.4837548025462410 [Eh]
	 Opposite-Spin Energy      =      -1.4761093261072291 [Eh]
	 Correlation Energy        =      -1.9598641286534701 [Eh]
	 Total Energy              =    -495.0677756476520699 [Eh]

	 ================> DF-SCS-MP2 Energies <==================
	-----------------------------------------------------------
	 SCS Same-Spin Scale       =       0.3333333333333333 [-]
	 SCS Opposite-Spin Scale   =       1.2000000000000000 [-]
	 SCS Same-Spin Energy      =      -0.1612516008487470 [Eh]
	 SCS Opposite-Spin Energy  =      -1.7713311913286749 [Eh]
	 SCS Correlation Energy    =      -1.9325827921774219 [Eh]
	 SCS Total Energy          =    -495.0404943111760190 [Eh]
	-----------------------------------------------------------

  Dipole Moment: [D]
     X:    11.3383      Y:    -0.7185      Z:    -0.0804     Total:    11.3613

*** Psi4 exiting successfully. Buy a developer a beer!
