                               Psi4 1.4a3.dev225

  ==> Input File <==

--------------------------------------------------------------------------
#psi4
#
memory 32 gb

molecule  {
-1 1
  O        1.8724200    -0.7415990     0.3394840
  O        2.1027790     1.3758310    -0.4300950
  O       -3.3072830    -0.3512340    -0.9359590
  O       -2.5979240    -0.0254400     1.2183870
  C       -0.0530340     0.6334400     0.4456770
  C       -0.9697120    -0.0967620    -0.5425230
  C        1.3896910     0.5173160     0.0754460
  C       -2.4511345    -0.1548631    -0.0511265
  C        3.2289120    -0.9370400    -0.0704660
  H       -0.2424870     0.2042160     1.4320630
  H       -0.3042490     1.6964080     0.4822290
  H       -0.9505240     0.3810480    -1.5282220
  H       -0.6173950    -1.1275390    -0.6764200
  H        3.4625260    -1.9695390     0.1897820
  H        3.8993660    -0.2498350     0.4514950
  H        3.3382080    -0.7798600    -1.1461020
units angstrom
no_reorient  #important for SAPT in psi4, default
symmetry c1  #important for SAPT in psi4, default
}

set PROPERTIES_ORIGIN ["COM"]
properties('MP2/aug-cc-pvtz', properties = ['dipole'])
--------------------------------------------------------------------------

    Molecular point group: c1
  Charge       = -1
  Multiplicity = 1
  Basis Set: AUG-CC-PVTZ
    Blend: AUG-CC-PVTZ
  Basis Set: (AUG-CC-PVTZ AUX)
    Blend: AUG-CC-PVTZ-JKFIT

    Orbital Energies [Eh]
    ---------------------

    Doubly Occupied:

       1A    -20.496387     2A    -20.435046     3A    -20.310206
       4A    -20.304214     5A    -11.266686     6A    -11.191120
       7A    -11.154547     8A    -11.100979     9A    -11.080541
      10A     -1.342532    11A     -1.240008    12A     -1.176888
      13A     -1.077205    14A     -0.935665    15A     -0.857739
      16A     -0.758646    17A     -0.662475    18A     -0.576874
      19A     -0.569154    20A     -0.561069    21A     -0.530786
      22A     -0.487992    23A     -0.466508    24A     -0.452124
      25A     -0.431414    26A     -0.418974    27A     -0.411304
      28A     -0.387190    29A     -0.360420    30A     -0.352426
      31A     -0.338075    32A     -0.326877    33A     -0.223726
      34A     -0.211019    35A     -0.206801

  @DF-RHF Final Energy:  -493.10754073347334

   => Energetics <=

    Nuclear Repulsion Energy =            435.0908021240282437
    One-Electron Energy =               -1550.9894400077355385
    Two-Electron Energy =                 622.7910971502340090
    Total Energy =                       -493.1075407334733427
  Basis Set: (AUG-CC-PVTZ AUX)
    Blend: AUG-CC-PVTZ-RI
    Molecular point group: c1

    Geometry (in Angstrom), charge = -1, multiplicity = 1:

       Center              X                  Y                   Z               Mass
    ------------   -----------------  -----------------  -----------------  -----------------
         O            1.937143573427    -0.755375302868     0.335280606648    15.994914619570
         O            2.167502573427     1.362054697132    -0.434298393352    15.994914619570
         O           -3.242559426573    -0.365010302868    -0.940162393352    15.994914619570
         O           -2.533200426573    -0.039216302868     1.214183606648    15.994914619570
         C            0.011689573427     0.619663697132     0.441473606648    12.000000000000
         C           -0.904988426573    -0.110538302868    -0.546726393352    12.000000000000
         C            1.454414573427     0.503539697132     0.071242606648    12.000000000000
         C           -2.386410926573    -0.168639402868    -0.055329893352    12.000000000000
         C            3.293635573427    -0.950816302868    -0.074669393352    12.000000000000
         H           -0.177763426573     0.190439697132     1.427859606648     1.007825032230
         H           -0.239525426573     1.682631697132     0.478025606648     1.007825032230
         H           -0.885800426573     0.367271697132    -1.532425393352     1.007825032230
         H           -0.552671426573    -1.141315302868    -0.680623393352     1.007825032230
         H            3.527249573427    -1.983315302868     0.185578606648     1.007825032230
         H            3.964089573427    -0.263611302868     0.447291606648     1.007825032230
         H            3.402931573427    -0.793636302868    -1.150305393352     1.007825032230

  Basis Set: AUG-CC-PVTZ
    Blend: AUG-CC-PVTZ
  Basis Set: (AUG-CC-PVTZ AUX)
    Blend: AUG-CC-PVTZ-JKFIT
	 Reference Energy          =    -493.1075407334733427 [Eh]
	 Singles Energy            =      -0.0000000000000000 [Eh]
	 Same-Spin Energy          =      -0.4838263524163297 [Eh]
	 Opposite-Spin Energy      =      -1.4762377093514136 [Eh]
	 Correlation Energy        =      -1.9600640617677434 [Eh]
	 Total Energy              =    -495.0676047952410954 [Eh]

	 ================> DF-SCS-MP2 Energies <==================
	-----------------------------------------------------------
	 SCS Same-Spin Scale       =       0.3333333333333333 [-]
	 SCS Opposite-Spin Scale   =       1.2000000000000000 [-]
	 SCS Same-Spin Energy      =      -0.1612754508054432 [Eh]
	 SCS Opposite-Spin Energy  =      -1.7714852512216963 [Eh]
	 SCS Correlation Energy    =      -1.9327607020271396 [Eh]
	 SCS Total Energy          =    -495.0403014355005098 [Eh]
	-----------------------------------------------------------

  Dipole Moment: [D]
     X:    11.3462      Y:    -0.7508      Z:    -0.2766     Total:    11.3744

*** Psi4 exiting successfully. Buy a developer a beer!
