                               Psi4 1.4a3.dev225

  ==> Input File <==

--------------------------------------------------------------------------
#psi4
#
memory 32 gb

molecule  {
-1 1
  O        1.8724200    -0.7415990     0.3394840
  O        2.1027790     1.3758310    -0.4300950
  O       -3.3072830    -0.3512340    -0.9359590
  O       -2.5979240    -0.0254400     1.2183870
  C       -0.0530340     0.6334400     0.4456770
  C       -0.9697120    -0.0967620    -0.5425230
  C        1.3896910     0.5173160     0.0754460
  C       -2.4648477    -0.1427723     0.0674726
  C        3.2289120    -0.9370400    -0.0704660
  H       -0.2424870     0.2042160     1.4320630
  H       -0.3042490     1.6964080     0.4822290
  H       -0.9505240     0.3810480    -1.5282220
  H       -0.6173950    -1.1275390    -0.6764200
  H        3.4625260    -1.9695390     0.1897820
  H        3.8993660    -0.2498350     0.4514950
  H        3.3382080    -0.7798600    -1.1461020
units angstrom
no_reorient  #important for SAPT in psi4, default
symmetry c1  #important for SAPT in psi4, default
}

set PROPERTIES_ORIGIN ["COM"]
properties('MP2/aug-cc-pvtz', properties = ['dipole'])
--------------------------------------------------------------------------

    Molecular point group: c1
  Charge       = -1
  Multiplicity = 1
  Basis Set: AUG-CC-PVTZ
    Blend: AUG-CC-PVTZ
  Basis Set: (AUG-CC-PVTZ AUX)
    Blend: AUG-CC-PVTZ-JKFIT

    Orbital Energies [Eh]
    ---------------------

    Doubly Occupied:

       1A    -20.494945     2A    -20.432995     3A    -20.333687
       4A    -20.288278     5A    -11.264907     6A    -11.190129
       7A    -11.153688     8A    -11.099643     9A    -11.074136
      10A     -1.341001    11A     -1.238327    12A     -1.228022
      13A     -1.063465    14A     -0.933449    15A     -0.854989
      16A     -0.746925    17A     -0.660398    18A     -0.576812
      19A     -0.567020    20A     -0.559364    21A     -0.533623
      22A     -0.491255    23A     -0.465818    24A     -0.453284
      25A     -0.435485    26A     -0.421837    27A     -0.412359
      28A     -0.392958    29A     -0.364315    30A     -0.354423
      31A     -0.343269    32A     -0.332339    33A     -0.230156
      34A     -0.205704    35A     -0.191147

  @DF-RHF Final Energy:  -493.09411263484128

   => Energetics <=

    Nuclear Repulsion Energy =            435.4110926777757413
    One-Electron Energy =               -1551.5501066744229774
    Two-Electron Energy =                 623.0449013618059553
    Total Energy =                       -493.0941126348412809
  Basis Set: (AUG-CC-PVTZ AUX)
    Blend: AUG-CC-PVTZ-RI
    Molecular point group: c1

    Geometry (in Angstrom), charge = -1, multiplicity = 1:

       Center              X                  Y                   Z               Mass
    ------------   -----------------  -----------------  -----------------  -----------------
         O            1.938399414318    -0.756482566019     0.324419421845    15.994914619570
         O            2.168758414318     1.360947433981    -0.445159578155    15.994914619570
         O           -3.241303585682    -0.366117566019    -0.951023578155    15.994914619570
         O           -2.531944585682    -0.040323566019     1.203322421845    15.994914619570
         C            0.012945414318     0.618556433981     0.430612421845    12.000000000000
         C           -0.903732585682    -0.111645566019    -0.557587578155    12.000000000000
         C            1.455670414318     0.502432433981     0.060381421845    12.000000000000
         C           -2.398868285682    -0.157655866019     0.052408021845    12.000000000000
         C            3.294891414318    -0.951923566019    -0.085530578155    12.000000000000
         H           -0.176507585682     0.189332433981     1.416998421845     1.007825032230
         H           -0.238269585682     1.681524433981     0.467164421845     1.007825032230
         H           -0.884544585682     0.366164433981    -1.543286578155     1.007825032230
         H           -0.551415585682    -1.142422566019    -0.691484578155     1.007825032230
         H            3.528505414318    -1.984422566019     0.174717421845     1.007825032230
         H            3.965345414318    -0.264718566019     0.436430421845     1.007825032230
         H            3.404187414318    -0.794743566019    -1.161166578155     1.007825032230

  Basis Set: AUG-CC-PVTZ
    Blend: AUG-CC-PVTZ
  Basis Set: (AUG-CC-PVTZ AUX)
    Blend: AUG-CC-PVTZ-JKFIT
	 Reference Energy          =    -493.0941126348412809 [Eh]
	 Singles Energy            =      -0.0000000000000000 [Eh]
	 Same-Spin Energy          =      -0.4833510022571479 [Eh]
	 Opposite-Spin Energy      =      -1.4748044338517401 [Eh]
	 Correlation Energy        =      -1.9581554361088880 [Eh]
	 Total Energy              =    -495.0522680709501628 [Eh]

	 ================> DF-SCS-MP2 Energies <==================
	-----------------------------------------------------------
	 SCS Same-Spin Scale       =       0.3333333333333333 [-]
	 SCS Opposite-Spin Scale   =       1.2000000000000000 [-]
	 SCS Same-Spin Energy      =      -0.1611170007523826 [Eh]
	 SCS Opposite-Spin Energy  =      -1.7697653206220880 [Eh]
	 SCS Correlation Energy    =      -1.9308823213744706 [Eh]
	 SCS Total Energy          =    -495.0249949562157781 [Eh]
	-----------------------------------------------------------

  Dipole Moment: [D]
     X:    11.3217      Y:    -0.6205      Z:     0.9007     Total:    11.3744

*** Psi4 exiting successfully. Buy a developer a beer!
