                               Psi4 1.4a3.dev225

  ==> Input File <==

--------------------------------------------------------------------------
#psi4
#
memory 32 gb

molecule  {
-1 1
  O        1.8724200    -0.7415990     0.3394840
  O        2.1027790     1.3758310    -0.4300950
  O       -3.3072830    -0.3512340    -0.9359590
  O       -2.5979240    -0.0254400     1.2183870
  C       -0.0530340     0.6334400     0.4456770
  C       -0.9697120    -0.0967620    -0.5425230
  C        1.3896910     0.5173160     0.0754460
  C       -2.4534200    -0.1528480    -0.0313600
  C        3.2289120    -0.9370400    -0.0704660
  H       -0.2073172     0.1044163     1.3887643
  H       -0.3042490     1.6964080     0.4822290
  H       -0.9505240     0.3810480    -1.5282220
  H       -0.6173950    -1.1275390    -0.6764200
  H        3.4625260    -1.9695390     0.1897820
  H        3.8993660    -0.2498350     0.4514950
  H        3.3382080    -0.7798600    -1.1461020
units angstrom
no_reorient  #important for SAPT in psi4, default
symmetry c1  #important for SAPT in psi4, default
}

set PROPERTIES_ORIGIN ["COM"]
properties('MP2/aug-cc-pvtz', properties = ['dipole'])
--------------------------------------------------------------------------

    Molecular point group: c1
  Charge       = -1
  Multiplicity = 1
  Basis Set: AUG-CC-PVTZ
    Blend: AUG-CC-PVTZ
  Basis Set: (AUG-CC-PVTZ AUX)
    Blend: AUG-CC-PVTZ-JKFIT

    Orbital Energies [Eh]
    ---------------------

    Doubly Occupied:

       1A    -20.496163     2A    -20.434050     3A    -20.308927
       4A    -20.306480     5A    -11.265476     6A    -11.191054
       7A    -11.154648     8A    -11.101564     9A    -11.079684
      10A     -1.342229    11A     -1.239440    12A     -1.177399
      13A     -1.081201    14A     -0.936710    15A     -0.857384
      16A     -0.756422    17A     -0.661300    18A     -0.575558
      19A     -0.569098    20A     -0.560059    21A     -0.530185
      22A     -0.490870    23A     -0.467664    24A     -0.451860
      25A     -0.431217    26A     -0.419057    27A     -0.410463
      28A     -0.390731    29A     -0.360049    30A     -0.350626
      31A     -0.336509    32A     -0.328301    33A     -0.225840
      34A     -0.209228    35A     -0.208057

  @DF-RHF Final Energy:  -493.10731401835824

   => Energetics <=

    Nuclear Repulsion Energy =            435.2398752061401979
    One-Electron Energy =               -1551.2833689367762418
    Two-Electron Energy =                 622.9361797122778626
    Total Energy =                       -493.1073140183582382
  Basis Set: (AUG-CC-PVTZ AUX)
    Blend: AUG-CC-PVTZ-RI
    Molecular point group: c1

    Geometry (in Angstrom), charge = -1, multiplicity = 1:

       Center              X                  Y                   Z               Mass
    ------------   -----------------  -----------------  -----------------  -----------------
         O            1.937082375735    -0.754792254323     0.333803433962    15.994914619570
         O            2.167441375735     1.362637745677    -0.435775566038    15.994914619570
         O           -3.242620624265    -0.364427254323    -0.941639566038    15.994914619570
         O           -2.533261624265    -0.038633254323     1.212706433962    15.994914619570
         C            0.011628375735     0.620246745677     0.439996433962    12.000000000000
         C           -0.905049624265    -0.109955254323    -0.548203566038    12.000000000000
         C            1.454353375735     0.504122745677     0.069765433962    12.000000000000
         C           -2.388757624265    -0.166041254323    -0.037040566038    12.000000000000
         C            3.293574375735    -0.950233254323    -0.076146566038    12.000000000000
         H           -0.142654824265     0.091223045677     1.383083733962     1.007825032230
         H           -0.239586624265     1.683214745677     0.476548433962     1.007825032230
         H           -0.885861624265     0.367854745677    -1.533902566038     1.007825032230
         H           -0.552732624265    -1.140732254323    -0.682100566038     1.007825032230
         H            3.527188375735    -1.982732254323     0.184101433962     1.007825032230
         H            3.964028375735    -0.263028254323     0.445814433962     1.007825032230
         H            3.402870375735    -0.793053254323    -1.151782566038     1.007825032230

  Basis Set: AUG-CC-PVTZ
    Blend: AUG-CC-PVTZ
  Basis Set: (AUG-CC-PVTZ AUX)
    Blend: AUG-CC-PVTZ-JKFIT
	 Reference Energy          =    -493.1073140183582382 [Eh]
	 Singles Energy            =      -0.0000000000000000 [Eh]
	 Same-Spin Energy          =      -0.4838201099761762 [Eh]
	 Opposite-Spin Energy      =      -1.4760856739567114 [Eh]
	 Correlation Energy        =      -1.9599057839328877 [Eh]
	 Total Energy              =    -495.0672198022911061 [Eh]

	 ================> DF-SCS-MP2 Energies <==================
	-----------------------------------------------------------
	 SCS Same-Spin Scale       =       0.3333333333333333 [-]
	 SCS Opposite-Spin Scale   =       1.2000000000000000 [-]
	 SCS Same-Spin Energy      =      -0.1612733699920587 [Eh]
	 SCS Opposite-Spin Energy  =      -1.7713028087480536 [Eh]
	 SCS Correlation Energy    =      -1.9325761787401123 [Eh]
	 SCS Total Energy          =    -495.0398901970983729 [Eh]
	-----------------------------------------------------------

  Dipole Moment: [D]
     X:    11.3420      Y:    -0.7584      Z:    -0.1071     Total:    11.3679

*** Psi4 exiting successfully. Buy a developer a beer!
