                               Psi4 1.4a3.dev225

  ==> Input File <==

--------------------------------------------------------------------------
#psi4
#
memory 32 gb

molecule  {
-1 1
  O        1.8724200    -0.7415990     0.3394840
  O        2.1027790     1.3758310    -0.4300950
  O       -3.3072830    -0.3512340    -0.9359590
  O       -2.5979240    -0.0254400     1.2183870
  C       -0.0952272     0.6411548     0.4776671
  C       -0.9697120    -0.0967620    -0.5425230
  C        1.3896910     0.5173160     0.0754460
  C       -2.4534200    -0.1528480    -0.0313600
  C        3.2289120    -0.9370400    -0.0704660
  H       -0.2424870     0.2042160     1.4320630
  H       -0.3042490     1.6964080     0.4822290
  H       -0.9505240     0.3810480    -1.5282220
  H       -0.6173950    -1.1275390    -0.6764200
  H        3.4625260    -1.9695390     0.1897820
  H        3.8993660    -0.2498350     0.4514950
  H        3.3382080    -0.7798600    -1.1461020
units angstrom
no_reorient  #important for SAPT in psi4, default
symmetry c1  #important for SAPT in psi4, default
}

set PROPERTIES_ORIGIN ["COM"]
properties('MP2/aug-cc-pvtz', properties = ['dipole'])
--------------------------------------------------------------------------

    Molecular point group: c1
  Charge       = -1
  Multiplicity = 1
  Basis Set: AUG-CC-PVTZ
    Blend: AUG-CC-PVTZ
  Basis Set: (AUG-CC-PVTZ AUX)
    Blend: AUG-CC-PVTZ-JKFIT

    Orbital Energies [Eh]
    ---------------------

    Doubly Occupied:

       1A    -20.496019     2A    -20.434773     3A    -20.308474
       4A    -20.305509     5A    -11.266459     6A    -11.190741
       7A    -11.153413     8A    -11.101200     9A    -11.078529
      10A     -1.341151    11A     -1.239073    12A     -1.176939
      13A     -1.080760    14A     -0.930185    15A     -0.857522
      16A     -0.752080    17A     -0.663029    18A     -0.575853
      19A     -0.567577    20A     -0.560057    21A     -0.529289
      22A     -0.491647    23A     -0.465096    24A     -0.450239
      25A     -0.430802    26A     -0.416414    27A     -0.411918
      28A     -0.391367    29A     -0.362935    30A     -0.356155
      31A     -0.334379    32A     -0.327405    33A     -0.225343
      34A     -0.207915    35A     -0.207155

  @DF-RHF Final Energy:  -493.10651332472713

   => Energetics <=

    Nuclear Repulsion Energy =            434.6567769025543271
    One-Electron Energy =               -1550.1517749693341557
    Two-Electron Energy =                 622.3884847420526967
    Total Energy =                       -493.1065133247270751
  Basis Set: (AUG-CC-PVTZ AUX)
    Blend: AUG-CC-PVTZ-RI
    Molecular point group: c1

    Geometry (in Angstrom), charge = -1, multiplicity = 1:

       Center              X                  Y                   Z               Mass
    ------------   -----------------  -----------------  -----------------  -----------------
         O            1.941216887478    -0.756266357201     0.330540789926    15.994914619570
         O            2.171575887478     1.361163642799    -0.439038210074    15.994914619570
         O           -3.238486112522    -0.365901357201    -0.944902210074    15.994914619570
         O           -2.529127112522    -0.040107357201     1.209443789926    15.994914619570
         C           -0.026430312522     0.626487442799     0.468723889926    12.000000000000
         C           -0.900915112522    -0.111429357201    -0.551466210074    12.000000000000
         C            1.458487887478     0.502648642799     0.066502789926    12.000000000000
         C           -2.384623112522    -0.167515357201    -0.040303210074    12.000000000000
         C            3.297708887478    -0.951707357201    -0.079409210074    12.000000000000
         H           -0.173690112522     0.189548642799     1.423119789926     1.007825032230
         H           -0.235452112522     1.681740642799     0.473285789926     1.007825032230
         H           -0.881727112522     0.366380642799    -1.537165210074     1.007825032230
         H           -0.548598112522    -1.142206357201    -0.685363210074     1.007825032230
         H            3.531322887478    -1.984206357201     0.180838789926     1.007825032230
         H            3.968162887478    -0.264502357201     0.442551789926     1.007825032230
         H            3.407004887478    -0.794527357201    -1.155045210074     1.007825032230

  Basis Set: AUG-CC-PVTZ
    Blend: AUG-CC-PVTZ
  Basis Set: (AUG-CC-PVTZ AUX)
    Blend: AUG-CC-PVTZ-JKFIT
	 Reference Energy          =    -493.1065133247271319 [Eh]
	 Singles Energy            =      -0.0000000000000000 [Eh]
	 Same-Spin Energy          =      -0.4833523473091640 [Eh]
	 Opposite-Spin Energy      =      -1.4756232920387604 [Eh]
	 Correlation Energy        =      -1.9589756393479245 [Eh]
	 Total Energy              =    -495.0654889640750298 [Eh]

	 ================> DF-SCS-MP2 Energies <==================
	-----------------------------------------------------------
	 SCS Same-Spin Scale       =       0.3333333333333333 [-]
	 SCS Opposite-Spin Scale   =       1.2000000000000000 [-]
	 SCS Same-Spin Energy      =      -0.1611174491030546 [Eh]
	 SCS Opposite-Spin Energy  =      -1.7707479504465125 [Eh]
	 SCS Correlation Energy    =      -1.9318653995495672 [Eh]
	 SCS Total Energy          =    -495.0383787242766971 [Eh]
	-----------------------------------------------------------

  Dipole Moment: [D]
     X:    11.3783      Y:    -0.7129      Z:    -0.0686     Total:    11.4009

*** Psi4 exiting successfully. Buy a developer a beer!
