                               Psi4 1.4a3.dev225

  ==> Input File <==

--------------------------------------------------------------------------
#psi4
#
memory 32 gb

molecule  {
-1 1
  O        1.8724200    -0.7415990     0.3394840
  O        2.1027790     1.3758310    -0.4300950
  O       -3.3072830    -0.3512340    -0.9359590
  O       -2.5979240    -0.0254400     1.2183870
  C       -0.0530340     0.6334400     0.4456770
  C       -0.9697120    -0.0967620    -0.5425230
  C        1.3896910     0.5173160     0.0754460
  C       -2.4557055    -0.1508329    -0.0115935
  C        3.2289120    -0.9370400    -0.0704660
  H       -0.2424870     0.2042160     1.4320630
  H       -0.3042490     1.6964080     0.4822290
  H       -0.9505240     0.3810480    -1.5282220
  H       -0.6173950    -1.1275390    -0.6764200
  H        3.4625260    -1.9695390     0.1897820
  H        3.8993660    -0.2498350     0.4514950
  H        3.3382080    -0.7798600    -1.1461020
units angstrom
no_reorient  #important for SAPT in psi4, default
symmetry c1  #important for SAPT in psi4, default
}

set PROPERTIES_ORIGIN ["COM"]
properties('MP2/aug-cc-pvtz', properties = ['dipole'])
--------------------------------------------------------------------------

    Molecular point group: c1
  Charge       = -1
  Multiplicity = 1
  Basis Set: AUG-CC-PVTZ
    Blend: AUG-CC-PVTZ
  Basis Set: (AUG-CC-PVTZ AUX)
    Blend: AUG-CC-PVTZ-JKFIT

    Orbital Energies [Eh]
    ---------------------

    Doubly Occupied:

       1A    -20.495976     2A    -20.434448     3A    -20.313822
       4A    -20.302729     5A    -11.266176     6A    -11.190840
       7A    -11.154691     8A    -11.100559     9A    -11.078618
      10A     -1.342095    11A     -1.239524    12A     -1.181659
      13A     -1.082234    14A     -0.935063    15A     -0.856856
      16A     -0.754704    17A     -0.661847    18A     -0.576866
      19A     -0.568457    20A     -0.560517    21A     -0.530320
      22A     -0.487907    23A     -0.465859    24A     -0.452317
      25A     -0.431317    26A     -0.419711    27A     -0.411164
      28A     -0.386780    29A     -0.361168    30A     -0.353537
      31A     -0.338248    32A     -0.328868    33A     -0.227797
      34A     -0.208897    35A     -0.206541

  @DF-RHF Final Energy:  -493.10825328471020

   => Energetics <=

    Nuclear Repulsion Energy =            435.1544054250881004
    One-Electron Energy =               -1551.1090896691898706
    Two-Electron Energy =                 622.8464309593916823
    Total Energy =                       -493.1082532847101447
  Basis Set: (AUG-CC-PVTZ AUX)
    Blend: AUG-CC-PVTZ-RI
    Molecular point group: c1

    Geometry (in Angstrom), charge = -1, multiplicity = 1:

       Center              X                  Y                   Z               Mass
    ------------   -----------------  -----------------  -----------------  -----------------
         O            1.937562180952    -0.755744384479     0.331660214766    15.994914619570
         O            2.167921180952     1.361685615521    -0.437918785234    15.994914619570
         O           -3.242140819048    -0.365379384479    -0.943782785234    15.994914619570
         O           -2.532781819048    -0.039585384479     1.210563214766    15.994914619570
         C            0.012108180952     0.619294615521     0.437853214766    12.000000000000
         C           -0.904569819048    -0.110907384479    -0.550346785234    12.000000000000
         C            1.454833180952     0.503170615521     0.067622214766    12.000000000000
         C           -2.390563319048    -0.164978284479    -0.019417285234    12.000000000000
         C            3.294054180952    -0.951185384479    -0.078289785234    12.000000000000
         H           -0.177344819048     0.190070615521     1.424239214766     1.007825032230
         H           -0.239106819048     1.682262615521     0.474405214766     1.007825032230
         H           -0.885381819048     0.366902615521    -1.536045785234     1.007825032230
         H           -0.552252819048    -1.141684384479    -0.684243785234     1.007825032230
         H            3.527668180952    -1.983684384479     0.181958214766     1.007825032230
         H            3.964508180952    -0.263980384479     0.443671214766     1.007825032230
         H            3.403350180952    -0.794005384479    -1.153925785234     1.007825032230

  Basis Set: AUG-CC-PVTZ
    Blend: AUG-CC-PVTZ
  Basis Set: (AUG-CC-PVTZ AUX)
    Blend: AUG-CC-PVTZ-JKFIT
	 Reference Energy          =    -493.1082532847102016 [Eh]
	 Singles Energy            =      -0.0000000000000000 [Eh]
	 Same-Spin Energy          =      -0.4836640928077695 [Eh]
	 Opposite-Spin Energy      =      -1.4757240939869958 [Eh]
	 Correlation Energy        =      -1.9593881867947653 [Eh]
	 Total Energy              =    -495.0676414715049418 [Eh]

	 ================> DF-SCS-MP2 Energies <==================
	-----------------------------------------------------------
	 SCS Same-Spin Scale       =       0.3333333333333333 [-]
	 SCS Opposite-Spin Scale   =       1.2000000000000000 [-]
	 SCS Same-Spin Energy      =      -0.1612213642692565 [Eh]
	 SCS Opposite-Spin Energy  =      -1.7708689127843948 [Eh]
	 SCS Correlation Energy    =      -1.9320902770536514 [Eh]
	 SCS Total Energy          =    -495.0403435617638479 [Eh]
	-----------------------------------------------------------

  Dipole Moment: [D]
     X:    11.3401      Y:    -0.7078      Z:     0.1075     Total:    11.3627

*** Psi4 exiting successfully. Buy a developer a beer!
