                               Psi4 1.4a3.dev225

  ==> Input File <==

--------------------------------------------------------------------------
#psi4
#
memory 32 gb

molecule  {
-1 1
  O        1.8724200    -0.7415990     0.3394840
  O        2.1027790     1.3758310    -0.4300950
  O       -3.3072830    -0.3512340    -0.9359590
  O       -2.5979240    -0.0254400     1.2183870
  C       -0.0530340     0.6334400     0.4456770
  C       -0.9697120    -0.0967620    -0.5425230
  C        1.4057213     0.4705567     0.1672650
  C       -2.4534200    -0.1528480    -0.0313600
  C        3.2289120    -0.9370400    -0.0704660
  H       -0.2424870     0.2042160     1.4320630
  H       -0.3042490     1.6964080     0.4822290
  H       -0.9505240     0.3810480    -1.5282220
  H       -0.6173950    -1.1275390    -0.6764200
  H        3.4625260    -1.9695390     0.1897820
  H        3.8993660    -0.2498350     0.4514950
  H        3.3382080    -0.7798600    -1.1461020
units angstrom
no_reorient  #important for SAPT in psi4, default
symmetry c1  #important for SAPT in psi4, default
}

set PROPERTIES_ORIGIN ["COM"]
properties('MP2/aug-cc-pvtz', properties = ['dipole'])
--------------------------------------------------------------------------

    Molecular point group: c1
  Charge       = -1
  Multiplicity = 1
  Basis Set: AUG-CC-PVTZ
    Blend: AUG-CC-PVTZ
  Basis Set: (AUG-CC-PVTZ AUX)
    Blend: AUG-CC-PVTZ-JKFIT

    Orbital Energies [Eh]
    ---------------------

    Doubly Occupied:

       1A    -20.513461     2A    -20.419890     3A    -20.308688
       4A    -20.306612     5A    -11.268841     6A    -11.199579
       7A    -11.154877     8A    -11.100401     9A    -11.080220
      10A     -1.364574    11A     -1.203743    12A     -1.177374
      13A     -1.081194    14A     -0.938918    15A     -0.870876
      16A     -0.758172    17A     -0.675570    18A     -0.583690
      19A     -0.574332    20A     -0.558198    21A     -0.531397
      22A     -0.479282    23A     -0.471082    24A     -0.450637
      25A     -0.431460    26A     -0.417305    27A     -0.407177
      28A     -0.388895    29A     -0.362000    30A     -0.340748
      31A     -0.331021    32A     -0.321638    33A     -0.225574
      34A     -0.209694    35A     -0.208058

  @DF-RHF Final Energy:  -493.09610933002642

   => Energetics <=

    Nuclear Repulsion Energy =            435.0156842784197693
    One-Electron Energy =               -1550.7932376613273391
    Two-Electron Energy =                 622.6814440528812611
    Total Energy =                       -493.0961093300263656
  Basis Set: (AUG-CC-PVTZ AUX)
    Blend: AUG-CC-PVTZ-RI
    Molecular point group: c1

    Geometry (in Angstrom), charge = -1, multiplicity = 1:

       Center              X                  Y                   Z               Mass
    ------------   -----------------  -----------------  -----------------  -----------------
         O            1.935884838640    -0.751277674597     0.325061720190    15.994914619570
         O            2.166243838640     1.366152325403    -0.444517279810    15.994914619570
         O           -3.243818161360    -0.360912674597    -0.950381279810    15.994914619570
         O           -2.534459161360    -0.035118674597     1.203964720190    15.994914619570
         C            0.010430838640     0.623761325403     0.431254720190    12.000000000000
         C           -0.906247161360    -0.106440674597    -0.556945279810    12.000000000000
         C            1.469186138640     0.460878025403     0.152842720190    12.000000000000
         C           -2.389955161360    -0.162526674597    -0.045782279810    12.000000000000
         C            3.292376838640    -0.946718674597    -0.084888279810    12.000000000000
         H           -0.179022161360     0.194537325403     1.417640720190     1.007825032230
         H           -0.240784161360     1.686729325403     0.467806720190     1.007825032230
         H           -0.887059161360     0.371369325403    -1.542644279810     1.007825032230
         H           -0.553930161360    -1.137217674597    -0.690842279810     1.007825032230
         H            3.525990838640    -1.979217674597     0.175359720190     1.007825032230
         H            3.962830838640    -0.259513674597     0.437072720190     1.007825032230
         H            3.401672838640    -0.789538674597    -1.160524279810     1.007825032230

  Basis Set: AUG-CC-PVTZ
    Blend: AUG-CC-PVTZ
  Basis Set: (AUG-CC-PVTZ AUX)
    Blend: AUG-CC-PVTZ-JKFIT
	 Reference Energy          =    -493.0961093300264224 [Eh]
	 Singles Energy            =      -0.0000000000000000 [Eh]
	 Same-Spin Energy          =      -0.4846273730666275 [Eh]
	 Opposite-Spin Energy      =      -1.4775896410648226 [Eh]
	 Correlation Energy        =      -1.9622170141314501 [Eh]
	 Total Energy              =    -495.0583263441578765 [Eh]

	 ================> DF-SCS-MP2 Energies <==================
	-----------------------------------------------------------
	 SCS Same-Spin Scale       =       0.3333333333333333 [-]
	 SCS Opposite-Spin Scale   =       1.2000000000000000 [-]
	 SCS Same-Spin Energy      =      -0.1615424576888758 [Eh]
	 SCS Opposite-Spin Energy  =      -1.7731075692777871 [Eh]
	 SCS Correlation Energy    =      -1.9346500269666629 [Eh]
	 SCS Total Energy          =    -495.0307593569930873 [Eh]
	-----------------------------------------------------------

  Dipole Moment: [D]
     X:    11.4744      Y:    -1.2962      Z:     0.1470     Total:    11.5483

*** Psi4 exiting successfully. Buy a developer a beer!
