                               Psi4 1.4a3.dev225

  ==> Input File <==

--------------------------------------------------------------------------
#psi4
#
memory 32 gb

molecule  {
-1 1
  O        1.8724200    -0.7415990     0.3394840
  O        2.1027790     1.3758310    -0.4300950
  O       -3.3072830    -0.3512340    -0.9359590
  O       -2.5979240    -0.0254400     1.2183870
  C       -0.0530340     0.6334400     0.4456770
  C       -0.9697120    -0.0967620    -0.5425230
  C        1.3896910     0.5173160     0.0754460
  C       -2.4534200    -0.1528480    -0.0313600
  C        3.2289120    -0.9370400    -0.0704660
  H       -0.2424870     0.2042160     1.4320630
  H       -0.3042490     1.6964080     0.4822290
  H       -0.9496483     0.4028545    -1.5732077
  H       -0.6173950    -1.1275390    -0.6764200
  H        3.4625260    -1.9695390     0.1897820
  H        3.8993660    -0.2498350     0.4514950
  H        3.3382080    -0.7798600    -1.1461020
units angstrom
no_reorient  #important for SAPT in psi4, default
symmetry c1  #important for SAPT in psi4, default
}

set PROPERTIES_ORIGIN ["COM"]
properties('MP2/aug-cc-pvtz', properties = ['dipole'])
--------------------------------------------------------------------------

    Molecular point group: c1
  Charge       = -1
  Multiplicity = 1
  Basis Set: AUG-CC-PVTZ
    Blend: AUG-CC-PVTZ
  Basis Set: (AUG-CC-PVTZ AUX)
    Blend: AUG-CC-PVTZ-JKFIT

    Orbital Energies [Eh]
    ---------------------

    Doubly Occupied:

       1A    -20.496317     2A    -20.434824     3A    -20.309574
       4A    -20.306476     5A    -11.266587     6A    -11.191042
       7A    -11.155255     8A    -11.101364     9A    -11.085768
      10A     -1.342417    11A     -1.239834    12A     -1.177718
      13A     -1.081544    14A     -0.934955    15A     -0.856696
      16A     -0.754038    17A     -0.662063    18A     -0.576591
      19A     -0.568909    20A     -0.560892    21A     -0.529241
      22A     -0.486749    23A     -0.464721    24A     -0.451814
      25A     -0.430839    26A     -0.419099    27A     -0.411525
      28A     -0.386925    29A     -0.360142    30A     -0.350986
      31A     -0.338080    32A     -0.325858    33A     -0.225971
      34A     -0.209752    35A     -0.208367

  @DF-RHF Final Energy:  -493.10627914164257

   => Energetics <=

    Nuclear Repulsion Energy =            434.8764124625858472
    One-Electron Energy =               -1550.5595155588250691
    Two-Electron Energy =                 622.5768239545966480
    Total Energy =                       -493.1062791416425171
  Basis Set: (AUG-CC-PVTZ AUX)
    Blend: AUG-CC-PVTZ-RI
    Molecular point group: c1

    Geometry (in Angstrom), charge = -1, multiplicity = 1:

       Center              X                  Y                   Z               Mass
    ------------   -----------------  -----------------  -----------------  -----------------
         O            1.937346141919    -0.755727563989     0.333816409184    15.994914619570
         O            2.167705141919     1.361702436011    -0.435762590816    15.994914619570
         O           -3.242356858081    -0.365362563989    -0.941626590816    15.994914619570
         O           -2.532997858081    -0.039568563989     1.212719409184    15.994914619570
         C            0.011892141919     0.619311436011     0.440009409184    12.000000000000
         C           -0.904785858081    -0.110890563989    -0.548190590816    12.000000000000
         C            1.454617141919     0.503187436011     0.069778409184    12.000000000000
         C           -2.388493858081    -0.166976563989    -0.037027590816    12.000000000000
         C            3.293838141919    -0.951168563989    -0.076133590816    12.000000000000
         H           -0.177560858081     0.190087436011     1.426395409184     1.007825032230
         H           -0.239322858081     1.682279436011     0.476561409184     1.007825032230
         H           -0.884722158081     0.388725936011    -1.578875290816     1.007825032230
         H           -0.552468858081    -1.141667563989    -0.682087590816     1.007825032230
         H            3.527452141919    -1.983667563989     0.184114409184     1.007825032230
         H            3.964292141919    -0.263963563989     0.445827409184     1.007825032230
         H            3.403134141919    -0.793988563989    -1.151769590816     1.007825032230

  Basis Set: AUG-CC-PVTZ
    Blend: AUG-CC-PVTZ
  Basis Set: (AUG-CC-PVTZ AUX)
    Blend: AUG-CC-PVTZ-JKFIT
	 Reference Energy          =    -493.1062791416425739 [Eh]
	 Singles Energy            =      -0.0000000000000000 [Eh]
	 Same-Spin Energy          =      -0.4837683619782647 [Eh]
	 Opposite-Spin Energy      =      -1.4763343373860274 [Eh]
	 Correlation Energy        =      -1.9601026993642920 [Eh]
	 Total Energy              =    -495.0663818410068870 [Eh]

	 ================> DF-SCS-MP2 Energies <==================
	-----------------------------------------------------------
	 SCS Same-Spin Scale       =       0.3333333333333333 [-]
	 SCS Opposite-Spin Scale   =       1.2000000000000000 [-]
	 SCS Same-Spin Energy      =      -0.1612561206594216 [Eh]
	 SCS Opposite-Spin Energy  =      -1.7716012048632328 [Eh]
	 SCS Correlation Energy    =      -1.9328573255226544 [Eh]
	 SCS Total Energy          =    -495.0391364671652354 [Eh]
	-----------------------------------------------------------

  Dipole Moment: [D]
     X:    11.3351      Y:    -0.7382      Z:    -0.0492     Total:    11.3592

*** Psi4 exiting successfully. Buy a developer a beer!
