                               Psi4 1.4a3.dev225

  ==> Input File <==

--------------------------------------------------------------------------
#psi4
#
memory 32 gb

molecule  {
-1 1
  O        1.8724200    -0.7415990     0.3394840
  O        2.1027790     1.3758310    -0.4300950
  O       -3.3072830    -0.3512340    -0.9359590
  O       -2.5979240    -0.0254400     1.2183870
  C       -0.0530340     0.6334400     0.4456770
  C       -0.9697120    -0.0967620    -0.5425230
  C        1.3896910     0.5173160     0.0754460
  C       -2.4540182    -0.1254533    -0.0308252
  C        3.2289120    -0.9370400    -0.0704660
  H       -0.2424870     0.2042160     1.4320630
  H       -0.3042490     1.6964080     0.4822290
  H       -0.9505240     0.3810480    -1.5282220
  H       -0.6173950    -1.1275390    -0.6764200
  H        3.4625260    -1.9695390     0.1897820
  H        3.8993660    -0.2498350     0.4514950
  H        3.3382080    -0.7798600    -1.1461020
units angstrom
no_reorient  #important for SAPT in psi4, default
symmetry c1  #important for SAPT in psi4, default
}

set PROPERTIES_ORIGIN ["COM"]
properties('MP2/aug-cc-pvtz', properties = ['dipole'])
--------------------------------------------------------------------------

    Molecular point group: c1
  Charge       = -1
  Multiplicity = 1
  Basis Set: AUG-CC-PVTZ
    Blend: AUG-CC-PVTZ
  Basis Set: (AUG-CC-PVTZ AUX)
    Blend: AUG-CC-PVTZ-JKFIT

    Orbital Energies [Eh]
    ---------------------

    Doubly Occupied:

       1A    -20.496274     2A    -20.434732     3A    -20.310058
       4A    -20.305602     5A    -11.266433     6A    -11.191037
       7A    -11.154825     8A    -11.100779     9A    -11.079904
      10A     -1.342376    11A     -1.239795    12A     -1.177207
      13A     -1.080615    14A     -0.935575    15A     -0.857435
      16A     -0.756537    17A     -0.662183    18A     -0.577057
      19A     -0.568945    20A     -0.560790    21A     -0.530674
      22A     -0.488020    23A     -0.466295    24A     -0.452181
      25A     -0.431255    26A     -0.419034    27A     -0.410919
      28A     -0.386643    29A     -0.360801    30A     -0.353156
      31A     -0.338183    32A     -0.327519    33A     -0.225909
      34A     -0.209231    35A     -0.207837

  @DF-RHF Final Energy:  -493.10780214750764

   => Energetics <=

    Nuclear Repulsion Energy =            435.1236383515065427
    One-Electron Energy =               -1551.0512507697164892
    Two-Electron Energy =                 622.8198102707023054
    Total Energy =                       -493.1078021475076412
  Basis Set: (AUG-CC-PVTZ AUX)
    Blend: AUG-CC-PVTZ-RI
    Molecular point group: c1

    Geometry (in Angstrom), charge = -1, multiplicity = 1:

       Center              X                  Y                   Z               Mass
    ------------   -----------------  -----------------  -----------------  -----------------
         O            1.937407659736    -0.758068622402     0.333421434267    15.994914619570
         O            2.167766659736     1.359361377598    -0.436157565733    15.994914619570
         O           -3.242295340264    -0.367703622402    -0.942021565733    15.994914619570
         O           -2.532936340264    -0.041909622402     1.212324434267    15.994914619570
         C            0.011953659736     0.616970377598     0.439614434267    12.000000000000
         C           -0.904724340264    -0.113231622402    -0.548585565733    12.000000000000
         C            1.454678659736     0.500846377598     0.069383434267    12.000000000000
         C           -2.389030540264    -0.141922922402    -0.036887765733    12.000000000000
         C            3.293899659736    -0.953509622402    -0.076528565733    12.000000000000
         H           -0.177499340264     0.187746377598     1.426000434267     1.007825032230
         H           -0.239261340264     1.679938377598     0.476166434267     1.007825032230
         H           -0.885536340264     0.364578377598    -1.534284565733     1.007825032230
         H           -0.552407340264    -1.144008622402    -0.682482565733     1.007825032230
         H            3.527513659736    -1.986008622402     0.183719434267     1.007825032230
         H            3.964353659736    -0.266304622402     0.445432434267     1.007825032230
         H            3.403195659736    -0.796329622402    -1.152164565733     1.007825032230

  Basis Set: AUG-CC-PVTZ
    Blend: AUG-CC-PVTZ
  Basis Set: (AUG-CC-PVTZ AUX)
    Blend: AUG-CC-PVTZ-JKFIT
	 Reference Energy          =    -493.1078021475076412 [Eh]
	 Singles Energy            =      -0.0000000000000000 [Eh]
	 Same-Spin Energy          =      -0.4838070262657217 [Eh]
	 Opposite-Spin Energy      =      -1.4761490028477176 [Eh]
	 Correlation Energy        =      -1.9599560291134392 [Eh]
	 Total Energy              =    -495.0677581766210551 [Eh]

	 ================> DF-SCS-MP2 Energies <==================
	-----------------------------------------------------------
	 SCS Same-Spin Scale       =       0.3333333333333333 [-]
	 SCS Opposite-Spin Scale   =       1.2000000000000000 [-]
	 SCS Same-Spin Energy      =      -0.1612690087552406 [Eh]
	 SCS Opposite-Spin Energy  =      -1.7713788034172611 [Eh]
	 SCS Correlation Energy    =      -1.9326478121725017 [Eh]
	 SCS Total Energy          =    -495.0404499596801315 [Eh]
	-----------------------------------------------------------

  Dipole Moment: [D]
     X:    11.3577      Y:    -0.7109      Z:    -0.0477     Total:    11.3800

*** Psi4 exiting successfully. Buy a developer a beer!
