                               Psi4 1.4a3.dev225

  ==> Input File <==

--------------------------------------------------------------------------
#psi4
#
memory 32 gb

molecule  {
-1 1
  O        1.8724200    -0.7415990     0.3394840
  O        2.1027790     1.3758310    -0.4300950
  O       -3.3072830    -0.3512340    -0.9359590
  O       -2.5979240    -0.0254400     1.2183870
  C       -0.0530340     0.6334400     0.4456770
  C       -0.9697120    -0.0967620    -0.5425230
  C        1.3896910     0.5173160     0.0754460
  C       -2.4669771    -0.1559978    -0.0457226
  C        3.2289120    -0.9370400    -0.0704660
  H       -0.2424870     0.2042160     1.4320630
  H       -0.3042490     1.6964080     0.4822290
  H       -0.9505240     0.3810480    -1.5282220
  H       -0.6173950    -1.1275390    -0.6764200
  H        3.4625260    -1.9695390     0.1897820
  H        3.8993660    -0.2498350     0.4514950
  H        3.3382080    -0.7798600    -1.1461020
units angstrom
no_reorient  #important for SAPT in psi4, default
symmetry c1  #important for SAPT in psi4, default
}

set PROPERTIES_ORIGIN ["COM"]
properties('MP2/aug-cc-pvtz', properties = ['dipole'])
--------------------------------------------------------------------------

    Molecular point group: c1
  Charge       = -1
  Multiplicity = 1
  Basis Set: AUG-CC-PVTZ
    Blend: AUG-CC-PVTZ
  Basis Set: (AUG-CC-PVTZ AUX)
    Blend: AUG-CC-PVTZ-JKFIT

    Orbital Energies [Eh]
    ---------------------

    Doubly Occupied:

       1A    -20.495593     2A    -20.434138     3A    -20.311239
       4A    -20.305167     5A    -11.265754     6A    -11.190538
       7A    -11.154642     8A    -11.099798     9A    -11.078533
      10A     -1.341712    11A     -1.239167    12A     -1.181337
      13A     -1.082869    14A     -0.934050    15A     -0.856342
      16A     -0.755088    17A     -0.661516    18A     -0.575872
      19A     -0.568151    20A     -0.560181    21A     -0.529356
      22A     -0.487136    23A     -0.465329    24A     -0.451600
      25A     -0.431152    26A     -0.418980    27A     -0.413347
      28A     -0.387046    29A     -0.360405    30A     -0.352165
      31A     -0.338064    32A     -0.328216    33A     -0.226542
      34A     -0.209447    35A     -0.207741

  @DF-RHF Final Energy:  -493.10820872049726

   => Energetics <=

    Nuclear Repulsion Energy =            435.0477317940569719
    One-Electron Energy =               -1550.9154555517802692
    Two-Electron Energy =                 622.7595150372260377
    Total Energy =                       -493.1082087204972595
  Basis Set: (AUG-CC-PVTZ AUX)
    Blend: AUG-CC-PVTZ-RI
    Molecular point group: c1

    Geometry (in Angstrom), charge = -1, multiplicity = 1:

       Center              X                  Y                   Z               Mass
    ------------   -----------------  -----------------  -----------------  -----------------
         O            1.938594422601    -0.755271388197     0.334785722989    15.994914619570
         O            2.168953422601     1.362158611803    -0.434793277011    15.994914619570
         O           -3.241108577399    -0.364906388197    -0.940657277011    15.994914619570
         O           -2.531749577399    -0.039112388197     1.213688722989    15.994914619570
         C            0.013140422601     0.619767611803     0.440978722989    12.000000000000
         C           -0.903537577399    -0.110434388197    -0.547221277011    12.000000000000
         C            1.455865422601     0.503643611803     0.070747722989    12.000000000000
         C           -2.400802677399    -0.169670188197    -0.050420877011    12.000000000000
         C            3.295086422601    -0.950712388197    -0.075164277011    12.000000000000
         H           -0.176312577399     0.190543611803     1.427364722989     1.007825032230
         H           -0.238074577399     1.682735611803     0.477530722989     1.007825032230
         H           -0.884349577399     0.367375611803    -1.532920277011     1.007825032230
         H           -0.551220577399    -1.141211388197    -0.681118277011     1.007825032230
         H            3.528700422601    -1.983211388197     0.185083722989     1.007825032230
         H            3.965540422601    -0.263507388197     0.446796722989     1.007825032230
         H            3.404382422601    -0.793532388197    -1.150800277011     1.007825032230

  Basis Set: AUG-CC-PVTZ
    Blend: AUG-CC-PVTZ
  Basis Set: (AUG-CC-PVTZ AUX)
    Blend: AUG-CC-PVTZ-JKFIT
	 Reference Energy          =    -493.1082087204972595 [Eh]
	 Singles Energy            =      -0.0000000000000000 [Eh]
	 Same-Spin Energy          =      -0.4836208750151331 [Eh]
	 Opposite-Spin Energy      =      -1.4756990396937872 [Eh]
	 Correlation Energy        =      -1.9593199147089204 [Eh]
	 Total Energy              =    -495.0675286352062017 [Eh]

	 ================> DF-SCS-MP2 Energies <==================
	-----------------------------------------------------------
	 SCS Same-Spin Scale       =       0.3333333333333333 [-]
	 SCS Opposite-Spin Scale   =       1.2000000000000000 [-]
	 SCS Same-Spin Energy      =      -0.1612069583383777 [Eh]
	 SCS Opposite-Spin Energy  =      -1.7708388476325447 [Eh]
	 SCS Correlation Energy    =      -1.9320458059709225 [Eh]
	 SCS Total Energy          =    -495.0402545264681748 [Eh]
	-----------------------------------------------------------

  Dipole Moment: [D]
     X:    11.2098      Y:    -0.7609      Z:    -0.2494     Total:    11.2384

*** Psi4 exiting successfully. Buy a developer a beer!
