                               Psi4 1.4a3.dev225

  ==> Input File <==

--------------------------------------------------------------------------
#psi4
#
memory 32 gb

molecule  {
-1 1
  O        1.8724200    -0.7415990     0.3394840
  O        2.1027790     1.3758310    -0.4300950
  O       -3.3072830    -0.3512340    -0.9359590
  O       -2.5979240    -0.0254400     1.2183870
  C       -0.0530340     0.6334400     0.4456770
  C       -0.9697120    -0.0967620    -0.5425230
  C        1.3896910     0.5173160     0.0754460
  C       -2.4534200    -0.1528480    -0.0313600
  C        3.2289120    -0.9370400    -0.0704660
  H       -0.2192478     0.1370917     1.4043711
  H       -0.3042490     1.6964080     0.4822290
  H       -0.9505240     0.3810480    -1.5282220
  H       -0.6173950    -1.1275390    -0.6764200
  H        3.4625260    -1.9695390     0.1897820
  H        3.8993660    -0.2498350     0.4514950
  H        3.3382080    -0.7798600    -1.1461020
units angstrom
no_reorient  #important for SAPT in psi4, default
symmetry c1  #important for SAPT in psi4, default
}

set PROPERTIES_ORIGIN ["COM"]
properties('MP2/aug-cc-pvtz', properties = ['dipole'])
--------------------------------------------------------------------------

    Molecular point group: c1
  Charge       = -1
  Multiplicity = 1
  Basis Set: AUG-CC-PVTZ
    Blend: AUG-CC-PVTZ
  Basis Set: (AUG-CC-PVTZ AUX)
    Blend: AUG-CC-PVTZ-JKFIT

    Orbital Energies [Eh]
    ---------------------

    Doubly Occupied:

       1A    -20.496167     2A    -20.434295     3A    -20.308949
       4A    -20.306470     5A    -11.265796     6A    -11.191029
       7A    -11.154652     8A    -11.101294     9A    -11.079641
      10A     -1.342256    11A     -1.239554    12A     -1.177404
      13A     -1.081218    14A     -0.936230    15A     -0.857348
      16A     -0.756492    17A     -0.661571    18A     -0.575932
      19A     -0.569004    20A     -0.560309    21A     -0.530267
      22A     -0.489785    23A     -0.467213    24A     -0.451959
      25A     -0.431212    26A     -0.419065    27A     -0.410744
      28A     -0.389446    29A     -0.360243    30A     -0.351500
      31A     -0.337060    32A     -0.328202    33A     -0.225846
      34A     -0.209237    35A     -0.208081

  @DF-RHF Final Energy:  -493.10799213151256

   => Energetics <=

    Nuclear Repulsion Energy =            435.1977391949205298
    One-Electron Energy =               -1551.2005212121264321
    Two-Electron Energy =                 622.8947898856932852
    Total Energy =                       -493.1079921315125603
  Basis Set: (AUG-CC-PVTZ AUX)
    Blend: AUG-CC-PVTZ-RI
    Molecular point group: c1

    Geometry (in Angstrom), charge = -1, multiplicity = 1:

       Center              X                  Y                   Z               Mass
    ------------   -----------------  -----------------  -----------------  -----------------
         O            1.937174137549    -0.755043570600     0.333683397394    15.994914619570
         O            2.167533137549     1.362386429400    -0.435895602606    15.994914619570
         O           -3.242528862451    -0.364678570600    -0.941759602606    15.994914619570
         O           -2.533169862451    -0.038884570600     1.212586397394    15.994914619570
         C            0.011720137549     0.619995429400     0.439876397394    12.000000000000
         C           -0.904957862451    -0.110206570600    -0.548323602606    12.000000000000
         C            1.454445137549     0.503871429400     0.069645397394    12.000000000000
         C           -2.388665862451    -0.166292570600    -0.037160602606    12.000000000000
         C            3.293666137549    -0.950484570600    -0.076266602606    12.000000000000
         H           -0.154493662451     0.123647129400     1.398570497394     1.007825032230
         H           -0.239494862451     1.682963429400     0.476428397394     1.007825032230
         H           -0.885769862451     0.367603429400    -1.534022602606     1.007825032230
         H           -0.552640862451    -1.140983570600    -0.682220602606     1.007825032230
         H            3.527280137549    -1.982983570600     0.183981397394     1.007825032230
         H            3.964120137549    -0.263279570600     0.445694397394     1.007825032230
         H            3.402962137549    -0.793304570600    -1.151902602606     1.007825032230

  Basis Set: AUG-CC-PVTZ
    Blend: AUG-CC-PVTZ
  Basis Set: (AUG-CC-PVTZ AUX)
    Blend: AUG-CC-PVTZ-JKFIT
	 Reference Energy          =    -493.1079921315125603 [Eh]
	 Singles Energy            =      -0.0000000000000000 [Eh]
	 Same-Spin Energy          =      -0.4837806158036105 [Eh]
	 Opposite-Spin Energy      =      -1.4760266620412126 [Eh]
	 Correlation Energy        =      -1.9598072778448230 [Eh]
	 Total Energy              =    -495.0677994093574057 [Eh]

	 ================> DF-SCS-MP2 Energies <==================
	-----------------------------------------------------------
	 SCS Same-Spin Scale       =       0.3333333333333333 [-]
	 SCS Opposite-Spin Scale   =       1.2000000000000000 [-]
	 SCS Same-Spin Energy      =      -0.1612602052678702 [Eh]
	 SCS Opposite-Spin Energy  =      -1.7712319944494550 [Eh]
	 SCS Correlation Energy    =      -1.9324921997173252 [Eh]
	 SCS Total Energy          =    -495.0404843312298908 [Eh]
	-----------------------------------------------------------

  Dipole Moment: [D]
     X:    11.3427      Y:    -0.7492      Z:    -0.0994     Total:    11.3678

*** Psi4 exiting successfully. Buy a developer a beer!
