                               Psi4 1.4a3.dev225

  ==> Input File <==

--------------------------------------------------------------------------
#psi4
#
memory 32 gb

molecule  {
-1 1
  O        1.8724200    -0.7415990     0.3394840
  O        2.1027790     1.3758310    -0.4300950
  O       -3.3072830    -0.3512340    -0.9359590
  O       -2.5979240    -0.0254400     1.2183870
  C       -0.0530340     0.6334400     0.4456770
  C       -0.9697120    -0.0967620    -0.5425230
  C        1.4187919     0.5523517     0.0548150
  C       -2.4534200    -0.1528480    -0.0313600
  C        3.2289120    -0.9370400    -0.0704660
  H       -0.2424870     0.2042160     1.4320630
  H       -0.3042490     1.6964080     0.4822290
  H       -0.9505240     0.3810480    -1.5282220
  H       -0.6173950    -1.1275390    -0.6764200
  H        3.4625260    -1.9695390     0.1897820
  H        3.8993660    -0.2498350     0.4514950
  H        3.3382080    -0.7798600    -1.1461020
units angstrom
no_reorient  #important for SAPT in psi4, default
symmetry c1  #important for SAPT in psi4, default
}

set PROPERTIES_ORIGIN ["COM"]
properties('MP2/aug-cc-pvtz', properties = ['dipole'])
--------------------------------------------------------------------------

    Molecular point group: c1
  Charge       = -1
  Multiplicity = 1
  Basis Set: AUG-CC-PVTZ
    Blend: AUG-CC-PVTZ
  Basis Set: (AUG-CC-PVTZ AUX)
    Blend: AUG-CC-PVTZ-JKFIT

    Orbital Energies [Eh]
    ---------------------

    Doubly Occupied:

       1A    -20.488320     2A    -20.444602     3A    -20.307637
       4A    -20.305161     5A    -11.262268     6A    -11.187380
       7A    -11.153218     8A    -11.100296     9A    -11.077233
      10A     -1.350399    11A     -1.259067    12A     -1.176073
      13A     -1.079929    14A     -0.926593    15A     -0.850689
      16A     -0.751240    17A     -0.658610    18A     -0.584981
      19A     -0.569863    20A     -0.557727    21A     -0.528301
      22A     -0.492619    23A     -0.461835    24A     -0.458731
      25A     -0.434312    26A     -0.421450    27A     -0.412152
      28A     -0.383466    29A     -0.363023    30A     -0.354518
      31A     -0.336029    32A     -0.327056    33A     -0.224540
      34A     -0.207662    35A     -0.206804

  @DF-RHF Final Energy:  -493.10743433846437

   => Energetics <=

    Nuclear Repulsion Energy =            435.1301147672270417
    One-Electron Energy =               -1551.0675282765612337
    Two-Electron Energy =                 622.8299791708698194
    Total Energy =                       -493.1074343384643726
  Basis Set: (AUG-CC-PVTZ AUX)
    Blend: AUG-CC-PVTZ-RI
    Molecular point group: c1

    Geometry (in Angstrom), charge = -1, multiplicity = 1:

       Center              X                  Y                   Z               Mass
    ------------   -----------------  -----------------  -----------------  -----------------
         O            1.934687846402    -0.758768377401     0.335359776677    15.994914619570
         O            2.165046846402     1.358661622599    -0.434219223323    15.994914619570
         O           -3.245015153598    -0.368403377401    -0.940083223323    15.994914619570
         O           -2.535656153598    -0.042609377401     1.214262776677    15.994914619570
         C            0.009233846402     0.616270622599     0.441552776677    12.000000000000
         C           -0.907444153598    -0.113931377401    -0.546647223323    12.000000000000
         C            1.481059746402     0.535182322599     0.050690776677    12.000000000000
         C           -2.391152153598    -0.170017377401    -0.035484223323    12.000000000000
         C            3.291179846402    -0.954209377401    -0.074590223323    12.000000000000
         H           -0.180219153598     0.187046622599     1.427938776677     1.007825032230
         H           -0.241981153598     1.679238622599     0.478104776677     1.007825032230
         H           -0.888256153598     0.363878622599    -1.532346223323     1.007825032230
         H           -0.555127153598    -1.144708377401    -0.680544223323     1.007825032230
         H            3.524793846402    -1.986708377401     0.185657776677     1.007825032230
         H            3.961633846402    -0.267004377401     0.447370776677     1.007825032230
         H            3.400475846402    -0.797029377401    -1.150226223323     1.007825032230

  Basis Set: AUG-CC-PVTZ
    Blend: AUG-CC-PVTZ
  Basis Set: (AUG-CC-PVTZ AUX)
    Blend: AUG-CC-PVTZ-JKFIT
	 Reference Energy          =    -493.1074343384643726 [Eh]
	 Singles Energy            =      -0.0000000000000000 [Eh]
	 Same-Spin Energy          =      -0.4828176082093817 [Eh]
	 Opposite-Spin Energy      =      -1.4744181726301513 [Eh]
	 Correlation Energy        =      -1.9572357808395329 [Eh]
	 Total Energy              =    -495.0646701193039121 [Eh]

	 ================> DF-SCS-MP2 Energies <==================
	-----------------------------------------------------------
	 SCS Same-Spin Scale       =       0.3333333333333333 [-]
	 SCS Opposite-Spin Scale   =       1.2000000000000000 [-]
	 SCS Same-Spin Energy      =      -0.1609392027364606 [Eh]
	 SCS Opposite-Spin Energy  =      -1.7693018071561815 [Eh]
	 SCS Correlation Energy    =      -1.9302410098926419 [Eh]
	 SCS Total Energy          =    -495.0376753483570269 [Eh]
	-----------------------------------------------------------

  Dipole Moment: [D]
     X:    11.4995      Y:    -0.3932      Z:    -0.2119     Total:    11.5082

*** Psi4 exiting successfully. Buy a developer a beer!
