                               Psi4 1.4a3.dev225

  ==> Input File <==

--------------------------------------------------------------------------
#psi4
#
memory 32 gb

molecule  {
-1 1
  O        1.8724200    -0.7415990     0.3394840
  O        2.1027790     1.3758310    -0.4300950
  O       -3.3072830    -0.3512340    -0.9359590
  O       -2.5979240    -0.0254400     1.2183870
  C       -0.0530340     0.6334400     0.4456770
  C       -0.9697120    -0.0967620    -0.5425230
  C        1.3896910     0.5173160     0.0754460
  C       -2.4403559    -0.3165659    -0.0378296
  C        3.2289120    -0.9370400    -0.0704660
  H       -0.2424870     0.2042160     1.4320630
  H       -0.3042490     1.6964080     0.4822290
  H       -0.9505240     0.3810480    -1.5282220
  H       -0.6173950    -1.1275390    -0.6764200
  H        3.4625260    -1.9695390     0.1897820
  H        3.8993660    -0.2498350     0.4514950
  H        3.3382080    -0.7798600    -1.1461020
units angstrom
no_reorient  #important for SAPT in psi4, default
symmetry c1  #important for SAPT in psi4, default
}

set PROPERTIES_ORIGIN ["COM"]
properties('MP2/aug-cc-pvtz', properties = ['dipole'])
--------------------------------------------------------------------------

    Molecular point group: c1
  Charge       = -1
  Multiplicity = 1
  Basis Set: AUG-CC-PVTZ
    Blend: AUG-CC-PVTZ
  Basis Set: (AUG-CC-PVTZ AUX)
    Blend: AUG-CC-PVTZ-JKFIT

    Orbital Energies [Eh]
    ---------------------

    Doubly Occupied:

       1A    -20.496069     2A    -20.435349     3A    -20.313161
       4A    -20.304036     5A    -11.266905     6A    -11.190969
       7A    -11.158168     8A    -11.101484     9A    -11.080993
      10A     -1.342395    11A     -1.240064    12A     -1.174747
      13A     -1.071415    14A     -0.934962    15A     -0.857059
      16A     -0.758644    17A     -0.662558    18A     -0.576400
      19A     -0.568486    20A     -0.561442    21A     -0.530986
      22A     -0.487184    23A     -0.465623    24A     -0.451723
      25A     -0.430175    26A     -0.417954    27A     -0.409490
      28A     -0.386619    29A     -0.359969    30A     -0.352114
      31A     -0.337036    32A     -0.326057    33A     -0.223189
      34A     -0.207957    35A     -0.204323

  @DF-RHF Final Energy:  -493.09289710205604

   => Energetics <=

    Nuclear Repulsion Energy =            434.6255515748609923
    One-Electron Energy =               -1550.0654874878473493
    Two-Electron Energy =                 622.3470388109303713
    Total Energy =                       -493.0928971020559857
  Basis Set: (AUG-CC-PVTZ AUX)
    Blend: AUG-CC-PVTZ-RI
    Molecular point group: c1

    Geometry (in Angstrom), charge = -1, multiplicity = 1:

       Center              X                  Y                   Z               Mass
    ------------   -----------------  -----------------  -----------------  -----------------
         O            1.936156480215    -0.740566725113     0.334062890086    15.994914619570
         O            2.166515480215     1.376863274887    -0.435516109914    15.994914619570
         O           -3.243546519785    -0.350201725113    -0.941380109914    15.994914619570
         O           -2.534187519785    -0.024407725113     1.212965890086    15.994914619570
         C            0.010702480215     0.634472274887     0.440255890086    12.000000000000
         C           -0.905975519785    -0.095729725113    -0.547944109914    12.000000000000
         C            1.453427480215     0.518348274887     0.070024890086    12.000000000000
         C           -2.376619419785    -0.315533625113    -0.043250709914    12.000000000000
         C            3.292648480215    -0.936007725113    -0.075887109914    12.000000000000
         H           -0.178750519785     0.205248274887     1.426641890086     1.007825032230
         H           -0.240512519785     1.697440274887     0.476807890086     1.007825032230
         H           -0.886787519785     0.382080274887    -1.533643109914     1.007825032230
         H           -0.553658519785    -1.126506725113    -0.681841109914     1.007825032230
         H            3.526262480215    -1.968506725113     0.184360890086     1.007825032230
         H            3.963102480215    -0.248802725113     0.446073890086     1.007825032230
         H            3.401944480215    -0.778827725113    -1.151523109914     1.007825032230

  Basis Set: AUG-CC-PVTZ
    Blend: AUG-CC-PVTZ
  Basis Set: (AUG-CC-PVTZ AUX)
    Blend: AUG-CC-PVTZ-JKFIT
	 Reference Energy          =    -493.0928971020560425 [Eh]
	 Singles Energy            =      -0.0000000000000000 [Eh]
	 Same-Spin Energy          =      -0.4847478318874363 [Eh]
	 Opposite-Spin Energy      =      -1.4783361899954708 [Eh]
	 Correlation Energy        =      -1.9630840218829071 [Eh]
	 Total Energy              =    -495.0559811239389774 [Eh]

	 ================> DF-SCS-MP2 Energies <==================
	-----------------------------------------------------------
	 SCS Same-Spin Scale       =       0.3333333333333333 [-]
	 SCS Opposite-Spin Scale   =       1.2000000000000000 [-]
	 SCS Same-Spin Energy      =      -0.1615826106291454 [Eh]
	 SCS Opposite-Spin Energy  =      -1.7740034279945649 [Eh]
	 SCS Correlation Energy    =      -1.9355860386237103 [Eh]
	 SCS Total Energy          =    -495.0284831406797252 [Eh]
	-----------------------------------------------------------

  Dipole Moment: [D]
     X:    11.3248      Y:    -0.8290      Z:    -0.3265     Total:    11.3598

*** Psi4 exiting successfully. Buy a developer a beer!
