                               Psi4 1.4a3.dev225

  ==> Input File <==

--------------------------------------------------------------------------
#psi4
#
memory 32 gb

molecule  {
-1 1
  O        1.8724200    -0.7415990     0.3394840
  O        2.1027790     1.3758310    -0.4300950
  O       -3.3072830    -0.3512340    -0.9359590
  O       -2.5979240    -0.0254400     1.2183870
  C       -0.0530340     0.6334400     0.4456770
  C       -0.9697120    -0.0967620    -0.5425230
  C        1.4110749     0.4474605     0.2137114
  C       -2.4534200    -0.1528480    -0.0313600
  C        3.2289120    -0.9370400    -0.0704660
  H       -0.2424870     0.2042160     1.4320630
  H       -0.3042490     1.6964080     0.4822290
  H       -0.9505240     0.3810480    -1.5282220
  H       -0.6173950    -1.1275390    -0.6764200
  H        3.4625260    -1.9695390     0.1897820
  H        3.8993660    -0.2498350     0.4514950
  H        3.3382080    -0.7798600    -1.1461020
units angstrom
no_reorient  #important for SAPT in psi4, default
symmetry c1  #important for SAPT in psi4, default
}

set PROPERTIES_ORIGIN ["COM"]
properties('MP2/aug-cc-pvtz', properties = ['dipole'])
--------------------------------------------------------------------------

    Molecular point group: c1
  Charge       = -1
  Multiplicity = 1
  Basis Set: AUG-CC-PVTZ
    Blend: AUG-CC-PVTZ
  Basis Set: (AUG-CC-PVTZ AUX)
    Blend: AUG-CC-PVTZ-JKFIT

    Orbital Energies [Eh]
    ---------------------

    Doubly Occupied:

       1A    -20.521318     2A    -20.412559     3A    -20.308651
       4A    -20.306789     5A    -11.270271     6A    -11.203590
       7A    -11.155078     8A    -11.100815     9A    -11.080703
      10A     -1.379242    11A     -1.182031    12A     -1.177404
      13A     -1.081269    14A     -0.941722    15A     -0.876869
      16A     -0.759219    17A     -0.682379    18A     -0.589594
      19A     -0.581210    20A     -0.552222    21A     -0.531565
      22A     -0.479219    23A     -0.472113    24A     -0.451722
      25A     -0.431651    26A     -0.416955    27A     -0.401702
      28A     -0.389726    29A     -0.361995    30A     -0.336156
      31A     -0.324201    32A     -0.315602    33A     -0.225520
      34A     -0.209989    35A     -0.208110

  @DF-RHF Final Energy:  -493.08245479366695

   => Energetics <=

    Nuclear Repulsion Energy =            434.9326531094519055
    One-Electron Energy =               -1550.5918941661175268
    Two-Electron Energy =                 622.5767862629987803
    Total Energy =                       -493.0824547936668978
  Basis Set: (AUG-CC-PVTZ AUX)
    Blend: AUG-CC-PVTZ-RI
    Molecular point group: c1

    Geometry (in Angstrom), charge = -1, multiplicity = 1:

       Center              X                  Y                   Z               Mass
    ------------   -----------------  -----------------  -----------------  -----------------
         O            1.935394561403    -0.749162548121     0.320808206177    15.994914619570
         O            2.165753561403     1.368267451879    -0.448770793823    15.994914619570
         O           -3.244308438597    -0.358797548121    -0.954634793823    15.994914619570
         O           -2.534949438597    -0.033003548121     1.199711206177    15.994914619570
         C            0.009940561403     0.625876451879     0.427001206177    12.000000000000
         C           -0.906737438597    -0.104325548121    -0.561198793823    12.000000000000
         C            1.474049461403     0.439896951879     0.195035606177    12.000000000000
         C           -2.390445438597    -0.160411548121    -0.050035793823    12.000000000000
         C            3.291886561403    -0.944603548121    -0.089141793823    12.000000000000
         H           -0.179512438597     0.196652451879     1.413387206177     1.007825032230
         H           -0.241274438597     1.688844451879     0.463553206177     1.007825032230
         H           -0.887549438597     0.373484451879    -1.546897793823     1.007825032230
         H           -0.554420438597    -1.135102548121    -0.695095793823     1.007825032230
         H            3.525500561403    -1.977102548121     0.171106206177     1.007825032230
         H            3.962340561403    -0.257398548121     0.432819206177     1.007825032230
         H            3.401182561403    -0.787423548121    -1.164777793823     1.007825032230

  Basis Set: AUG-CC-PVTZ
    Blend: AUG-CC-PVTZ
  Basis Set: (AUG-CC-PVTZ AUX)
    Blend: AUG-CC-PVTZ-JKFIT
	 Reference Energy          =    -493.0824547936669546 [Eh]
	 Singles Energy            =      -0.0000000000000000 [Eh]
	 Same-Spin Energy          =      -0.4852813414725605 [Eh]
	 Opposite-Spin Energy      =      -1.4789205086402537 [Eh]
	 Correlation Energy        =      -1.9642018501128142 [Eh]
	 Total Energy              =    -495.0466566437797837 [Eh]

	 ================> DF-SCS-MP2 Energies <==================
	-----------------------------------------------------------
	 SCS Same-Spin Scale       =       0.3333333333333333 [-]
	 SCS Opposite-Spin Scale   =       1.2000000000000000 [-]
	 SCS Same-Spin Energy      =      -0.1617604471575202 [Eh]
	 SCS Opposite-Spin Energy  =      -1.7747046103683044 [Eh]
	 SCS Correlation Energy    =      -1.9364650575258247 [Eh]
	 SCS Total Energy          =    -495.0189198511927771 [Eh]
	-----------------------------------------------------------

  Dipole Moment: [D]
     X:    11.5122      Y:    -1.5654      Z:     0.2512     Total:    11.6208

*** Psi4 exiting successfully. Buy a developer a beer!
