                               Psi4 1.4a3.dev225

  ==> Input File <==

--------------------------------------------------------------------------
#psi4
#
memory 32 gb

molecule  {
-1 1
  O        1.8509578    -0.7477683     0.3482188
  O        2.1027790     1.3758310    -0.4300950
  O       -3.3072830    -0.3512340    -0.9359590
  O       -2.5979240    -0.0254400     1.2183870
  C       -0.0530340     0.6334400     0.4456770
  C       -0.9697120    -0.0967620    -0.5425230
  C        1.3896910     0.5173160     0.0754460
  C       -2.4534200    -0.1528480    -0.0313600
  C        3.2289120    -0.9370400    -0.0704660
  H       -0.2424870     0.2042160     1.4320630
  H       -0.3042490     1.6964080     0.4822290
  H       -0.9505240     0.3810480    -1.5282220
  H       -0.6173950    -1.1275390    -0.6764200
  H        3.4625260    -1.9695390     0.1897820
  H        3.8993660    -0.2498350     0.4514950
  H        3.3382080    -0.7798600    -1.1461020
units angstrom
no_reorient  #important for SAPT in psi4, default
symmetry c1  #important for SAPT in psi4, default
}

set PROPERTIES_ORIGIN ["COM"]
properties('MP2/aug-cc-pvtz', properties = ['dipole'])
--------------------------------------------------------------------------

    Molecular point group: c1
  Charge       = -1
  Multiplicity = 1
  Basis Set: AUG-CC-PVTZ
    Blend: AUG-CC-PVTZ
  Basis Set: (AUG-CC-PVTZ AUX)
    Blend: AUG-CC-PVTZ-JKFIT

    Orbital Energies [Eh]
    ---------------------

    Doubly Occupied:

       1A    -20.497695     2A    -20.435187     3A    -20.308443
       4A    -20.305954     5A    -11.265854     6A    -11.193349
       7A    -11.154096     8A    -11.099287     9A    -11.078839
      10A     -1.338792    11A     -1.238636    12A     -1.176885
      13A     -1.080725    14A     -0.933888    15A     -0.856499
      16A     -0.756346    17A     -0.660309    18A     -0.575490
      19A     -0.567503    20A     -0.557954    21A     -0.529316
      22A     -0.487173    23A     -0.463476    24A     -0.452774
      25A     -0.433176    26A     -0.419869    27A     -0.411266
      28A     -0.385791    29A     -0.361796    30A     -0.352880
      31A     -0.337476    32A     -0.327118    33A     -0.225314
      34A     -0.208679    35A     -0.207620

  @DF-RHF Final Energy:  -493.10680205893982

   => Energetics <=

    Nuclear Repulsion Energy =            434.9411061371067717
    One-Electron Energy =               -1550.7249081770801240
    Two-Electron Energy =                 622.6769999810335321
    Total Energy =                       -493.1068020589398202
  Basis Set: (AUG-CC-PVTZ AUX)
    Blend: AUG-CC-PVTZ-RI
    Molecular point group: c1

    Geometry (in Angstrom), charge = -1, multiplicity = 1:

       Center              X                  Y                   Z               Mass
    ------------   -----------------  -----------------  -----------------  -----------------
         O            1.918510492812    -0.760976078819     0.341138984248    15.994914619570
         O            2.170331692812     1.362623221181    -0.437174815752    15.994914619570
         O           -3.239730307188    -0.364441778819    -0.943038815752    15.994914619570
         O           -2.530371307188    -0.038647778819     1.211307184248    15.994914619570
         C            0.014518692812     0.620232221181     0.438597184248    12.000000000000
         C           -0.902159307188    -0.109969778819    -0.549602815752    12.000000000000
         C            1.457243692812     0.504108221181     0.068366184248    12.000000000000
         C           -2.385867307188    -0.166055778819    -0.038439815752    12.000000000000
         C            3.296464692812    -0.950247778819    -0.077545815752    12.000000000000
         H           -0.174934307188     0.191008221181     1.424983184248     1.007825032230
         H           -0.236696307188     1.683200221181     0.475149184248     1.007825032230
         H           -0.882971307188     0.367840221181    -1.535301815752     1.007825032230
         H           -0.549842307188    -1.140746778819    -0.683499815752     1.007825032230
         H            3.530078692812    -1.982746778819     0.182702184248     1.007825032230
         H            3.966918692812    -0.263042778819     0.444415184248     1.007825032230
         H            3.405760692812    -0.793067778819    -1.153181815752     1.007825032230

  Basis Set: AUG-CC-PVTZ
    Blend: AUG-CC-PVTZ
  Basis Set: (AUG-CC-PVTZ AUX)
    Blend: AUG-CC-PVTZ-JKFIT
	 Reference Energy          =    -493.1068020589398202 [Eh]
	 Singles Energy            =      -0.0000000000000000 [Eh]
	 Same-Spin Energy          =      -0.4839728921290254 [Eh]
	 Opposite-Spin Energy      =      -1.4767626002987586 [Eh]
	 Correlation Energy        =      -1.9607354924277840 [Eh]
	 Total Energy              =    -495.0675375513675931 [Eh]

	 ================> DF-SCS-MP2 Energies <==================
	-----------------------------------------------------------
	 SCS Same-Spin Scale       =       0.3333333333333333 [-]
	 SCS Opposite-Spin Scale   =       1.2000000000000000 [-]
	 SCS Same-Spin Energy      =      -0.1613242973763418 [Eh]
	 SCS Opposite-Spin Energy  =      -1.7721151203585104 [Eh]
	 SCS Correlation Energy    =      -1.9334394177348522 [Eh]
	 SCS Total Energy          =    -495.0402414766746801 [Eh]
	-----------------------------------------------------------

  Dipole Moment: [D]
     X:    11.4270      Y:    -0.7385      Z:    -0.1019     Total:    11.4513

*** Psi4 exiting successfully. Buy a developer a beer!
