                               Psi4 1.4a3.dev225

  ==> Input File <==

--------------------------------------------------------------------------
#psi4
#
memory 32 gb

molecule  {
-1 1
  O        1.8724200    -0.7415990     0.3394840
  O        2.1027790     1.3758310    -0.4300950
  O       -3.3072830    -0.3512340    -0.9359590
  O       -2.5979240    -0.0254400     1.2183870
  C       -0.0530340     0.6334400     0.4456770
  C       -0.9697120    -0.0967620    -0.5425230
  C        1.3896910     0.5173160     0.0754460
  C       -2.4534200    -0.1528480    -0.0313600
  C        3.2289120    -0.9370400    -0.0704660
  H       -0.2481569     0.2213368     1.4382399
  H       -0.3042490     1.6964080     0.4822290
  H       -0.9505240     0.3810480    -1.5282220
  H       -0.6173950    -1.1275390    -0.6764200
  H        3.4625260    -1.9695390     0.1897820
  H        3.8993660    -0.2498350     0.4514950
  H        3.3382080    -0.7798600    -1.1461020
units angstrom
no_reorient  #important for SAPT in psi4, default
symmetry c1  #important for SAPT in psi4, default
}

set PROPERTIES_ORIGIN ["COM"]
properties('MP2/aug-cc-pvtz', properties = ['dipole'])
--------------------------------------------------------------------------

    Molecular point group: c1
  Charge       = -1
  Multiplicity = 1
  Basis Set: AUG-CC-PVTZ
    Blend: AUG-CC-PVTZ
  Basis Set: (AUG-CC-PVTZ AUX)
    Blend: AUG-CC-PVTZ-JKFIT

    Orbital Energies [Eh]
    ---------------------

    Doubly Occupied:

       1A    -20.496196     2A    -20.434865     3A    -20.308997
       4A    -20.306453     5A    -11.266601     6A    -11.190975
       7A    -11.154675     8A    -11.100644     9A    -11.079598
      10A     -1.342339    11A     -1.239827    12A     -1.177419
      13A     -1.081257    14A     -0.935193    15A     -0.857294
      16A     -0.756724    17A     -0.662328    18A     -0.577142
      19A     -0.568756    20A     -0.560911    21A     -0.530463
      22A     -0.487428    23A     -0.465818    24A     -0.452200
      25A     -0.431210    26A     -0.419097    27A     -0.411502
      28A     -0.386174    29A     -0.360849    30A     -0.353383
      31A     -0.338218    32A     -0.327502    33A     -0.225846
      34A     -0.209268    35A     -0.208136

  @DF-RHF Final Energy:  -493.10840271864117

   => Energetics <=

    Nuclear Repulsion Energy =            435.0986981970178817
    One-Electron Energy =               -1551.0036255034581245
    Two-Electron Energy =                 622.7965245877990128
    Total Energy =                       -493.1084027186411731
  Basis Set: (AUG-CC-PVTZ AUX)
    Blend: AUG-CC-PVTZ-RI
    Molecular point group: c1

    Geometry (in Angstrom), charge = -1, multiplicity = 1:

       Center              X                  Y                   Z               Mass
    ------------   -----------------  -----------------  -----------------  -----------------
         O            1.937396486086    -0.755691524869     0.333422902321    15.994914619570
         O            2.167755486086     1.361738475131    -0.436156097679    15.994914619570
         O           -3.242306513914    -0.365326524869    -0.942020097679    15.994914619570
         O           -2.532947513914    -0.039532524869     1.212325902321    15.994914619570
         C            0.011942486086     0.619347475131     0.439615902321    12.000000000000
         C           -0.904735513914    -0.110854524869    -0.548584097679    12.000000000000
         C            1.454667486086     0.503223475131     0.069384902321    12.000000000000
         C           -2.388443513914    -0.166940524869    -0.037421097679    12.000000000000
         C            3.293888486086    -0.951132524869    -0.076527097679    12.000000000000
         H           -0.183180413914     0.207244275131     1.432178802321     1.007825032230
         H           -0.239272513914     1.682315475131     0.476167902321     1.007825032230
         H           -0.885547513914     0.366955475131    -1.534283097679     1.007825032230
         H           -0.552418513914    -1.141631524869    -0.682481097679     1.007825032230
         H            3.527502486086    -1.983631524869     0.183720902321     1.007825032230
         H            3.964342486086    -0.263927524869     0.445433902321     1.007825032230
         H            3.403184486086    -0.793952524869    -1.152163097679     1.007825032230

  Basis Set: AUG-CC-PVTZ
    Blend: AUG-CC-PVTZ
  Basis Set: (AUG-CC-PVTZ AUX)
    Blend: AUG-CC-PVTZ-JKFIT
	 Reference Energy          =    -493.1084027186411731 [Eh]
	 Singles Energy            =      -0.0000000000000000 [Eh]
	 Same-Spin Energy          =      -0.4837441404404861 [Eh]
	 Opposite-Spin Energy      =      -1.4759775439589191 [Eh]
	 Correlation Energy        =      -1.9597216843994052 [Eh]
	 Total Energy              =    -495.0681244030405992 [Eh]

	 ================> DF-SCS-MP2 Energies <==================
	-----------------------------------------------------------
	 SCS Same-Spin Scale       =       0.3333333333333333 [-]
	 SCS Opposite-Spin Scale   =       1.2000000000000000 [-]
	 SCS Same-Spin Energy      =      -0.1612480468134954 [Eh]
	 SCS Opposite-Spin Energy  =      -1.7711730527507028 [Eh]
	 SCS Correlation Energy    =      -1.9324210995641982 [Eh]
	 SCS Total Energy          =    -495.0408238182053537 [Eh]
	-----------------------------------------------------------

  Dipole Moment: [D]
     X:    11.3434      Y:    -0.7240      Z:    -0.0821     Total:    11.3668

*** Psi4 exiting successfully. Buy a developer a beer!
