                               Psi4 1.4a3.dev225

  ==> Input File <==

--------------------------------------------------------------------------
#psi4
#
memory 32 gb

molecule  {
-1 1
  O        1.8724200    -0.7415990     0.3394840
  O        2.1027790     1.3758310    -0.4300950
  O       -3.3072830    -0.3512340    -0.9359590
  O       -2.5979240    -0.0254400     1.2183870
  C       -0.0530340     0.6334400     0.4456770
  C       -0.9697120    -0.0967620    -0.5425230
  C        1.3896910     0.5173160     0.0754460
  C       -2.4477062    -0.1578858    -0.0807763
  C        3.2289120    -0.9370400    -0.0704660
  H       -0.2424870     0.2042160     1.4320630
  H       -0.3042490     1.6964080     0.4822290
  H       -0.9505240     0.3810480    -1.5282220
  H       -0.6173950    -1.1275390    -0.6764200
  H        3.4625260    -1.9695390     0.1897820
  H        3.8993660    -0.2498350     0.4514950
  H        3.3382080    -0.7798600    -1.1461020
units angstrom
no_reorient  #important for SAPT in psi4, default
symmetry c1  #important for SAPT in psi4, default
}

set PROPERTIES_ORIGIN ["COM"]
properties('MP2/aug-cc-pvtz', properties = ['dipole'])
--------------------------------------------------------------------------

    Molecular point group: c1
  Charge       = -1
  Multiplicity = 1
  Basis Set: AUG-CC-PVTZ
    Blend: AUG-CC-PVTZ
  Basis Set: (AUG-CC-PVTZ AUX)
    Blend: AUG-CC-PVTZ-JKFIT

    Orbital Energies [Eh]
    ---------------------

    Doubly Occupied:

       1A    -20.496663     2A    -20.435455     3A    -20.315852
       4A    -20.297171     5A    -11.267030     6A    -11.191306
       7A    -11.154194     8A    -11.101290     9A    -11.081900
      10A     -1.342826    11A     -1.240334    12A     -1.181847
      13A     -1.066594    14A     -0.936015    15A     -0.858390
      16A     -0.761623    17A     -0.662917    18A     -0.576873
      19A     -0.569684    20A     -0.561483    21A     -0.531708
      22A     -0.488445    23A     -0.467296    24A     -0.452441
      25A     -0.432214    26A     -0.419939    27A     -0.410690
      28A     -0.388217    29A     -0.360252    30A     -0.351276
      31A     -0.338501    32A     -0.326645    33A     -0.221168
      34A     -0.211129    35A     -0.203620

  @DF-RHF Final Energy:  -493.10416597781108

   => Energetics <=

    Nuclear Repulsion Energy =            435.0668421490455557
    One-Electron Energy =               -1550.9360387593699215
    Two-Electron Energy =                 622.7650306325131169
    Total Energy =                       -493.1041659778111352
  Basis Set: (AUG-CC-PVTZ AUX)
    Blend: AUG-CC-PVTZ-RI
    Molecular point group: c1

    Geometry (in Angstrom), charge = -1, multiplicity = 1:

       Center              X                  Y                   Z               Mass
    ------------   -----------------  -----------------  -----------------  -----------------
         O            1.936829613204    -0.755098487080     0.337995905138    15.994914619570
         O            2.167188613204     1.362331512920    -0.431583094862    15.994914619570
         O           -3.242873386796    -0.364733487080    -0.937447094862    15.994914619570
         O           -2.533514386796    -0.038939487080     1.216898905138    15.994914619570
         C            0.011375613204     0.619940512920     0.444188905138    12.000000000000
         C           -0.905302386796    -0.110261487080    -0.544011094862    12.000000000000
         C            1.454100613204     0.503816512920     0.073957905138    12.000000000000
         C           -2.383296586796    -0.171385287080    -0.082264394862    12.000000000000
         C            3.293321613204    -0.950539487080    -0.071954094862    12.000000000000
         H           -0.178077386796     0.190716512920     1.430574905138     1.007825032230
         H           -0.239839386796     1.682908512920     0.480740905138     1.007825032230
         H           -0.886114386796     0.367548512920    -1.529710094862     1.007825032230
         H           -0.552985386796    -1.141038487080    -0.677908094862     1.007825032230
         H            3.526935613204    -1.983038487080     0.188293905138     1.007825032230
         H            3.963775613204    -0.263334487080     0.450006905138     1.007825032230
         H            3.402617613204    -0.793359487080    -1.147590094862     1.007825032230

  Basis Set: AUG-CC-PVTZ
    Blend: AUG-CC-PVTZ
  Basis Set: (AUG-CC-PVTZ AUX)
    Blend: AUG-CC-PVTZ-JKFIT
	 Reference Energy          =    -493.1041659778110784 [Eh]
	 Singles Energy            =      -0.0000000000000000 [Eh]
	 Same-Spin Energy          =      -0.4839548043640013 [Eh]
	 Opposite-Spin Energy      =      -1.4766517554752348 [Eh]
	 Correlation Energy        =      -1.9606065598392362 [Eh]
	 Total Energy              =    -495.0647725376502990 [Eh]

	 ================> DF-SCS-MP2 Energies <==================
	-----------------------------------------------------------
	 SCS Same-Spin Scale       =       0.3333333333333333 [-]
	 SCS Opposite-Spin Scale   =       1.2000000000000000 [-]
	 SCS Same-Spin Energy      =      -0.1613182681213338 [Eh]
	 SCS Opposite-Spin Energy  =      -1.7719821065702817 [Eh]
	 SCS Correlation Energy    =      -1.9333003746916153 [Eh]
	 SCS Total Energy          =    -495.0374663525026904 [Eh]
	-----------------------------------------------------------

  Dipole Moment: [D]
     X:    11.3502      Y:    -0.7829      Z:    -0.5613     Total:    11.3910

*** Psi4 exiting successfully. Buy a developer a beer!
