                               Psi4 1.4a3.dev225

  ==> Input File <==

--------------------------------------------------------------------------
#psi4
#
memory 32 gb

molecule  {
-1 1
  O        1.8724200    -0.7415990     0.3394840
  O        2.1027790     1.3758310    -0.4300950
  O       -3.3072830    -0.3512340    -0.9359590
  O       -2.5979240    -0.0254400     1.2183870
  C       -0.0530340     0.6334400     0.4456770
  C       -0.9820579    -0.0736212    -0.5478077
  C        1.3896910     0.5173160     0.0754460
  C       -2.4534200    -0.1528480    -0.0313600
  C        3.2289120    -0.9370400    -0.0704660
  H       -0.2424870     0.2042160     1.4320630
  H       -0.3042490     1.6964080     0.4822290
  H       -0.9505240     0.3810480    -1.5282220
  H       -0.6173950    -1.1275390    -0.6764200
  H        3.4625260    -1.9695390     0.1897820
  H        3.8993660    -0.2498350     0.4514950
  H        3.3382080    -0.7798600    -1.1461020
units angstrom
no_reorient  #important for SAPT in psi4, default
symmetry c1  #important for SAPT in psi4, default
}

set PROPERTIES_ORIGIN ["COM"]
properties('MP2/aug-cc-pvtz', properties = ['dipole'])
--------------------------------------------------------------------------

    Molecular point group: c1
  Charge       = -1
  Multiplicity = 1
  Basis Set: AUG-CC-PVTZ
    Blend: AUG-CC-PVTZ
  Basis Set: (AUG-CC-PVTZ AUX)
    Blend: AUG-CC-PVTZ-JKFIT

    Orbital Energies [Eh]
    ---------------------

    Doubly Occupied:

       1A    -20.496387     2A    -20.435079     3A    -20.308800
       4A    -20.305981     5A    -11.266834     6A    -11.191090
       7A    -11.154184     8A    -11.100832     9A    -11.080520
      10A     -1.342516    11A     -1.240022    12A     -1.177512
      13A     -1.081141    14A     -0.935337    15A     -0.857647
      16A     -0.757213    17A     -0.662291    18A     -0.577096
      19A     -0.568863    20A     -0.560955    21A     -0.531775
      22A     -0.487741    23A     -0.465319    24A     -0.452519
      25A     -0.431633    26A     -0.419843    27A     -0.411423
      28A     -0.384475    29A     -0.361750    30A     -0.354862
      31A     -0.337266    32A     -0.325158    33A     -0.225819
      34A     -0.210122    35A     -0.207976

  @DF-RHF Final Energy:  -493.10786739806849

   => Energetics <=

    Nuclear Repulsion Energy =            435.1354554173944962
    One-Electron Energy =               -1551.0706829263961026
    Two-Electron Energy =                 622.8273601109331139
    Total Energy =                       -493.1078673980684925
  Basis Set: (AUG-CC-PVTZ AUX)
    Blend: AUG-CC-PVTZ-RI
    Molecular point group: c1

    Geometry (in Angstrom), charge = -1, multiplicity = 1:

       Center              X                  Y                   Z               Mass
    ------------   -----------------  -----------------  -----------------  -----------------
         O            1.938483502139    -0.757679054572     0.333954378151    15.994914619570
         O            2.168842502139     1.359750945428    -0.435624621849    15.994914619570
         O           -3.241219497861    -0.367314054572    -0.941488621849    15.994914619570
         O           -2.531860497861    -0.041520054572     1.212857378151    15.994914619570
         C            0.013029502139     0.617359945428     0.440147378151    12.000000000000
         C           -0.915994397861    -0.089701254572    -0.553337321849    12.000000000000
         C            1.455754502139     0.501235945428     0.069916378151    12.000000000000
         C           -2.387356497861    -0.168928054572    -0.036889621849    12.000000000000
         C            3.294975502139    -0.953120054572    -0.075995621849    12.000000000000
         H           -0.176423497861     0.188135945428     1.426533378151     1.007825032230
         H           -0.238185497861     1.680327945428     0.476699378151     1.007825032230
         H           -0.884460497861     0.364967945428    -1.533751621849     1.007825032230
         H           -0.551331497861    -1.143619054572    -0.681949621849     1.007825032230
         H            3.528589502139    -1.985619054572     0.184252378151     1.007825032230
         H            3.965429502139    -0.265915054572     0.445965378151     1.007825032230
         H            3.404271502139    -0.795940054572    -1.151631621849     1.007825032230

  Basis Set: AUG-CC-PVTZ
    Blend: AUG-CC-PVTZ
  Basis Set: (AUG-CC-PVTZ AUX)
    Blend: AUG-CC-PVTZ-JKFIT
	 Reference Energy          =    -493.1078673980684925 [Eh]
	 Singles Energy            =      -0.0000000000000000 [Eh]
	 Same-Spin Energy          =      -0.4837420313026539 [Eh]
	 Opposite-Spin Energy      =      -1.4759748783877658 [Eh]
	 Correlation Energy        =      -1.9597169096904197 [Eh]
	 Total Energy              =    -495.0675843077589207 [Eh]

	 ================> DF-SCS-MP2 Energies <==================
	-----------------------------------------------------------
	 SCS Same-Spin Scale       =       0.3333333333333333 [-]
	 SCS Opposite-Spin Scale   =       1.2000000000000000 [-]
	 SCS Same-Spin Energy      =      -0.1612473437675513 [Eh]
	 SCS Opposite-Spin Energy  =      -1.7711698540653189 [Eh]
	 SCS Correlation Energy    =      -1.9324171978328701 [Eh]
	 SCS Total Energy          =    -495.0402845959013689 [Eh]
	-----------------------------------------------------------

  Dipole Moment: [D]
     X:    11.3663      Y:    -0.6951      Z:    -0.1019     Total:    11.3880

*** Psi4 exiting successfully. Buy a developer a beer!
