                               Psi4 1.4a3.dev225

  ==> Input File <==

--------------------------------------------------------------------------
#psi4
#
memory 32 gb

molecule  {
-1 1
  O        1.8724200    -0.7415990     0.3394840
  O        2.1027790     1.3758310    -0.4300950
  O       -3.3072830    -0.3512340    -0.9359590
  O       -2.5979240    -0.0254400     1.2183870
  C       -0.1384858     0.6479706     0.5084143
  C       -0.9697120    -0.0967620    -0.5425230
  C        1.3896910     0.5173160     0.0754460
  C       -2.4534200    -0.1528480    -0.0313600
  C        3.2289120    -0.9370400    -0.0704660
  H       -0.2424870     0.2042160     1.4320630
  H       -0.3042490     1.6964080     0.4822290
  H       -0.9505240     0.3810480    -1.5282220
  H       -0.6173950    -1.1275390    -0.6764200
  H        3.4625260    -1.9695390     0.1897820
  H        3.8993660    -0.2498350     0.4514950
  H        3.3382080    -0.7798600    -1.1461020
units angstrom
no_reorient  #important for SAPT in psi4, default
symmetry c1  #important for SAPT in psi4, default
}

set PROPERTIES_ORIGIN ["COM"]
properties('MP2/aug-cc-pvtz', properties = ['dipole'])
--------------------------------------------------------------------------

    Molecular point group: c1
  Charge       = -1
  Multiplicity = 1
  Basis Set: AUG-CC-PVTZ
    Blend: AUG-CC-PVTZ
  Basis Set: (AUG-CC-PVTZ AUX)
    Blend: AUG-CC-PVTZ-JKFIT

    Orbital Energies [Eh]
    ---------------------

    Doubly Occupied:

       1A    -20.495403     2A    -20.434270     3A    -20.308365
       4A    -20.304863     5A    -11.265425     6A    -11.190193
       7A    -11.152512     8A    -11.102483     9A    -11.077959
      10A     -1.339650    11A     -1.237954    12A     -1.176838
      13A     -1.080639    14A     -0.925917    15A     -0.857563
      16A     -0.748573    17A     -0.663432    18A     -0.574604
      19A     -0.566096    20A     -0.558999    21A     -0.528445
      22A     -0.497558    23A     -0.463052    24A     -0.448385
      25A     -0.430383    26A     -0.415782    27A     -0.410785
      28A     -0.395392    29A     -0.367018    30A     -0.356587
      31A     -0.332802    32A     -0.322904    33A     -0.225178
      34A     -0.207642    35A     -0.205587

  @DF-RHF Final Energy:  -493.09923370422530

   => Energetics <=

    Nuclear Repulsion Energy =            434.2280021573316731
    One-Electron Energy =               -1549.3160017992292978
    Two-Electron Energy =                 621.9887659376722695
    Total Energy =                       -493.0992337042252984
  Basis Set: (AUG-CC-PVTZ AUX)
    Blend: AUG-CC-PVTZ-RI
    Molecular point group: c1

    Geometry (in Angstrom), charge = -1, multiplicity = 1:

       Center              X                  Y                   Z               Mass
    ------------   -----------------  -----------------  -----------------  -----------------
         O            1.945178466014    -0.756890541224     0.327724992661    15.994914619570
         O            2.175537466014     1.360539458776    -0.441854007339    15.994914619570
         O           -3.234524533986    -0.366525541224    -0.947718007339    15.994914619570
         O           -2.525165533986    -0.040731541224     1.206627992661    15.994914619570
         C           -0.065727333986     0.632679058776     0.496655292661    12.000000000000
         C           -0.896953533986    -0.112053541224    -0.554282007339    12.000000000000
         C            1.462449466014     0.502024458776     0.063686992661    12.000000000000
         C           -2.380661533986    -0.168139541224    -0.043119007339    12.000000000000
         C            3.301670466014    -0.952331541224    -0.082225007339    12.000000000000
         H           -0.169728533986     0.188924458776     1.420303992661     1.007825032230
         H           -0.231490533986     1.681116458776     0.470469992661     1.007825032230
         H           -0.877765533986     0.365756458776    -1.539981007339     1.007825032230
         H           -0.544636533986    -1.142830541224    -0.688179007339     1.007825032230
         H            3.535284466014    -1.984830541224     0.178022992661     1.007825032230
         H            3.972124466014    -0.265126541224     0.439735992661     1.007825032230
         H            3.410966466014    -0.795151541224    -1.157861007339     1.007825032230

  Basis Set: AUG-CC-PVTZ
    Blend: AUG-CC-PVTZ
  Basis Set: (AUG-CC-PVTZ AUX)
    Blend: AUG-CC-PVTZ-JKFIT
	 Reference Energy          =    -493.0992337042252984 [Eh]
	 Singles Energy            =      -0.0000000000000000 [Eh]
	 Same-Spin Energy          =      -0.4831739412880107 [Eh]
	 Opposite-Spin Energy      =      -1.4756787045394444 [Eh]
	 Correlation Energy        =      -1.9588526458274551 [Eh]
	 Total Energy              =    -495.0580863500527471 [Eh]

	 ================> DF-SCS-MP2 Energies <==================
	-----------------------------------------------------------
	 SCS Same-Spin Scale       =       0.3333333333333333 [-]
	 SCS Opposite-Spin Scale   =       1.2000000000000000 [-]
	 SCS Same-Spin Energy      =      -0.1610579804293369 [Eh]
	 SCS Opposite-Spin Energy  =      -1.7708144454473331 [Eh]
	 SCS Correlation Energy    =      -1.9318724258766700 [Eh]
	 SCS Total Energy          =    -495.0311061301019890 [Eh]
	-----------------------------------------------------------

  Dipole Moment: [D]
     X:    11.3774      Y:    -0.6990      Z:    -0.0505     Total:    11.3990

*** Psi4 exiting successfully. Buy a developer a beer!
