                               Psi4 1.4a3.dev225

  ==> Input File <==

--------------------------------------------------------------------------
#psi4
#
memory 32 gb

molecule  {
-1 1
  O        1.8724200    -0.7415990     0.3394840
  O        2.1027790     1.3758310    -0.4300950
  O       -3.3072830    -0.3512340    -0.9359590
  O       -2.5979240    -0.0254400     1.2183870
  C       -0.0530340     0.6334400     0.4456770
  C       -0.9697120    -0.0967620    -0.5425230
  C        1.3896910     0.5173160     0.0754460
  C       -2.4591338    -0.1478102     0.0180563
  C        3.2289120    -0.9370400    -0.0704660
  H       -0.2424870     0.2042160     1.4320630
  H       -0.3042490     1.6964080     0.4822290
  H       -0.9505240     0.3810480    -1.5282220
  H       -0.6173950    -1.1275390    -0.6764200
  H        3.4625260    -1.9695390     0.1897820
  H        3.8993660    -0.2498350     0.4514950
  H        3.3382080    -0.7798600    -1.1461020
units angstrom
no_reorient  #important for SAPT in psi4, default
symmetry c1  #important for SAPT in psi4, default
}

set PROPERTIES_ORIGIN ["COM"]
properties('MP2/aug-cc-pvtz', properties = ['dipole'])
--------------------------------------------------------------------------

    Molecular point group: c1
  Charge       = -1
  Multiplicity = 1
  Basis Set: AUG-CC-PVTZ
    Blend: AUG-CC-PVTZ
  Basis Set: (AUG-CC-PVTZ AUX)
    Blend: AUG-CC-PVTZ-JKFIT

    Orbital Energies [Eh]
    ---------------------

    Doubly Occupied:

       1A    -20.495627     2A    -20.433948     3A    -20.321177
       4A    -20.297205     5A    -11.265745     6A    -11.190601
       7A    -11.154522     8A    -11.100232     9A    -11.077054
      10A     -1.341724    11A     -1.239116    12A     -1.194555
      13A     -1.078425    14A     -0.934520    15A     -0.856175
      16A     -0.751770    17A     -0.661338    18A     -0.576851
      19A     -0.567930    20A     -0.560095    21A     -0.530758
      22A     -0.488477    23A     -0.465663    24A     -0.452703
      25A     -0.432174    26A     -0.420873    27A     -0.411035
      28A     -0.387576    29A     -0.362122    30A     -0.354022
      31A     -0.339476    32A     -0.330712    33A     -0.229869
      34A     -0.208737    35A     -0.201486

  @DF-RHF Final Energy:  -493.10560990358380

   => Energetics <=

    Nuclear Repulsion Energy =            435.2288524017242253
    One-Electron Energy =               -1551.2403446411253753
    Two-Electron Energy =                 622.9058823358172958
    Total Energy =                       -493.1056099035838542
  Basis Set: (AUG-CC-PVTZ AUX)
    Blend: AUG-CC-PVTZ-RI
    Molecular point group: c1

    Geometry (in Angstrom), charge = -1, multiplicity = 1:

       Center              X                  Y                   Z               Mass
    ------------   -----------------  -----------------  -----------------  -----------------
         O            1.937876141175    -0.756021200267     0.328944916276    15.994914619570
         O            2.168235141175     1.361408799733    -0.440634083724    15.994914619570
         O           -3.241826858825    -0.365656200267    -0.946498083724    15.994914619570
         O           -2.532467858825    -0.039862200267     1.207847916276    15.994914619570
         C            0.012422141175     0.619017799733     0.435137916276    12.000000000000
         C           -0.904255858825    -0.111184200267    -0.553062083724    12.000000000000
         C            1.455147141175     0.502893799733     0.064906916276    12.000000000000
         C           -2.393677658825    -0.162232400267     0.007517216276    12.000000000000
         C            3.294368141175    -0.951462200267    -0.081005083724    12.000000000000
         H           -0.177030858825     0.189793799733     1.421523916276     1.007825032230
         H           -0.238792858825     1.681985799733     0.471689916276     1.007825032230
         H           -0.885067858825     0.366625799733    -1.538761083724     1.007825032230
         H           -0.551938858825    -1.141961200267    -0.686959083724     1.007825032230
         H            3.527982141175    -1.983961200267     0.179242916276     1.007825032230
         H            3.964822141175    -0.264257200267     0.440955916276     1.007825032230
         H            3.403664141175    -0.794282200267    -1.156641083724     1.007825032230

  Basis Set: AUG-CC-PVTZ
    Blend: AUG-CC-PVTZ
  Basis Set: (AUG-CC-PVTZ AUX)
    Blend: AUG-CC-PVTZ-JKFIT
	 Reference Energy          =    -493.1056099035837974 [Eh]
	 Singles Energy            =      -0.0000000000000000 [Eh]
	 Same-Spin Energy          =      -0.4835453474318706 [Eh]
	 Opposite-Spin Energy      =      -1.4753625883020001 [Eh]
	 Correlation Energy        =      -1.9589079357338708 [Eh]
	 Total Energy              =    -495.0645178393176593 [Eh]

	 ================> DF-SCS-MP2 Energies <==================
	-----------------------------------------------------------
	 SCS Same-Spin Scale       =       0.3333333333333333 [-]
	 SCS Opposite-Spin Scale   =       1.2000000000000000 [-]
	 SCS Same-Spin Energy      =      -0.1611817824772902 [Eh]
	 SCS Opposite-Spin Energy  =      -1.7704351059623999 [Eh]
	 SCS Correlation Energy    =      -1.9316168884396900 [Eh]
	 SCS Total Energy          =    -495.0372267920234890 [Eh]
	-----------------------------------------------------------

  Dipole Moment: [D]
     X:    11.3345      Y:    -0.6753      Z:     0.4004     Total:    11.3617

*** Psi4 exiting successfully. Buy a developer a beer!
