                               Psi4 1.4a3.dev225

  ==> Input File <==

--------------------------------------------------------------------------
#psi4
#
memory 32 gb

molecule  {
-1 1
  O        1.8724200    -0.7415990     0.3394840
  O        2.1027790     1.3758310    -0.4300950
  O       -3.3987686    -0.3459237    -0.8411601
  O       -2.5979240    -0.0254400     1.2183870
  C       -0.0530340     0.6334400     0.4456770
  C       -0.9697120    -0.0967620    -0.5425230
  C        1.3896910     0.5173160     0.0754460
  C       -2.4534200    -0.1528480    -0.0313600
  C        3.2289120    -0.9370400    -0.0704660
  H       -0.2424870     0.2042160     1.4320630
  H       -0.3042490     1.6964080     0.4822290
  H       -0.9505240     0.3810480    -1.5282220
  H       -0.6173950    -1.1275390    -0.6764200
  H        3.4625260    -1.9695390     0.1897820
  H        3.8993660    -0.2498350     0.4514950
  H        3.3382080    -0.7798600    -1.1461020
units angstrom
no_reorient  #important for SAPT in psi4, default
symmetry c1  #important for SAPT in psi4, default
}

set PROPERTIES_ORIGIN ["COM"]
properties('MP2/aug-cc-pvtz', properties = ['dipole'])
--------------------------------------------------------------------------

    Molecular point group: c1
  Charge       = -1
  Multiplicity = 1
  Basis Set: AUG-CC-PVTZ
    Blend: AUG-CC-PVTZ
  Basis Set: (AUG-CC-PVTZ AUX)
    Blend: AUG-CC-PVTZ-JKFIT

    Orbital Energies [Eh]
    ---------------------

    Doubly Occupied:

       1A    -20.498296     2A    -20.437256     3A    -20.302256
       4A    -20.300646     5A    -11.269028     6A    -11.192554
       7A    -11.151432     8A    -11.104280     9A    -11.087033
      10A     -1.344515    11A     -1.242052    12A     -1.176478
      13A     -1.069791    14A     -0.938759    15A     -0.859879
      16A     -0.761291    17A     -0.664414    18A     -0.579160
      19A     -0.571012    20A     -0.562869    21A     -0.530184
      22A     -0.490030    23A     -0.468219    24A     -0.453146
      25A     -0.432874    26A     -0.419996    27A     -0.407645
      28A     -0.387581    29A     -0.361763    30A     -0.354551
      31A     -0.339755    32A     -0.328956    33A     -0.216201
      34A     -0.213507    35A     -0.200475

  @DF-RHF Final Energy:  -493.10629514754004

   => Energetics <=

    Nuclear Repulsion Energy =            434.6689047711393528
    One-Electron Energy =               -1550.1146370306928475
    Two-Electron Energy =                 622.3394371120135702
    Total Energy =                       -493.1062951475399814
  Basis Set: (AUG-CC-PVTZ AUX)
    Blend: AUG-CC-PVTZ-RI
    Molecular point group: c1

    Geometry (in Angstrom), charge = -1, multiplicity = 1:

       Center              X                  Y                   Z               Mass
    ------------   -----------------  -----------------  -----------------  -----------------
         O            1.948520204124    -0.756208053405     0.321898640839    15.994914619570
         O            2.178879204124     1.361221946595    -0.447680359161    15.994914619570
         O           -3.322668395876    -0.360532753405    -0.858745459161    15.994914619570
         O           -2.521823795876    -0.040049053405     1.200801640839    15.994914619570
         C            0.023066204124     0.618830946595     0.428091640839    12.000000000000
         C           -0.893611795876    -0.111371053405    -0.560108359161    12.000000000000
         C            1.465791204124     0.502706946595     0.057860640839    12.000000000000
         C           -2.377319795876    -0.167457053405    -0.048945359161    12.000000000000
         C            3.305012204124    -0.951649053405    -0.088051359161    12.000000000000
         H           -0.166386795876     0.189606946595     1.414477640839     1.007825032230
         H           -0.228148795876     1.681798946595     0.464643640839     1.007825032230
         H           -0.874423795876     0.366438946595    -1.545807359161     1.007825032230
         H           -0.541294795876    -1.142148053405    -0.694005359161     1.007825032230
         H            3.538626204124    -1.984148053405     0.172196640839     1.007825032230
         H            3.975466204124    -0.264444053405     0.433909640839     1.007825032230
         H            3.414308204124    -0.794469053405    -1.163687359161     1.007825032230

  Basis Set: AUG-CC-PVTZ
    Blend: AUG-CC-PVTZ
  Basis Set: (AUG-CC-PVTZ AUX)
    Blend: AUG-CC-PVTZ-JKFIT
	 Reference Energy          =    -493.1062951475400382 [Eh]
	 Singles Energy            =      -0.0000000000000000 [Eh]
	 Same-Spin Energy          =      -0.4835940121729341 [Eh]
	 Opposite-Spin Energy      =      -1.4758471877326249 [Eh]
	 Correlation Energy        =      -1.9594411999055590 [Eh]
	 Total Energy              =    -495.0657363474455792 [Eh]

	 ================> DF-SCS-MP2 Energies <==================
	-----------------------------------------------------------
	 SCS Same-Spin Scale       =       0.3333333333333333 [-]
	 SCS Opposite-Spin Scale   =       1.2000000000000000 [-]
	 SCS Same-Spin Energy      =      -0.1611980040576447 [Eh]
	 SCS Opposite-Spin Energy  =      -1.7710166252791499 [Eh]
	 SCS Correlation Energy    =      -1.9322146293367946 [Eh]
	 SCS Total Energy          =    -495.0385097768768219 [Eh]
	-----------------------------------------------------------

  Dipole Moment: [D]
     X:    11.7113      Y:    -0.7183      Z:    -0.2822     Total:    11.7367

*** Psi4 exiting successfully. Buy a developer a beer!
