                               Psi4 1.4a3.dev225

  ==> Input File <==

--------------------------------------------------------------------------
#psi4
#
memory 32 gb

molecule  {
-1 1
  O        1.8724200    -0.7415990     0.3394840
  O        2.1027790     1.3758310    -0.4300950
  O       -3.3072830    -0.3512340    -0.9359590
  O       -2.5979240    -0.0254400     1.2183870
  C       -0.0530340     0.6334400     0.4456770
  C       -0.9697120    -0.0967620    -0.5425230
  C        1.3896910     0.5173160     0.0754460
  C       -2.4534200    -0.1528480    -0.0313600
  C        3.2289120    -0.9370400    -0.0704660
  H       -0.2424870     0.2042160     1.4320630
  H       -0.3042490     1.6964080     0.4822290
  H       -0.9540268     0.2938222    -1.3482793
  H       -0.6173950    -1.1275390    -0.6764200
  H        3.4625260    -1.9695390     0.1897820
  H        3.8993660    -0.2498350     0.4514950
  H        3.3382080    -0.7798600    -1.1461020
units angstrom
no_reorient  #important for SAPT in psi4, default
symmetry c1  #important for SAPT in psi4, default
}

set PROPERTIES_ORIGIN ["COM"]
properties('MP2/aug-cc-pvtz', properties = ['dipole'])
--------------------------------------------------------------------------

    Molecular point group: c1
  Charge       = -1
  Multiplicity = 1
  Basis Set: AUG-CC-PVTZ
    Blend: AUG-CC-PVTZ
  Basis Set: (AUG-CC-PVTZ AUX)
    Blend: AUG-CC-PVTZ-JKFIT

    Orbital Energies [Eh]
    ---------------------

    Doubly Occupied:

       1A    -20.495881     2A    -20.434628     3A    -20.307258
       4A    -20.306726     5A    -11.266105     6A    -11.190869
       7A    -11.153055     8A    -11.099203     9A    -11.054310
      10A     -1.342117    11A     -1.239672    12A     -1.176751
      13A     -1.080501    14A     -0.939999    15A     -0.862189
      16A     -0.772779    17A     -0.663149    18A     -0.579675
      19A     -0.568631    20A     -0.560939    21A     -0.539444
      22A     -0.494525    23A     -0.471476    24A     -0.453036
      25A     -0.432555    26A     -0.419298    27A     -0.410956
      28A     -0.387475    29A     -0.366989    30A     -0.357013
      31A     -0.337792    32A     -0.330906    33A     -0.225606
      34A     -0.208060    35A     -0.207358

  @DF-RHF Final Energy:  -493.07539202714850

   => Energetics <=

    Nuclear Repulsion Energy =            436.2316460616126506
    One-Electron Energy =               -1553.1402253601313532
    Two-Electron Energy =                 623.8331872713703206
    Total Energy =                       -493.0753920271484958
  Basis Set: (AUG-CC-PVTZ AUX)
    Blend: AUG-CC-PVTZ-RI
    Molecular point group: c1

    Geometry (in Angstrom), charge = -1, multiplicity = 1:

       Center              X                  Y                   Z               Mass
    ------------   -----------------  -----------------  -----------------  -----------------
         O            1.937379818272    -0.754888963950     0.332086417566    15.994914619570
         O            2.167738818272     1.362541036050    -0.437492582434    15.994914619570
         O           -3.242323181728    -0.364523963950    -0.943356582434    15.994914619570
         O           -2.532964181728    -0.038729963950     1.210989417566    15.994914619570
         C            0.011925818272     0.620150036050     0.438279417566    12.000000000000
         C           -0.904752181728    -0.110051963950    -0.549920582434    12.000000000000
         C            1.454650818272     0.504026036050     0.068048417566    12.000000000000
         C           -2.388460181728    -0.166137963950    -0.038757582434    12.000000000000
         C            3.293871818272    -0.950329963950    -0.077863582434    12.000000000000
         H           -0.177527181728     0.190926036050     1.424665417566     1.007825032230
         H           -0.239289181728     1.683118036050     0.474831417566     1.007825032230
         H           -0.889066981728     0.280532236050    -1.355676882434     1.007825032230
         H           -0.552435181728    -1.140828963950    -0.683817582434     1.007825032230
         H            3.527485818272    -1.982828963950     0.182384417566     1.007825032230
         H            3.964325818272    -0.263124963950     0.444097417566     1.007825032230
         H            3.403167818272    -0.793149963950    -1.153499582434     1.007825032230

  Basis Set: AUG-CC-PVTZ
    Blend: AUG-CC-PVTZ
  Basis Set: (AUG-CC-PVTZ AUX)
    Blend: AUG-CC-PVTZ-JKFIT
	 Reference Energy          =    -493.0753920271484958 [Eh]
	 Singles Energy            =      -0.0000000000000000 [Eh]
	 Same-Spin Energy          =      -0.4837588230755347 [Eh]
	 Opposite-Spin Energy      =      -1.4753814558352318 [Eh]
	 Correlation Energy        =      -1.9591402789107666 [Eh]
	 Total Energy              =    -495.0345323060592477 [Eh]

	 ================> DF-SCS-MP2 Energies <==================
	-----------------------------------------------------------
	 SCS Same-Spin Scale       =       0.3333333333333333 [-]
	 SCS Opposite-Spin Scale   =       1.2000000000000000 [-]
	 SCS Same-Spin Energy      =      -0.1612529410251782 [Eh]
	 SCS Opposite-Spin Energy  =      -1.7704577470022782 [Eh]
	 SCS Correlation Energy    =      -1.9317106880274564 [Eh]
	 SCS Total Energy          =    -495.0071027151759608 [Eh]
	-----------------------------------------------------------

  Dipole Moment: [D]
     X:    11.3730      Y:    -0.7113      Z:    -0.1789     Total:    11.3966

*** Psi4 exiting successfully. Buy a developer a beer!
