                               Psi4 1.4a3.dev225

  ==> Input File <==

--------------------------------------------------------------------------
#psi4
#
memory 32 gb

molecule  {
-1 1
  O        1.8724200    -0.7415990     0.3394840
  O        2.1027790     1.3758310    -0.4300950
  O       -3.3072830    -0.3512340    -0.9359590
  O       -2.5979240    -0.0254400     1.2183870
  C       -0.0530340     0.6334400     0.4456770
  C       -0.9697120    -0.0967620    -0.5425230
  C        1.3896910     0.5173160     0.0754460
  C       -2.4534200    -0.1528480    -0.0313600
  C        3.2289120    -0.9370400    -0.0704660
  H       -0.2424870     0.2042160     1.4320630
  H       -0.3042490     1.6964080     0.4822290
  H       -0.9244899     0.3150452    -1.5567433
  H       -0.6173950    -1.1275390    -0.6764200
  H        3.4625260    -1.9695390     0.1897820
  H        3.8993660    -0.2498350     0.4514950
  H        3.3382080    -0.7798600    -1.1461020
units angstrom
no_reorient  #important for SAPT in psi4, default
symmetry c1  #important for SAPT in psi4, default
}

set PROPERTIES_ORIGIN ["COM"]
properties('MP2/aug-cc-pvtz', properties = ['dipole'])
--------------------------------------------------------------------------

    Molecular point group: c1
  Charge       = -1
  Multiplicity = 1
  Basis Set: AUG-CC-PVTZ
    Blend: AUG-CC-PVTZ
  Basis Set: (AUG-CC-PVTZ AUX)
    Blend: AUG-CC-PVTZ-JKFIT

    Orbital Energies [Eh]
    ---------------------

    Doubly Occupied:

       1A    -20.496242     2A    -20.434847     3A    -20.309162
       4A    -20.306302     5A    -11.266589     6A    -11.191039
       7A    -11.155088     8A    -11.101451     9A    -11.079517
      10A     -1.342395    11A     -1.239850    12A     -1.177415
      13A     -1.081271    14A     -0.935357    15A     -0.857242
      16A     -0.757129    17A     -0.662438    18A     -0.577481
      19A     -0.568807    20A     -0.561022    21A     -0.531687
      22A     -0.486973    23A     -0.463429    24A     -0.452648
      25A     -0.431856    26A     -0.419297    27A     -0.411560
      28A     -0.385842    29A     -0.361765    30A     -0.354976
      31A     -0.337810    32A     -0.325174    33A     -0.226143
      34A     -0.209579    35A     -0.208121

  @DF-RHF Final Energy:  -493.10788276320392

   => Energetics <=

    Nuclear Repulsion Energy =            435.0834965912323469
    One-Electron Energy =               -1550.9677502663332689
    Two-Electron Energy =                 622.7763709118968336
    Total Energy =                       -493.1078827632039747
  Basis Set: (AUG-CC-PVTZ AUX)
    Blend: AUG-CC-PVTZ-RI
    Molecular point group: c1

    Geometry (in Angstrom), charge = -1, multiplicity = 1:

       Center              X                  Y                   Z               Mass
    ------------   -----------------  -----------------  -----------------  -----------------
         O            1.937152641137    -0.755052196392     0.333689776558    15.994914619570
         O            2.167511641137     1.362377803608    -0.435889223442    15.994914619570
         O           -3.242550358863    -0.364687196392    -0.941753223442    15.994914619570
         O           -2.533191358863    -0.038893196392     1.212592776558    15.994914619570
         C            0.011698641137     0.619986803608     0.439882776558    12.000000000000
         C           -0.904979358863    -0.110215196392    -0.548317223442    12.000000000000
         C            1.454423641137     0.503862803608     0.069651776558    12.000000000000
         C           -2.388687358863    -0.166301196392    -0.037154223442    12.000000000000
         C            3.293644641137    -0.950493196392    -0.076260223442    12.000000000000
         H           -0.177754358863     0.190762803608     1.426268776558     1.007825032230
         H           -0.239516358863     1.682954803608     0.476434776558     1.007825032230
         H           -0.859757258863     0.301592003608    -1.562537523442     1.007825032230
         H           -0.552662358863    -1.140992196392    -0.682214223442     1.007825032230
         H            3.527258641137    -1.982992196392     0.183987776558     1.007825032230
         H            3.964098641137    -0.263288196392     0.445700776558     1.007825032230
         H            3.402940641137    -0.793313196392    -1.151896223442     1.007825032230

  Basis Set: AUG-CC-PVTZ
    Blend: AUG-CC-PVTZ
  Basis Set: (AUG-CC-PVTZ AUX)
    Blend: AUG-CC-PVTZ-JKFIT
	 Reference Energy          =    -493.1078827632039179 [Eh]
	 Singles Energy            =      -0.0000000000000000 [Eh]
	 Same-Spin Energy          =      -0.4837476433300147 [Eh]
	 Opposite-Spin Energy      =      -1.4759268383171986 [Eh]
	 Correlation Energy        =      -1.9596744816472134 [Eh]
	 Total Energy              =    -495.0675572448511161 [Eh]

	 ================> DF-SCS-MP2 Energies <==================
	-----------------------------------------------------------
	 SCS Same-Spin Scale       =       0.3333333333333333 [-]
	 SCS Opposite-Spin Scale   =       1.2000000000000000 [-]
	 SCS Same-Spin Energy      =      -0.1612492144433382 [Eh]
	 SCS Opposite-Spin Energy  =      -1.7711122059806383 [Eh]
	 SCS Correlation Energy    =      -1.9323614204239765 [Eh]
	 SCS Total Energy          =    -495.0402441836279195 [Eh]
	-----------------------------------------------------------

  Dipole Moment: [D]
     X:    11.3627      Y:    -0.7432      Z:    -0.0933     Total:    11.3873

*** Psi4 exiting successfully. Buy a developer a beer!
