                               Psi4 1.4a3.dev225

  ==> Input File <==

--------------------------------------------------------------------------
#psi4
#
memory 32 gb

molecule  {
-1 1
  O        1.8724200    -0.7415990     0.3394840
  O        2.1027790     1.3758310    -0.4300950
  O       -3.3072830    -0.3512340    -0.9359590
  O       -2.5979240    -0.0254400     1.2183870
  C       -0.0530340     0.6334400     0.4456770
  C       -0.9697120    -0.0967620    -0.5425230
  C        1.3896910     0.5173160     0.0754460
  C       -2.4534200    -0.1528480    -0.0313600
  C        3.2289120    -0.9370400    -0.0704660
  H       -0.2424870     0.2042160     1.4320630
  H       -0.3042490     1.6964080     0.4822290
  H       -0.9508743     0.3723254    -1.5102277
  H       -0.6173950    -1.1275390    -0.6764200
  H        3.4625260    -1.9695390     0.1897820
  H        3.8993660    -0.2498350     0.4514950
  H        3.3382080    -0.7798600    -1.1461020
units angstrom
no_reorient  #important for SAPT in psi4, default
symmetry c1  #important for SAPT in psi4, default
}

set PROPERTIES_ORIGIN ["COM"]
properties('MP2/aug-cc-pvtz', properties = ['dipole'])
--------------------------------------------------------------------------

    Molecular point group: c1
  Charge       = -1
  Multiplicity = 1
  Basis Set: AUG-CC-PVTZ
    Blend: AUG-CC-PVTZ
  Basis Set: (AUG-CC-PVTZ AUX)
    Blend: AUG-CC-PVTZ-JKFIT

    Orbital Energies [Eh]
    ---------------------

    Doubly Occupied:

       1A    -20.496144     2A    -20.434733     3A    -20.308772
       4A    -20.306460     5A    -11.266388     6A    -11.190966
       7A    -11.154456     8A    -11.100556     9A    -11.077091
      10A     -1.342288    11A     -1.239754    12A     -1.177312
      13A     -1.081145    14A     -0.935618    15A     -0.857599
      16A     -0.757877    17A     -0.662226    18A     -0.577020
      19A     -0.568771    20A     -0.560768    21A     -0.531017
      22A     -0.488378    23A     -0.466721    24A     -0.452272
      25A     -0.431356    26A     -0.419094    27A     -0.411283
      28A     -0.386814    29A     -0.361071    30A     -0.353811
      31A     -0.337983    32A     -0.328247    33A     -0.225806
      34A     -0.209085    35A     -0.208037

  @DF-RHF Final Energy:  -493.10854286860081

   => Energetics <=

    Nuclear Repulsion Energy =            435.2178729520266529
    One-Electron Energy =               -1551.2389898785118021
    Two-Electron Energy =                 622.9125740578842851
    Total Energy =                       -493.1085428686008072
  Basis Set: (AUG-CC-PVTZ AUX)
    Blend: AUG-CC-PVTZ-RI
    Molecular point group: c1

    Geometry (in Angstrom), charge = -1, multiplicity = 1:

       Center              X                  Y                   Z               Mass
    ------------   -----------------  -----------------  -----------------  -----------------
         O            1.937355571451    -0.755492755547     0.333332011162    15.994914619570
         O            2.167714571451     1.361937244453    -0.436246988838    15.994914619570
         O           -3.242347428549    -0.365127755547    -0.942110988838    15.994914619570
         O           -2.532988428549    -0.039333755547     1.212235011162    15.994914619570
         C            0.011901571451     0.619546244453     0.439525011162    12.000000000000
         C           -0.904776428549    -0.110655755547    -0.548674988838    12.000000000000
         C            1.454626571451     0.503422244453     0.069294011162    12.000000000000
         C           -2.388484428549    -0.166741755547    -0.037511988838    12.000000000000
         C            3.293847571451    -0.950933755547    -0.076617988838    12.000000000000
         H           -0.177551428549     0.190322244453     1.425911011162     1.007825032230
         H           -0.239313428549     1.682514244453     0.476077011162     1.007825032230
         H           -0.885938728549     0.358431644453    -1.516379688838     1.007825032230
         H           -0.552459428549    -1.141432755547    -0.682571988838     1.007825032230
         H            3.527461571451    -1.983432755547     0.183630011162     1.007825032230
         H            3.964301571451    -0.263728755547     0.445343011162     1.007825032230
         H            3.403143571451    -0.793753755547    -1.152253988838     1.007825032230

  Basis Set: AUG-CC-PVTZ
    Blend: AUG-CC-PVTZ
  Basis Set: (AUG-CC-PVTZ AUX)
    Blend: AUG-CC-PVTZ-JKFIT
	 Reference Energy          =    -493.1085428686008072 [Eh]
	 Singles Energy            =      -0.0000000000000000 [Eh]
	 Same-Spin Energy          =      -0.4837364552999855 [Eh]
	 Opposite-Spin Energy      =      -1.4758512265730581 [Eh]
	 Correlation Energy        =      -1.9595876818730436 [Eh]
	 Total Energy              =    -495.0681305504738248 [Eh]

	 ================> DF-SCS-MP2 Energies <==================
	-----------------------------------------------------------
	 SCS Same-Spin Scale       =       0.3333333333333333 [-]
	 SCS Opposite-Spin Scale   =       1.2000000000000000 [-]
	 SCS Same-Spin Energy      =      -0.1612454850999951 [Eh]
	 SCS Opposite-Spin Energy  =      -1.7710214718876698 [Eh]
	 SCS Correlation Energy    =      -1.9322669569876649 [Eh]
	 SCS Total Energy          =    -495.0408098255884966 [Eh]
	-----------------------------------------------------------

  Dipole Moment: [D]
     X:    11.3465      Y:    -0.7263      Z:    -0.0983     Total:    11.3701

*** Psi4 exiting successfully. Buy a developer a beer!
