                               Psi4 1.4a3.dev225

  ==> Input File <==

--------------------------------------------------------------------------
#psi4
#
memory 32 gb

molecule  {
-1 1
  O        1.8724200    -0.7415990     0.3394840
  O        2.1027790     1.3758310    -0.4300950
  O       -3.3072830    -0.3512340    -0.9359590
  O       -2.5979240    -0.0254400     1.2183870
  C       -0.0739942     0.6374092     0.4618250
  C       -0.9697120    -0.0967620    -0.5425230
  C        1.3896910     0.5173160     0.0754460
  C       -2.4534200    -0.1528480    -0.0313600
  C        3.2289120    -0.9370400    -0.0704660
  H       -0.2424870     0.2042160     1.4320630
  H       -0.3042490     1.6964080     0.4822290
  H       -0.9505240     0.3810480    -1.5282220
  H       -0.6173950    -1.1275390    -0.6764200
  H        3.4625260    -1.9695390     0.1897820
  H        3.8993660    -0.2498350     0.4514950
  H        3.3382080    -0.7798600    -1.1461020
units angstrom
no_reorient  #important for SAPT in psi4, default
symmetry c1  #important for SAPT in psi4, default
}

set PROPERTIES_ORIGIN ["COM"]
properties('MP2/aug-cc-pvtz', properties = ['dipole'])
--------------------------------------------------------------------------

    Molecular point group: c1
  Charge       = -1
  Multiplicity = 1
  Basis Set: AUG-CC-PVTZ
    Blend: AUG-CC-PVTZ
  Basis Set: (AUG-CC-PVTZ AUX)
    Blend: AUG-CC-PVTZ-JKFIT

    Orbital Energies [Eh]
    ---------------------

    Doubly Occupied:

       1A    -20.496159     2A    -20.434829     3A    -20.308683
       4A    -20.305946     5A    -11.266579     6A    -11.190901
       7A    -11.153999     8A    -11.100885     9A    -11.079002
      10A     -1.341776    11A     -1.239475    12A     -1.177133
      13A     -1.080961    14A     -0.932664    15A     -0.857432
      16A     -0.754243    17A     -0.662651    18A     -0.576397
      19A     -0.568222    20A     -0.560465    21A     -0.529825
      22A     -0.489429    23A     -0.465785    24A     -0.451189
      25A     -0.431015    26A     -0.417652    27A     -0.411692
      28A     -0.389141    29A     -0.361505    30A     -0.354988
      31A     -0.336160    32A     -0.327904    33A     -0.225554
      34A     -0.208436    35A     -0.207734

  @DF-RHF Final Energy:  -493.10820071162777

   => Energetics <=

    Nuclear Repulsion Energy =            434.8832186347166271
    One-Electron Energy =               -1550.5900174908520057
    Two-Electron Energy =                 622.5985981445074913
    Total Energy =                       -493.1082007116277737
  Basis Set: (AUG-CC-PVTZ AUX)
    Blend: AUG-CC-PVTZ-RI
    Molecular point group: c1

    Geometry (in Angstrom), charge = -1, multiplicity = 1:

       Center              X                  Y                   Z               Mass
    ------------   -----------------  -----------------  -----------------  -----------------
         O            1.939272390960    -0.755923338968     0.331991593311    15.994914619570
         O            2.169631390960     1.361506661032    -0.437587406689    15.994914619570
         O           -3.240430609040    -0.365558338968    -0.943451406689    15.994914619570
         O           -2.531071609040    -0.039764338968     1.210894593311    15.994914619570
         C           -0.007141809040     0.623084861032     0.454332593311    12.000000000000
         C           -0.902859609040    -0.111086338968    -0.550015406689    12.000000000000
         C            1.456543390960     0.502991661032     0.067953593311    12.000000000000
         C           -2.386567609040    -0.167172338968    -0.038852406689    12.000000000000
         C            3.295764390960    -0.951364338968    -0.077958406689    12.000000000000
         H           -0.175634609040     0.189891661032     1.424570593311     1.007825032230
         H           -0.237396609040     1.682083661032     0.474736593311     1.007825032230
         H           -0.883671609040     0.366723661032    -1.535714406689     1.007825032230
         H           -0.550542609040    -1.141863338968    -0.683912406689     1.007825032230
         H            3.529378390960    -1.983863338968     0.182289593311     1.007825032230
         H            3.966218390960    -0.264159338968     0.444002593311     1.007825032230
         H            3.405060390960    -0.794184338968    -1.153594406689     1.007825032230

  Basis Set: AUG-CC-PVTZ
    Blend: AUG-CC-PVTZ
  Basis Set: (AUG-CC-PVTZ AUX)
    Blend: AUG-CC-PVTZ-JKFIT
	 Reference Energy          =    -493.1082007116277737 [Eh]
	 Singles Energy            =      -0.0000000000000000 [Eh]
	 Same-Spin Energy          =      -0.4835209276565799 [Eh]
	 Opposite-Spin Energy      =      -1.4757473305245978 [Eh]
	 Correlation Energy        =      -1.9592682581811778 [Eh]
	 Total Energy              =    -495.0674689698089423 [Eh]

	 ================> DF-SCS-MP2 Energies <==================
	-----------------------------------------------------------
	 SCS Same-Spin Scale       =       0.3333333333333333 [-]
	 SCS Opposite-Spin Scale   =       1.2000000000000000 [-]
	 SCS Same-Spin Energy      =      -0.1611736425521933 [Eh]
	 SCS Opposite-Spin Energy  =      -1.7708967966295173 [Eh]
	 SCS Correlation Energy    =      -1.9320704391817105 [Eh]
	 SCS Total Energy          =    -495.0402711508094740 [Eh]
	-----------------------------------------------------------

  Dipole Moment: [D]
     X:    11.3653      Y:    -0.7208      Z:    -0.0772     Total:    11.3884

*** Psi4 exiting successfully. Buy a developer a beer!
