                               Psi4 1.4a3.dev225

  ==> Input File <==

--------------------------------------------------------------------------
#psi4
#
memory 32 gb

molecule  {
-1 1
  O        1.8724200    -0.7415990     0.3394840
  O        2.1027790     1.3758310    -0.4300950
  O       -3.3072830    -0.3512340    -0.9359590
  O       -2.5979240    -0.0254400     1.2183870
  C       -0.0530340     0.6334400     0.4456770
  C       -0.9697120    -0.0967620    -0.5425230
  C        1.3896910     0.5173160     0.0754460
  C       -2.5889906    -0.1843464    -0.1749861
  C        3.2289120    -0.9370400    -0.0704660
  H       -0.2424870     0.2042160     1.4320630
  H       -0.3042490     1.6964080     0.4822290
  H       -0.9505240     0.3810480    -1.5282220
  H       -0.6173950    -1.1275390    -0.6764200
  H        3.4625260    -1.9695390     0.1897820
  H        3.8993660    -0.2498350     0.4514950
  H        3.3382080    -0.7798600    -1.1461020
units angstrom
no_reorient  #important for SAPT in psi4, default
symmetry c1  #important for SAPT in psi4, default
}

set PROPERTIES_ORIGIN ["COM"]
properties('MP2/aug-cc-pvtz', properties = ['dipole'])
--------------------------------------------------------------------------

    Molecular point group: c1
  Charge       = -1
  Multiplicity = 1
  Basis Set: AUG-CC-PVTZ
    Blend: AUG-CC-PVTZ
  Basis Set: (AUG-CC-PVTZ AUX)
    Blend: AUG-CC-PVTZ-JKFIT

    Orbital Energies [Eh]
    ---------------------

    Doubly Occupied:

       1A    -20.489163     2A    -20.427243     3A    -20.356612
       4A    -20.273868     5A    -11.258119     6A    -11.185739
       7A    -11.149987     8A    -11.089919     9A    -11.066091
      10A     -1.335108    11A     -1.316501    12A     -1.232513
      13A     -1.027202    14A     -0.921402    15A     -0.846975
      16A     -0.739961    17A     -0.654651    18A     -0.567040
      19A     -0.562403    20A     -0.554863    21A     -0.544128
      22A     -0.488904    23A     -0.475371    24A     -0.460333
      25A     -0.432997    26A     -0.426858    27A     -0.425925
      28A     -0.416060    29A     -0.360638    30A     -0.344676
      31A     -0.340046    32A     -0.330843    33A     -0.216456
      34A     -0.196682    35A     -0.168519

  @DF-RHF Final Energy:  -493.03337447443062

   => Energetics <=

    Nuclear Repulsion Energy =            435.0382879102344873
    One-Electron Energy =               -1550.7757344761737386
    Two-Electron Energy =                 622.7040720915086922
    Total Energy =                       -493.0333744744306159
  Basis Set: (AUG-CC-PVTZ AUX)
    Blend: AUG-CC-PVTZ-RI
    Molecular point group: c1

    Geometry (in Angstrom), charge = -1, multiplicity = 1:

       Center              X                  Y                   Z               Mass
    ------------   -----------------  -----------------  -----------------  -----------------
         O            1.949768294679    -0.752675252278     0.346623542683    15.994914619570
         O            2.180127294679     1.364754747722    -0.422955457317    15.994914619570
         O           -3.229934705321    -0.362310252278    -0.928819457317    15.994914619570
         O           -2.520575705321    -0.036516252278     1.225526542683    15.994914619570
         C            0.024314294679     0.622363747722     0.452816542683    12.000000000000
         C           -0.892363705321    -0.107838252278    -0.535383457317    12.000000000000
         C            1.467039294679     0.506239747722     0.082585542683    12.000000000000
         C           -2.511642305321    -0.195422652278    -0.167846557317    12.000000000000
         C            3.306260294679    -0.948116252278    -0.063326457317    12.000000000000
         H           -0.165138705321     0.193139747722     1.439202542683     1.007825032230
         H           -0.226900705321     1.685331747722     0.489368542683     1.007825032230
         H           -0.873175705321     0.369971747722    -1.521082457317     1.007825032230
         H           -0.540046705321    -1.138615252278    -0.669280457317     1.007825032230
         H            3.539874294679    -1.980615252278     0.196921542683     1.007825032230
         H            3.976714294679    -0.260911252278     0.458634542683     1.007825032230
         H            3.415556294679    -0.790936252278    -1.138962457317     1.007825032230

  Basis Set: AUG-CC-PVTZ
    Blend: AUG-CC-PVTZ
  Basis Set: (AUG-CC-PVTZ AUX)
    Blend: AUG-CC-PVTZ-JKFIT
	 Reference Energy          =    -493.0333744744306159 [Eh]
	 Singles Energy            =      -0.0000000000000000 [Eh]
	 Same-Spin Energy          =      -0.4826267189013360 [Eh]
	 Opposite-Spin Energy      =      -1.4736209020371160 [Eh]
	 Correlation Energy        =      -1.9562476209384521 [Eh]
	 Total Energy              =    -494.9896220953690431 [Eh]

	 ================> DF-SCS-MP2 Energies <==================
	-----------------------------------------------------------
	 SCS Same-Spin Scale       =       0.3333333333333333 [-]
	 SCS Opposite-Spin Scale   =       1.2000000000000000 [-]
	 SCS Same-Spin Energy      =      -0.1608755729671120 [Eh]
	 SCS Opposite-Spin Energy  =      -1.7683450824445393 [Eh]
	 SCS Correlation Energy    =      -1.9292206554116513 [Eh]
	 SCS Total Energy          =    -494.9625951298422706 [Eh]
	-----------------------------------------------------------

  Dipole Moment: [D]
     X:     9.8857      Y:    -1.0715      Z:    -1.8149     Total:    10.1078

*** Psi4 exiting successfully. Buy a developer a beer!
