                               Psi4 1.4a3.dev225

  ==> Input File <==

--------------------------------------------------------------------------
#psi4
#
memory 32 gb

molecule  {
-1 1
  O        1.8724200    -0.7415990     0.3394840
  O        2.1027790     1.3758310    -0.4300950
  O       -3.3072830    -0.3512340    -0.9359590
  O       -2.5979240    -0.0254400     1.2183870
  C       -0.0530340     0.6334400     0.4456770
  C       -0.9697120    -0.0967620    -0.5425230
  C        1.3985904     0.4938513     0.1211578
  C       -2.4534200    -0.1528480    -0.0313600
  C        3.2289120    -0.9370400    -0.0704660
  H       -0.2424870     0.2042160     1.4320630
  H       -0.3042490     1.6964080     0.4822290
  H       -0.9505240     0.3810480    -1.5282220
  H       -0.6173950    -1.1275390    -0.6764200
  H        3.4625260    -1.9695390     0.1897820
  H        3.8993660    -0.2498350     0.4514950
  H        3.3382080    -0.7798600    -1.1461020
units angstrom
no_reorient  #important for SAPT in psi4, default
symmetry c1  #important for SAPT in psi4, default
}

set PROPERTIES_ORIGIN ["COM"]
properties('MP2/aug-cc-pvtz', properties = ['dipole'])
--------------------------------------------------------------------------

    Molecular point group: c1
  Charge       = -1
  Multiplicity = 1
  Basis Set: AUG-CC-PVTZ
    Blend: AUG-CC-PVTZ
  Basis Set: (AUG-CC-PVTZ AUX)
    Blend: AUG-CC-PVTZ-JKFIT

    Orbital Energies [Eh]
    ---------------------

    Doubly Occupied:

       1A    -20.505092     2A    -20.427295     3A    -20.308794
       4A    -20.306495     5A    -11.267520     6A    -11.195372
       7A    -11.154733     8A    -11.100359     9A    -11.079842
      10A     -1.351560    11A     -1.223771    12A     -1.177355
      13A     -1.081181    14A     -0.936795    15A     -0.864313
      16A     -0.757315    17A     -0.668742    18A     -0.578720
      19A     -0.568114    20A     -0.563770    21A     -0.531045
      22A     -0.482717    23A     -0.468766    24A     -0.450619
      25A     -0.431290    26A     -0.418133    27A     -0.409954
      28A     -0.387864    29A     -0.361618    30A     -0.347466
      31A     -0.335089    32A     -0.325574    33A     -0.225676
      34A     -0.209441    35A     -0.208059

  @DF-RHF Final Energy:  -493.10483031399082

   => Energetics <=

    Nuclear Repulsion Energy =            435.0776672908199316
    One-Electron Energy =               -1550.9440969500658412
    Two-Electron Energy =                 622.7615993452552630
    Total Energy =                       -493.1048303139907603
  Basis Set: (AUG-CC-PVTZ AUX)
    Blend: AUG-CC-PVTZ-RI
    Molecular point group: c1

    Geometry (in Angstrom), charge = -1, multiplicity = 1:

       Center              X                  Y                   Z               Mass
    ------------   -----------------  -----------------  -----------------  -----------------
         O            1.936537879200    -0.753410970343     0.329284170613    15.994914619570
         O            2.166896879200     1.364019029657    -0.440294829387    15.994914619570
         O           -3.243165120800    -0.363045970343    -0.946158829387    15.994914619570
         O           -2.533806120800    -0.037251970343     1.208187170613    15.994914619570
         C            0.011083879200     0.621628029657     0.435477170613    12.000000000000
         C           -0.905594120800    -0.108573970343    -0.552722829387    12.000000000000
         C            1.462708279200     0.482039329657     0.110957970613    12.000000000000
         C           -2.389302120800    -0.164659970343    -0.041559829387    12.000000000000
         C            3.293029879200    -0.948851970343    -0.080665829387    12.000000000000
         H           -0.178369120800     0.192404029657     1.421863170613     1.007825032230
         H           -0.240131120800     1.684596029657     0.472029170613     1.007825032230
         H           -0.886406120800     0.369236029657    -1.538421829387     1.007825032230
         H           -0.553277120800    -1.139350970343    -0.686619829387     1.007825032230
         H            3.526643879200    -1.981350970343     0.179582170613     1.007825032230
         H            3.963483879200    -0.261646970343     0.441295170613     1.007825032230
         H            3.402325879200    -0.791671970343    -1.156301829387     1.007825032230

  Basis Set: AUG-CC-PVTZ
    Blend: AUG-CC-PVTZ
  Basis Set: (AUG-CC-PVTZ AUX)
    Blend: AUG-CC-PVTZ-JKFIT
	 Reference Energy          =    -493.1048303139908171 [Eh]
	 Singles Energy            =      -0.0000000000000000 [Eh]
	 Same-Spin Energy          =      -0.4841072545324995 [Eh]
	 Opposite-Spin Energy      =      -1.4765965004490571 [Eh]
	 Correlation Energy        =      -1.9607037549815565 [Eh]
	 Total Energy              =    -495.0655340689723971 [Eh]

	 ================> DF-SCS-MP2 Energies <==================
	-----------------------------------------------------------
	 SCS Same-Spin Scale       =       0.3333333333333333 [-]
	 SCS Opposite-Spin Scale   =       1.2000000000000000 [-]
	 SCS Same-Spin Energy      =      -0.1613690848441665 [Eh]
	 SCS Opposite-Spin Energy  =      -1.7719158005388684 [Eh]
	 SCS Correlation Energy    =      -1.9332848853830349 [Eh]
	 SCS Total Energy          =    -495.0381151993738627 [Eh]
	-----------------------------------------------------------

  Dipole Moment: [D]
     X:    11.4183      Y:    -1.0175      Z:     0.0346     Total:    11.4636

*** Psi4 exiting successfully. Buy a developer a beer!
