                               Psi4 1.4a3.dev225

  ==> Input File <==

--------------------------------------------------------------------------
#psi4
#
memory 32 gb

molecule  {
-1 1
  O        1.9978799    -0.6966040     0.2854811
  O        2.1027790     1.3758310    -0.4300950
  O       -3.3072830    -0.3512340    -0.9359590
  O       -2.5979240    -0.0254400     1.2183870
  C       -0.0530340     0.6334400     0.4456770
  C       -0.9697120    -0.0967620    -0.5425230
  C        1.3896910     0.5173160     0.0754460
  C       -2.4534200    -0.1528480    -0.0313600
  C        3.2289120    -0.9370400    -0.0704660
  H       -0.2424870     0.2042160     1.4320630
  H       -0.3042490     1.6964080     0.4822290
  H       -0.9505240     0.3810480    -1.5282220
  H       -0.6173950    -1.1275390    -0.6764200
  H        3.4625260    -1.9695390     0.1897820
  H        3.8993660    -0.2498350     0.4514950
  H        3.3382080    -0.7798600    -1.1461020
units angstrom
no_reorient  #important for SAPT in psi4, default
symmetry c1  #important for SAPT in psi4, default
}

set PROPERTIES_ORIGIN ["COM"]
properties('MP2/aug-cc-pvtz', properties = ['dipole'])
--------------------------------------------------------------------------

    Molecular point group: c1
  Charge       = -1
  Multiplicity = 1
  Basis Set: AUG-CC-PVTZ
    Blend: AUG-CC-PVTZ
  Basis Set: (AUG-CC-PVTZ AUX)
    Blend: AUG-CC-PVTZ-JKFIT

    Orbital Energies [Eh]
    ---------------------

    Doubly Occupied:

       1A    -20.485345     2A    -20.432551     3A    -20.312428
       4A    -20.309621     5A    -11.271629     6A    -11.177740
       7A    -11.158278     8A    -11.110087     9A    -11.084351
      10A     -1.369653    11A     -1.248075    12A     -1.180762
      13A     -1.084553    14A     -0.944419    15A     -0.865516
      16A     -0.759263    17A     -0.672336    18A     -0.591170
      19A     -0.581278    20A     -0.574514    21A     -0.537262
      22A     -0.493020    23A     -0.482778    24A     -0.451383
      25A     -0.426457    26A     -0.413953    27A     -0.401487
      28A     -0.390780    29A     -0.359665    30A     -0.345191
      31A     -0.338591    32A     -0.330494    33A     -0.229213
      34A     -0.212913    35A     -0.211284

  @DF-RHF Final Energy:  -493.09774192435339

   => Energetics <=

    Nuclear Repulsion Energy =            436.4198264978653015
    One-Electron Energy =               -1553.3590570422038581
    Two-Electron Energy =                 623.8414886199850571
    Total Energy =                       -493.0977419243533859
  Basis Set: (AUG-CC-PVTZ AUX)
    Blend: AUG-CC-PVTZ-RI
    Molecular point group: c1

    Geometry (in Angstrom), charge = -1, multiplicity = 1:

       Center              X                  Y                   Z               Mass
    ------------   -----------------  -----------------  -----------------  -----------------
         O            2.047498326385    -0.716057225813     0.286059455666    15.994914619570
         O            2.152397426385     1.356377774187    -0.429516644334    15.994914619570
         O           -3.257664573615    -0.370687225813    -0.935380644334    15.994914619570
         O           -2.548305573615    -0.044893225813     1.218965355666    15.994914619570
         C           -0.003415573615     0.613986774187     0.446255355666    12.000000000000
         C           -0.920093573615    -0.116215225813    -0.541944644334    12.000000000000
         C            1.439309426385     0.497862774187     0.076024355666    12.000000000000
         C           -2.403801573615    -0.172301225813    -0.030781644334    12.000000000000
         C            3.278530426385    -0.956493225813    -0.069887644334    12.000000000000
         H           -0.192868573615     0.184762774187     1.432641355666     1.007825032230
         H           -0.254630573615     1.676954774187     0.482807355666     1.007825032230
         H           -0.900905573615     0.361594774187    -1.527643644334     1.007825032230
         H           -0.567776573615    -1.146992225813    -0.675841644334     1.007825032230
         H            3.512144426385    -1.988992225813     0.190360355666     1.007825032230
         H            3.948984426385    -0.269288225813     0.452073355666     1.007825032230
         H            3.387826426385    -0.799313225813    -1.145523644334     1.007825032230

  Basis Set: AUG-CC-PVTZ
    Blend: AUG-CC-PVTZ
  Basis Set: (AUG-CC-PVTZ AUX)
    Blend: AUG-CC-PVTZ-JKFIT
	 Reference Energy          =    -493.0977419243533859 [Eh]
	 Singles Energy            =      -0.0000000000000000 [Eh]
	 Same-Spin Energy          =      -0.4830587366694339 [Eh]
	 Opposite-Spin Energy      =      -1.4726356830396905 [Eh]
	 Correlation Energy        =      -1.9556944197091244 [Eh]
	 Total Energy              =    -495.0534363440625043 [Eh]

	 ================> DF-SCS-MP2 Energies <==================
	-----------------------------------------------------------
	 SCS Same-Spin Scale       =       0.3333333333333333 [-]
	 SCS Opposite-Spin Scale   =       1.2000000000000000 [-]
	 SCS Same-Spin Energy      =      -0.1610195788898113 [Eh]
	 SCS Opposite-Spin Energy  =      -1.7671628196476286 [Eh]
	 SCS Correlation Energy    =      -1.9281823985374398 [Eh]
	 SCS Total Energy          =    -495.0259243228908304 [Eh]
	-----------------------------------------------------------

  Dipole Moment: [D]
     X:    10.7596      Y:    -0.6636      Z:     0.0341     Total:    10.7801

*** Psi4 exiting successfully. Buy a developer a beer!
