                               Psi4 1.3.2 release

  ==> Input File <==

--------------------------------------------------------------------------
#psi4
#
memory 32 gb

molecule  {
0 1
  O       -1.8913020     0.0537070    -0.0477600
  O        1.6373540    -0.6495170    -0.0243010
  O        0.5013320     1.3172450     0.0146240
  C       -0.7322228    -0.7523571     0.2398224
  C        0.5122950     0.0966670     0.0022440
  H       -0.7208860    -1.3357450     0.9707590
  H       -0.7086820    -1.4630600    -0.7928450
  H       -1.5835860     0.9744290     0.0563990
  H        2.3862870    -0.0178550    -0.0276700
units angstrom
no_reorient  #important for SAPT in psi4, default
symmetry c1  #important for SAPT in psi4, default
}

set PROPERTIES_ORIGIN ["COM"]
properties('MP2/aug-cc-pvtz', properties = ['dipole'])
--------------------------------------------------------------------------

    Molecular point group: c1
  Charge       = 0
  Multiplicity = 1
  Basis Set: AUG-CC-PVTZ
    Blend: AUG-CC-PVTZ
  Basis Set: (AUG-CC-PVTZ AUX)
    Blend: AUG-CC-PVTZ-JKFIT

    Orbital Energies [Eh]
    ---------------------

    Doubly Occupied:

       1A    -20.638717     2A    -20.575939     3A    -20.573321
       4A    -11.414127     5A    -11.314770     6A     -1.484639
       7A     -1.388350     8A     -1.359483     9A     -1.014084
      10A     -0.843803    11A     -0.741729    12A     -0.728607
      13A     -0.701558    14A     -0.644685    15A     -0.626195
      16A     -0.588529    17A     -0.539093    18A     -0.504994
      19A     -0.481598    20A     -0.458917

  @DF-RHF Final Energy:  -302.73910758093558

   => Energetics <=

    Nuclear Repulsion Energy =            178.7240883949155545
    One-Electron Energy =                -769.6801140052183428
    Two-Electron Energy =                 288.2169180293671502
    Total Energy =                       -302.7391075809355812
  Basis Set: (AUG-CC-PVTZ AUX)
    Blend: AUG-CC-PVTZ-RI
    Molecular point group: c1

    Geometry (in Angstrom), charge = 0, multiplicity = 1:

       Center              X                  Y                   Z               Mass
    ------------   -----------------  -----------------  -----------------  -----------------
         O           -1.900326148953     0.029838834591    -0.076627022829    15.994914619570
         O            1.628329851047    -0.673385165409    -0.053168022829    15.994914619570
         O            0.492307851047     1.293376834591    -0.014243022829    15.994914619570
         C           -0.741246948953    -0.776225265409     0.210955377171    12.000000000000
         C            0.503270851047     0.072798834591    -0.026623022829    12.000000000000
         H           -0.729910148953    -1.359613165409     0.941891977171     1.007825032230
         H           -0.717706148953    -1.486928165409    -0.821712022829     1.007825032230
         H           -1.592610148953     0.950560834591     0.027531977171     1.007825032230
         H            2.377262851047    -0.041723165409    -0.056537022829     1.007825032230

  Basis Set: AUG-CC-PVTZ
    Blend: AUG-CC-PVTZ
  Basis Set: (AUG-CC-PVTZ AUX)
    Blend: AUG-CC-PVTZ-JKFIT
	 Reference Energy          =    -302.7391075809355812 [Eh]
	 Singles Energy            =      -0.0000000000000000 [Eh]
	 Same-Spin Energy          =      -0.2843220261694949 [Eh]
	 Opposite-Spin Energy      =      -0.8591672388228847 [Eh]
	 Correlation Energy        =      -1.1434892649923796 [Eh]
	 Total Energy              =    -303.8825968459279352 [Eh]

	 ================> DF-SCS-MP2 Energies <==================
	-----------------------------------------------------------
	 SCS Same-Spin Scale       =       0.3333333333333333 [-]
	 SCS Opposite-Spin Scale   =       1.2000000000000000 [-]
	 SCS Same-Spin Energy      =      -0.0947740087231650 [Eh]
	 SCS Opposite-Spin Energy  =      -1.0310006865874617 [Eh]
	 SCS Correlation Energy    =      -1.1257746953106267 [Eh]
	 SCS Total Energy          =    -303.8648822762461919 [Eh]
	-----------------------------------------------------------

  Dipole Moment: [D]
     X:     2.1080      Y:    -0.9398      Z:     0.4934     Total:     2.3601

*** Psi4 exiting successfully. Buy a developer a beer!
