                               Psi4 1.3.2 release

  ==> Input File <==

--------------------------------------------------------------------------
#psi4
#
memory 32 gb

molecule  {
0 1
  O       -1.8913020     0.0537070    -0.0477600
  O        1.6373540    -0.6495170    -0.0243010
  O        0.5013320     1.3172450     0.0146240
  C       -0.7363022    -0.7517458     0.0898791
  C        0.5122950     0.0966670     0.0022440
  H       -0.7208860    -1.3357450     0.9707590
  H       -0.7086820    -1.4630600    -0.7928450
  H       -1.5835860     0.9744290     0.0563990
  H        2.3862870    -0.0178550    -0.0276700
units angstrom
no_reorient  #important for SAPT in psi4, default
symmetry c1  #important for SAPT in psi4, default
}

set PROPERTIES_ORIGIN ["COM"]
properties('MP2/aug-cc-pvtz', properties = ['dipole'])
--------------------------------------------------------------------------

    Molecular point group: c1
  Charge       = 0
  Multiplicity = 1
  Basis Set: AUG-CC-PVTZ
    Blend: AUG-CC-PVTZ
  Basis Set: (AUG-CC-PVTZ AUX)
    Blend: AUG-CC-PVTZ-JKFIT

    Orbital Energies [Eh]
    ---------------------

    Doubly Occupied:

       1A    -20.638581     2A    -20.575389     3A    -20.571230
       4A    -11.410635     5A    -11.311131     6A     -1.484513
       7A     -1.390132     8A     -1.364181     9A     -1.009755
      10A     -0.835721    11A     -0.741928    12A     -0.727807
      13A     -0.689495    14A     -0.645819    15A     -0.618206
      16A     -0.606746    17A     -0.543632    18A     -0.505399
      19A     -0.479444    20A     -0.469032

  @DF-RHF Final Energy:  -302.78249397388805

   => Energetics <=

    Nuclear Repulsion Energy =            179.1119966929153122
    One-Electron Energy =                -770.5514254144268307
    Two-Electron Energy =                 288.6569347476234384
    Total Energy =                       -302.7824939738880516
  Basis Set: (AUG-CC-PVTZ AUX)
    Blend: AUG-CC-PVTZ-RI
    Molecular point group: c1

    Geometry (in Angstrom), charge = 0, multiplicity = 1:

       Center              X                  Y                   Z               Mass
    ------------   -----------------  -----------------  -----------------  -----------------
         O           -1.899682169111     0.029742333910    -0.052956761847    15.994914619570
         O            1.628973830889    -0.673481666090    -0.029497761847    15.994914619570
         O            0.492951830889     1.293280333910     0.009427238153    15.994914619570
         C           -0.744682369111    -0.775710466090     0.084682338153    12.000000000000
         C            0.503914830889     0.072702333910    -0.002952761847    12.000000000000
         H           -0.729266169111    -1.359709666090     0.965562238153     1.007825032230
         H           -0.717062169111    -1.487024666090    -0.798041761847     1.007825032230
         H           -1.591966169111     0.950464333910     0.051202238153     1.007825032230
         H            2.377906830889    -0.041819666090    -0.032866761847     1.007825032230

  Basis Set: AUG-CC-PVTZ
    Blend: AUG-CC-PVTZ
  Basis Set: (AUG-CC-PVTZ AUX)
    Blend: AUG-CC-PVTZ-JKFIT
	 Reference Energy          =    -302.7824939738880516 [Eh]
	 Singles Energy            =      -0.0000000000000000 [Eh]
	 Same-Spin Energy          =      -0.2837327289641118 [Eh]
	 Opposite-Spin Energy      =      -0.8567151857442024 [Eh]
	 Correlation Energy        =      -1.1404479147083142 [Eh]
	 Total Energy              =    -303.9229418885963696 [Eh]

	 ================> DF-SCS-MP2 Energies <==================
	-----------------------------------------------------------
	 SCS Same-Spin Scale       =       0.3333333333333333 [-]
	 SCS Opposite-Spin Scale   =       1.2000000000000000 [-]
	 SCS Same-Spin Energy      =      -0.0945775763213706 [Eh]
	 SCS Opposite-Spin Energy  =      -1.0280582228930428 [Eh]
	 SCS Correlation Energy    =      -1.1226357992144134 [Eh]
	 SCS Total Energy          =    -303.9051297731024874 [Eh]
	-----------------------------------------------------------

  Dipole Moment: [D]
     X:     2.0974      Y:    -0.9772      Z:     0.2982     Total:     2.3330

*** Psi4 exiting successfully. Buy a developer a beer!
