                               Psi4 1.3.2 release

  ==> Input File <==

--------------------------------------------------------------------------
#psi4
#
memory 32 gb

molecule  {
0 1
  O       -1.8913020     0.0537070    -0.0477600
  O        1.6373540    -0.6495170    -0.0243010
  O        0.5013320     1.3172450     0.0146240
  C       -0.7335826    -0.7521533     0.1898413
  C        0.5122950     0.0966670     0.0022440
  H       -0.7208860    -1.3357450     0.9707590
  H       -0.7086820    -1.4630600    -0.7928450
  H       -1.5835860     0.9744290     0.0563990
  H        2.3862870    -0.0178550    -0.0276700
units angstrom
no_reorient  #important for SAPT in psi4, default
symmetry c1  #important for SAPT in psi4, default
}

set PROPERTIES_ORIGIN ["COM"]
properties('MP2/aug-cc-pvtz', properties = ['dipole'])
--------------------------------------------------------------------------

    Molecular point group: c1
  Charge       = 0
  Multiplicity = 1
  Basis Set: AUG-CC-PVTZ
    Blend: AUG-CC-PVTZ
  Basis Set: (AUG-CC-PVTZ AUX)
    Blend: AUG-CC-PVTZ-JKFIT

    Orbital Energies [Eh]
    ---------------------

    Doubly Occupied:

       1A    -20.638690     2A    -20.575717     3A    -20.572307
       4A    -11.412525     5A    -11.312960     6A     -1.484599
       7A     -1.388913     8A     -1.361307     9A     -1.012062
      10A     -0.839906    11A     -0.741012    12A     -0.728321
      13A     -0.698157    14A     -0.644412    15A     -0.624489
      16A     -0.594185    17A     -0.540747    18A     -0.505160
      19A     -0.480532    20A     -0.464220

  @DF-RHF Final Energy:  -302.75968346508955

   => Energetics <=

    Nuclear Repulsion Energy =            178.8846102227435608
    One-Electron Energy =                -770.0481412133533468
    Two-Electron Energy =                 288.4038475255202911
    Total Energy =                       -302.7596834650895516
  Basis Set: (AUG-CC-PVTZ AUX)
    Blend: AUG-CC-PVTZ-RI
    Molecular point group: c1

    Geometry (in Angstrom), charge = 0, multiplicity = 1:

       Center              X                  Y                   Z               Mass
    ------------   -----------------  -----------------  -----------------  -----------------
         O           -1.900111489006     0.029806662436    -0.068736935835    15.994914619570
         O            1.628544510994    -0.673417337564    -0.045277935835    15.994914619570
         O            0.492522510994     1.293344662436    -0.006352935835    15.994914619570
         C           -0.742392089006    -0.776053637564     0.168864364165    12.000000000000
         C            0.503485510994     0.072766662436    -0.018732935835    12.000000000000
         H           -0.729695489006    -1.359645337564     0.949782064165     1.007825032230
         H           -0.717491489006    -1.486960337564    -0.813821935835     1.007825032230
         H           -1.592395489006     0.950528662436     0.035422064165     1.007825032230
         H            2.377477510994    -0.041755337564    -0.048646935835     1.007825032230

  Basis Set: AUG-CC-PVTZ
    Blend: AUG-CC-PVTZ
  Basis Set: (AUG-CC-PVTZ AUX)
    Blend: AUG-CC-PVTZ-JKFIT
	 Reference Energy          =    -302.7596834650895516 [Eh]
	 Singles Energy            =      -0.0000000000000000 [Eh]
	 Same-Spin Energy          =      -0.2840498307034772 [Eh]
	 Opposite-Spin Energy      =      -0.8580602031108063 [Eh]
	 Correlation Energy        =      -1.1421100338142836 [Eh]
	 Total Energy              =    -303.9017934989038281 [Eh]

	 ================> DF-SCS-MP2 Energies <==================
	-----------------------------------------------------------
	 SCS Same-Spin Scale       =       0.3333333333333333 [-]
	 SCS Opposite-Spin Scale   =       1.2000000000000000 [-]
	 SCS Same-Spin Energy      =      -0.0946832769011591 [Eh]
	 SCS Opposite-Spin Energy  =      -1.0296722437329675 [Eh]
	 SCS Correlation Energy    =      -1.1243555206341265 [Eh]
	 SCS Total Energy          =    -303.8840389857236914 [Eh]
	-----------------------------------------------------------

  Dipole Moment: [D]
     X:     2.1080      Y:    -0.9585      Z:     0.4332     Total:     2.3559

*** Psi4 exiting successfully. Buy a developer a beer!
