                               Psi4 1.3.2 release

  ==> Input File <==

--------------------------------------------------------------------------
#psi4
#
memory 32 gb

molecule  {
0 1
  O       -1.8913020     0.0537070    -0.0477600
  O        1.6373540    -0.6495170    -0.0243010
  O        0.5013320     1.3172450     0.0146240
  C       -0.7308630    -0.7525608     0.2898035
  C        0.5122950     0.0966670     0.0022440
  H       -0.7208860    -1.3357450     0.9707590
  H       -0.7086820    -1.4630600    -0.7928450
  H       -1.5835860     0.9744290     0.0563990
  H        2.3862870    -0.0178550    -0.0276700
units angstrom
no_reorient  #important for SAPT in psi4, default
symmetry c1  #important for SAPT in psi4, default
}

set PROPERTIES_ORIGIN ["COM"]
properties('MP2/aug-cc-pvtz', properties = ['dipole'])
--------------------------------------------------------------------------

    Molecular point group: c1
  Charge       = 0
  Multiplicity = 1
  Basis Set: AUG-CC-PVTZ
    Blend: AUG-CC-PVTZ
  Basis Set: (AUG-CC-PVTZ AUX)
    Blend: AUG-CC-PVTZ-JKFIT

    Orbital Energies [Eh]
    ---------------------

    Doubly Occupied:

       1A    -20.638732     2A    -20.576200     3A    -20.574615
       4A    -11.416145     5A    -11.317164     6A     -1.484679
       7A     -1.387857     8A     -1.357396     9A     -1.016849
      10A     -0.848807    11A     -0.743472    12A     -0.728680
      13A     -0.703486    14A     -0.645471    15A     -0.627060
      16A     -0.583489    17A     -0.537413    18A     -0.504814
      19A     -0.482425    20A     -0.452500

  @DF-RHF Final Energy:  -302.71188076387284

   => Energetics <=

    Nuclear Repulsion Energy =            178.5348883070141710
    One-Electron Energy =                -769.2390316313968697
    Two-Electron Energy =                 287.9922625605098574
    Total Energy =                       -302.7118807638728413
  Basis Set: (AUG-CC-PVTZ AUX)
    Blend: AUG-CC-PVTZ-RI
    Molecular point group: c1

    Geometry (in Angstrom), charge = 0, multiplicity = 1:

       Center              X                  Y                   Z               Mass
    ------------   -----------------  -----------------  -----------------  -----------------
         O           -1.900540808900     0.029870990961    -0.084517109823    15.994914619570
         O            1.628115191100    -0.673353009039    -0.061058109823    15.994914619570
         O            0.492093191100     1.293408990961    -0.022133109823    15.994914619570
         C           -0.740101808900    -0.776396809039     0.253046390177    12.000000000000
         C            0.503056191100     0.072830990961    -0.034513109823    12.000000000000
         H           -0.730124808900    -1.359581009039     0.934001890177     1.007825032230
         H           -0.717920808900    -1.486896009039    -0.829602109823     1.007825032230
         H           -1.592824808900     0.950592990961     0.019641890177     1.007825032230
         H            2.377048191100    -0.041691009039    -0.064427109823     1.007825032230

  Basis Set: AUG-CC-PVTZ
    Blend: AUG-CC-PVTZ
  Basis Set: (AUG-CC-PVTZ AUX)
    Blend: AUG-CC-PVTZ-JKFIT
	 Reference Energy          =    -302.7118807638728413 [Eh]
	 Singles Energy            =      -0.0000000000000000 [Eh]
	 Same-Spin Energy          =      -0.2846741969517486 [Eh]
	 Opposite-Spin Energy      =      -0.8605859958740192 [Eh]
	 Correlation Energy        =      -1.1452601928257677 [Eh]
	 Total Energy              =    -303.8571409566986290 [Eh]

	 ================> DF-SCS-MP2 Energies <==================
	-----------------------------------------------------------
	 SCS Same-Spin Scale       =       0.3333333333333333 [-]
	 SCS Opposite-Spin Scale   =       1.2000000000000000 [-]
	 SCS Same-Spin Energy      =      -0.0948913989839162 [Eh]
	 SCS Opposite-Spin Energy  =      -1.0327031950488230 [Eh]
	 SCS Correlation Energy    =      -1.1275945940327392 [Eh]
	 SCS Total Energy          =    -303.8394753579055987 [Eh]
	-----------------------------------------------------------

  Dipole Moment: [D]
     X:     2.1047      Y:    -0.9164      Z:     0.5474     Total:     2.3599

*** Psi4 exiting successfully. Buy a developer a beer!
