                               Psi4 1.3.2 release

  ==> Input File <==

--------------------------------------------------------------------------
#psi4
#
memory 32 gb

molecule  {
0 1
  O       -1.8913020     0.0537070    -0.0477600
  O        1.6373540    -0.6495170    -0.0243010
  O        0.5013320     1.3172450     0.0146240
  C       -0.7295033    -0.7527646     0.3397845
  C        0.5122950     0.0966670     0.0022440
  H       -0.7208860    -1.3357450     0.9707590
  H       -0.7086820    -1.4630600    -0.7928450
  H       -1.5835860     0.9744290     0.0563990
  H        2.3862870    -0.0178550    -0.0276700
units angstrom
no_reorient  #important for SAPT in psi4, default
symmetry c1  #important for SAPT in psi4, default
}

set PROPERTIES_ORIGIN ["COM"]
properties('MP2/aug-cc-pvtz', properties = ['dipole'])
--------------------------------------------------------------------------

    Molecular point group: c1
  Charge       = 0
  Multiplicity = 1
  Basis Set: AUG-CC-PVTZ
    Blend: AUG-CC-PVTZ
  Basis Set: (AUG-CC-PVTZ AUX)
    Blend: AUG-CC-PVTZ-JKFIT

    Orbital Energies [Eh]
    ---------------------

    Doubly Occupied:

       1A    -20.638737     2A    -20.576498     3A    -20.576154
       4A    -11.418556     5A    -11.320139     6A     -1.484719
       7A     -1.387449     8A     -1.355057     9A     -1.020494
      10A     -0.854647    11A     -0.745878    12A     -0.728533
      13A     -0.703850    14A     -0.646588    15A     -0.627310
      16A     -0.579040    17A     -0.535776    18A     -0.504634
      19A     -0.482948    20A     -0.445271

  @DF-RHF Final Energy:  -302.67758043290087

   => Energetics <=

    Nuclear Repulsion Energy =            178.3190032487370900
    One-Electron Energy =                -768.7286132664434035
    Two-Electron Energy =                 287.7320295848054457
    Total Energy =                       -302.6775804329008679
  Basis Set: (AUG-CC-PVTZ AUX)
    Blend: AUG-CC-PVTZ-RI
    Molecular point group: c1

    Geometry (in Angstrom), charge = 0, multiplicity = 1:

       Center              X                  Y                   Z               Mass
    ------------   -----------------  -----------------  -----------------  -----------------
         O           -1.900755453062     0.029903163116    -0.092407181030    15.994914619570
         O            1.627900546938    -0.673320836884    -0.068948181030    15.994914619570
         O            0.491878546938     1.293441163116    -0.030023181030    15.994914619570
         C           -0.738956753062    -0.776568436884     0.295137318970    12.000000000000
         C            0.502841546938     0.072863163116    -0.042403181030    12.000000000000
         H           -0.730339453062    -1.359548836884     0.926111818970     1.007825032230
         H           -0.718135453062    -1.486863836884    -0.837492181030     1.007825032230
         H           -1.593039453062     0.950625163116     0.011751818970     1.007825032230
         H            2.376833546938    -0.041658836884    -0.072317181030     1.007825032230

  Basis Set: AUG-CC-PVTZ
    Blend: AUG-CC-PVTZ
  Basis Set: (AUG-CC-PVTZ AUX)
    Blend: AUG-CC-PVTZ-JKFIT
	 Reference Energy          =    -302.6775804329008679 [Eh]
	 Singles Energy            =      -0.0000000000000000 [Eh]
	 Same-Spin Energy          =      -0.2851102570845740 [Eh]
	 Opposite-Spin Energy      =      -0.8623270041286253 [Eh]
	 Correlation Energy        =      -1.1474372612131993 [Eh]
	 Total Energy              =    -303.8250176941140808 [Eh]

	 ================> DF-SCS-MP2 Energies <==================
	-----------------------------------------------------------
	 SCS Same-Spin Scale       =       0.3333333333333333 [-]
	 SCS Opposite-Spin Scale   =       1.2000000000000000 [-]
	 SCS Same-Spin Energy      =      -0.0950367523615247 [Eh]
	 SCS Opposite-Spin Energy  =      -1.0347924049543502 [Eh]
	 SCS Correlation Energy    =      -1.1298291573158750 [Eh]
	 SCS Total Energy          =    -303.8074095902167642 [Eh]
	-----------------------------------------------------------

  Dipole Moment: [D]
     X:     2.0985      Y:    -0.8897      Z:     0.5939     Total:     2.3554

*** Psi4 exiting successfully. Buy a developer a beer!
