                               Psi4 1.3.2 release

  ==> Input File <==

--------------------------------------------------------------------------
#psi4
#
memory 32 gb

molecule  {
0 1
  O       -1.8913020     0.0537070    -0.0477600
  O        1.6373540    -0.6495170    -0.0243010
  O        0.5013320     1.3172450     0.0146240
  C       -0.7349424    -0.7519495     0.1398602
  C        0.5122950     0.0966670     0.0022440
  H       -0.7208860    -1.3357450     0.9707590
  H       -0.7086820    -1.4630600    -0.7928450
  H       -1.5835860     0.9744290     0.0563990
  H        2.3862870    -0.0178550    -0.0276700
units angstrom
no_reorient  #important for SAPT in psi4, default
symmetry c1  #important for SAPT in psi4, default
}

set PROPERTIES_ORIGIN ["COM"]
properties('MP2/aug-cc-pvtz', properties = ['dipole'])
--------------------------------------------------------------------------

    Molecular point group: c1
  Charge       = 0
  Multiplicity = 1
  Basis Set: AUG-CC-PVTZ
    Blend: AUG-CC-PVTZ
  Basis Set: (AUG-CC-PVTZ AUX)
    Blend: AUG-CC-PVTZ-JKFIT

    Orbital Energies [Eh]
    ---------------------

    Doubly Occupied:

       1A    -20.638646     2A    -20.575534     3A    -20.571603
       4A    -11.411358     5A    -11.311743     6A     -1.484558
       7A     -1.389518     8A     -1.362870     9A     -1.010653
      10A     -0.837217    11A     -0.741195    12A     -0.728002
      13A     -0.693845    14A     -0.644778    15A     -0.621810
      16A     -0.600354    17A     -0.542289    18A     -0.505298
      19A     -0.479537    20A     -0.467912

  @DF-RHF Final Energy:  -302.77402205114760

   => Energetics <=

    Nuclear Repulsion Energy =            179.0145101472319595
    One-Electron Energy =                -770.3396208994851122
    Two-Electron Energy =                 288.5510887011055843
    Total Energy =                       -302.7740220511475968
  Basis Set: (AUG-CC-PVTZ AUX)
    Blend: AUG-CC-PVTZ-RI
    Molecular point group: c1

    Geometry (in Angstrom), charge = 0, multiplicity = 1:

       Center              X                  Y                   Z               Mass
    ------------   -----------------  -----------------  -----------------  -----------------
         O           -1.899896829058     0.029774490280    -0.060846848841    15.994914619570
         O            1.628759170942    -0.673449509720    -0.037387848841    15.994914619570
         O            0.492737170942     1.293312490280     0.001537151159    15.994914619570
         C           -0.743537229058    -0.775882009720     0.126773351159    12.000000000000
         C            0.503700170942     0.072734490280    -0.010842848841    12.000000000000
         H           -0.729480829058    -1.359677509720     0.957672151159     1.007825032230
         H           -0.717276829058    -1.486992509720    -0.805931848841     1.007825032230
         H           -1.592180829058     0.950496490280     0.043312151159     1.007825032230
         H            2.377692170942    -0.041787509720    -0.040756848841     1.007825032230

  Basis Set: AUG-CC-PVTZ
    Blend: AUG-CC-PVTZ
  Basis Set: (AUG-CC-PVTZ AUX)
    Blend: AUG-CC-PVTZ-JKFIT
	 Reference Energy          =    -302.7740220511475968 [Eh]
	 Singles Energy            =      -0.0000000000000000 [Eh]
	 Same-Spin Energy          =      -0.2838543492937604 [Eh]
	 Opposite-Spin Energy      =      -0.8572490810331379 [Eh]
	 Correlation Energy        =      -1.1411034303268983 [Eh]
	 Total Energy              =    -303.9151254814744902 [Eh]

	 ================> DF-SCS-MP2 Energies <==================
	-----------------------------------------------------------
	 SCS Same-Spin Scale       =       0.3333333333333333 [-]
	 SCS Opposite-Spin Scale   =       1.2000000000000000 [-]
	 SCS Same-Spin Energy      =      -0.0946181164312535 [Eh]
	 SCS Opposite-Spin Energy  =      -1.0286988972397655 [Eh]
	 SCS Correlation Energy    =      -1.1233170136710189 [Eh]
	 SCS Total Energy          =    -303.8973390648185955 [Eh]
	-----------------------------------------------------------

  Dipole Moment: [D]
     X:     2.1046      Y:    -0.9712      Z:     0.3678     Total:     2.3469

*** Psi4 exiting successfully. Buy a developer a beer!
