                               Psi4 1.3.2 release

  ==> Input File <==

--------------------------------------------------------------------------
#psi4
#
memory 32 gb

molecule  {
1 1
  N       -2.3156210     0.0000130     0.0092220
  C       -0.8271992     0.0002726    -0.0411965
  C       -0.1716580    -1.2259970    -0.0050100
  C       -0.1715260     1.2260380    -0.0050050
  C        1.2247150    -1.2130070     0.0014150
  C        1.2248800     1.2129210     0.0014120
  C        1.9183010    -0.0000690     0.0065130
  H       -0.7164250    -2.1682170    -0.0085500
  H       -0.7161430     2.1683510    -0.0085270
  H       -2.6983940     0.8319390    -0.4619130
  H       -2.6987610    -0.8244740    -0.4745350
  H       -2.6873600    -0.0071920     0.9705560
  H        1.7664630    -2.1541410     0.0017740
  H        1.7667170     2.1540020     0.0017630
  H        3.0042640    -0.0001380     0.0102050
units angstrom
no_reorient  #important for SAPT in psi4, default
symmetry c1  #important for SAPT in psi4, default
}

set PROPERTIES_ORIGIN ["COM"]
properties('MP2/aug-cc-pvtz', properties = ['dipole'])
--------------------------------------------------------------------------

    Molecular point group: c1
  Charge       = 1
  Multiplicity = 1
  Basis Set: AUG-CC-PVTZ
    Blend: AUG-CC-PVTZ
  Basis Set: (AUG-CC-PVTZ AUX)
    Blend: AUG-CC-PVTZ-JKFIT

    Orbital Energies [Eh]
    ---------------------

    Doubly Occupied:

       1A    -15.897158     2A    -11.468997     3A    -11.413620
       4A    -11.413582     5A    -11.397273     6A    -11.397118
       7A    -11.392586     8A     -1.511188     9A     -1.315893
      10A     -1.187384    11A     -1.179299    12A     -1.017615
      13A     -1.003562    14A     -0.957544    15A     -0.934214
      16A     -0.895594    17A     -0.835086    18A     -0.787200
      19A     -0.768053    20A     -0.756149    21A     -0.674436
      22A     -0.672611    23A     -0.664362    24A     -0.508219
      25A     -0.501636

  @DF-RHF Final Energy:  -286.18828758285832

   => Energetics <=

    Nuclear Repulsion Energy =            280.4714635150573372
    One-Electron Energy =                -932.2187444113819765
    Two-Electron Energy =                 365.5589933134662601
    Total Energy =                       -286.1882875828583224
  Basis Set: (AUG-CC-PVTZ AUX)
    Blend: AUG-CC-PVTZ-RI
    Molecular point group: c1

    Geometry (in Angstrom), charge = 1, multiplicity = 1:

       Center              X                  Y                   Z               Mass
    ------------   -----------------  -----------------  -----------------  -----------------
         N           -2.346890499981    -0.000010560743     0.012861030438    14.003074004430
         C           -0.858468699981     0.000249039257    -0.037557469562    12.000000000000
         C           -0.202927499981    -1.226020560743    -0.001370969562    12.000000000000
         C           -0.202795499981     1.226014439257    -0.001365969562    12.000000000000
         C            1.193445500019    -1.213030560743     0.005054030438    12.000000000000
         C            1.193610500019     1.212897439257     0.005051030438    12.000000000000
         C            1.887031500019    -0.000092560743     0.010152030438    12.000000000000
         H           -0.747694499981    -2.168240560743    -0.004910969562     1.007825032230
         H           -0.747412499981     2.168327439257    -0.004887969562     1.007825032230
         H           -2.729663499981     0.831915439257    -0.458273969562     1.007825032230
         H           -2.730030499981    -0.824497560743    -0.470895969562     1.007825032230
         H           -2.718629499981    -0.007215560743     0.974195030438     1.007825032230
         H            1.735193500019    -2.154164560743     0.005413030438     1.007825032230
         H            1.735447500019     2.153978439257     0.005402030438     1.007825032230
         H            2.972994500019    -0.000161560743     0.013844030438     1.007825032230

  Basis Set: AUG-CC-PVTZ
    Blend: AUG-CC-PVTZ
  Basis Set: (AUG-CC-PVTZ AUX)
    Blend: AUG-CC-PVTZ-JKFIT
	 Reference Energy          =    -286.1882875828583224 [Eh]
	 Singles Energy            =      -0.0000000000000000 [Eh]
	 Same-Spin Energy          =      -0.3089760882486777 [Eh]
	 Opposite-Spin Energy      =      -0.9925381340374624 [Eh]
	 Correlation Energy        =      -1.3015142222861402 [Eh]
	 Total Energy              =    -287.4898018051444524 [Eh]

	 ================> DF-SCS-MP2 Energies <==================
	-----------------------------------------------------------
	 SCS Same-Spin Scale       =       0.3333333333333333 [-]
	 SCS Opposite-Spin Scale   =       1.2000000000000000 [-]
	 SCS Same-Spin Energy      =      -0.1029920294162259 [Eh]
	 SCS Opposite-Spin Energy  =      -1.1910457608449547 [Eh]
	 SCS Correlation Energy    =      -1.2940377902611806 [Eh]
	 SCS Total Energy          =    -287.4823253731195223 [Eh]
	-----------------------------------------------------------

  Dipole Moment: [D]
     X:    -7.2312      Y:    -0.0003      Z:     0.0989     Total:     7.2319

*** Psi4 exiting successfully. Buy a developer a beer!
