                               Psi4 1.3.2 release

  ==> Input File <==

--------------------------------------------------------------------------
#psi4
#
memory 32 gb

molecule  {
1 1
  N       -2.3156210     0.0000130     0.0092220
  C       -0.8265460     0.0000770    -0.0152130
  C       -0.1716580    -1.2259970    -0.0050100
  C       -0.1715260     1.2260380    -0.0050050
  C        1.2247150    -1.2130070     0.0014150
  C        1.2248800     1.2129210     0.0014120
  C        1.9183010    -0.0000690     0.0065130
  H       -0.7164250    -2.1682170    -0.0085500
  H       -0.7161430     2.1683510    -0.0085270
  H       -2.6983940     0.8319390    -0.4619130
  H       -2.6987610    -0.8244740    -0.4745350
  H       -2.6152288    -0.0057940     0.7840215
  H        1.7664630    -2.1541410     0.0017740
  H        1.7667170     2.1540020     0.0017630
  H        3.0042640    -0.0001380     0.0102050
units angstrom
no_reorient  #important for SAPT in psi4, default
symmetry c1  #important for SAPT in psi4, default
}

set PROPERTIES_ORIGIN ["COM"]
properties('MP2/aug-cc-pvtz', properties = ['dipole'])
--------------------------------------------------------------------------

    Molecular point group: c1
  Charge       = 1
  Multiplicity = 1
  Basis Set: AUG-CC-PVTZ
    Blend: AUG-CC-PVTZ
  Basis Set: (AUG-CC-PVTZ AUX)
    Blend: AUG-CC-PVTZ-JKFIT

    Orbital Energies [Eh]
    ---------------------

    Doubly Occupied:

       1A    -15.882397     2A    -11.471027     3A    -11.415388
       4A    -11.415340     5A    -11.398544     6A    -11.398385
       7A    -11.393960     8A     -1.553510     9A     -1.320975
      10A     -1.189057    11A     -1.186394    12A     -1.028995
      13A     -1.020691    14A     -1.000762    15A     -0.939828
      16A     -0.899666    17A     -0.837519    18A     -0.789391
      19A     -0.769893    20A     -0.757713    21A     -0.677000
      22A     -0.674797    23A     -0.665864    24A     -0.510783
      25A     -0.502982

  @DF-RHF Final Energy:  -286.14898150376109

   => Energetics <=

    Nuclear Repulsion Energy =            281.7004370062415433
    One-Electron Energy =                -934.2971144167787543
    Two-Electron Energy =                 366.4476959067761754
    Total Energy =                       -286.1489815037610924
  Basis Set: (AUG-CC-PVTZ AUX)
    Blend: AUG-CC-PVTZ-RI
    Molecular point group: c1

    Geometry (in Angstrom), charge = 1, multiplicity = 1:

       Center              X                  Y                   Z               Mass
    ------------   -----------------  -----------------  -----------------  -----------------
         N           -2.347746646813    -0.000000586216     0.011544845097    14.003074004430
         C           -0.858671646813     0.000063413784    -0.012890154903    12.000000000000
         C           -0.203783646813    -1.226010586216    -0.002687154903    12.000000000000
         C           -0.203651646813     1.226024413784    -0.002682154903    12.000000000000
         C            1.192589353187    -1.213020586216     0.003737845097    12.000000000000
         C            1.192754353187     1.212907413784     0.003734845097    12.000000000000
         C            1.886175353187    -0.000082586216     0.008835845097    12.000000000000
         H           -0.748550646813    -2.168230586216    -0.006227154903     1.007825032230
         H           -0.748268646813     2.168337413784    -0.006204154903     1.007825032230
         H           -2.730519646813     0.831925413784    -0.459590154903     1.007825032230
         H           -2.730886646813    -0.824487586216    -0.472212154903     1.007825032230
         H           -2.647354446813    -0.005807586216     0.786344345097     1.007825032230
         H            1.734337353187    -2.154154586216     0.004096845097     1.007825032230
         H            1.734591353187     2.153988413784     0.004085845097     1.007825032230
         H            2.972138353187    -0.000151586216     0.012527845097     1.007825032230

  Basis Set: AUG-CC-PVTZ
    Blend: AUG-CC-PVTZ
  Basis Set: (AUG-CC-PVTZ AUX)
    Blend: AUG-CC-PVTZ-JKFIT
	 Reference Energy          =    -286.1489815037610924 [Eh]
	 Singles Energy            =      -0.0000000000000000 [Eh]
	 Same-Spin Energy          =      -0.3080402017678570 [Eh]
	 Opposite-Spin Energy      =      -0.9898578360495034 [Eh]
	 Correlation Energy        =      -1.2978980378173604 [Eh]
	 Total Energy              =    -287.4468795415784257 [Eh]

	 ================> DF-SCS-MP2 Energies <==================
	-----------------------------------------------------------
	 SCS Same-Spin Scale       =       0.3333333333333333 [-]
	 SCS Opposite-Spin Scale   =       1.2000000000000000 [-]
	 SCS Same-Spin Energy      =      -0.1026800672559523 [Eh]
	 SCS Opposite-Spin Energy  =      -1.1878294032594041 [Eh]
	 SCS Correlation Energy    =      -1.2905094705153564 [Eh]
	 SCS Total Energy          =    -287.4394909742764526 [Eh]
	-----------------------------------------------------------

  Dipole Moment: [D]
     X:    -7.0875      Y:     0.0015      Z:    -0.1971     Total:     7.0902

*** Psi4 exiting successfully. Buy a developer a beer!
