                               Psi4 1.3.2 release

  ==> Input File <==

--------------------------------------------------------------------------
#psi4
#
memory 32 gb

molecule  {
1 1
  N       -2.3156210     0.0000130     0.0092220
  C       -0.8265460     0.0000770    -0.0152130
  C       -0.1716580    -1.2259970    -0.0050100
  C       -0.1715260     1.2260380    -0.0050050
  C        1.2247150    -1.2130070     0.0014150
  C        1.2248800     1.2129210     0.0014120
  C        1.9183010    -0.0000690     0.0065130
  H       -0.7164250    -2.1682170    -0.0085500
  H       -0.7161430     2.1683510    -0.0085270
  H       -2.6983940     0.8319390    -0.4619130
  H       -2.6807672    -0.8147146    -0.5040841
  H       -2.6873600    -0.0071920     0.9705560
  H        1.7664630    -2.1541410     0.0017740
  H        1.7667170     2.1540020     0.0017630
  H        3.0042640    -0.0001380     0.0102050
units angstrom
no_reorient  #important for SAPT in psi4, default
symmetry c1  #important for SAPT in psi4, default
}

set PROPERTIES_ORIGIN ["COM"]
properties('MP2/aug-cc-pvtz', properties = ['dipole'])
--------------------------------------------------------------------------

    Molecular point group: c1
  Charge       = 1
  Multiplicity = 1
  Basis Set: AUG-CC-PVTZ
    Blend: AUG-CC-PVTZ
  Basis Set: (AUG-CC-PVTZ AUX)
    Blend: AUG-CC-PVTZ-JKFIT

    Orbital Energies [Eh]
    ---------------------

    Doubly Occupied:

       1A    -15.897156     2A    -11.468818     3A    -11.413443
       4A    -11.413355     5A    -11.397290     6A    -11.397120
       7A    -11.392412     8A     -1.511346     9A     -1.315926
      10A     -1.187455    11A     -1.179126    12A     -1.017435
      13A     -1.003081    14A     -0.960961    15A     -0.932796
      16A     -0.895426    17A     -0.834836    18A     -0.787240
      19A     -0.767953    20A     -0.756135    21A     -0.674110
      22A     -0.673055    23A     -0.664409    24A     -0.508219
      25A     -0.501694

  @DF-RHF Final Energy:  -286.18851486503314

   => Energetics <=

    Nuclear Repulsion Energy =            280.5213384179766081
    One-Electron Energy =                -932.3181080328350845
    Two-Electron Energy =                 365.6082547498253348
    Total Energy =                       -286.1885148650331416
  Basis Set: (AUG-CC-PVTZ AUX)
    Blend: AUG-CC-PVTZ-RI
    Molecular point group: c1

    Geometry (in Angstrom), charge = 1, multiplicity = 1:

       Center              X                  Y                   Z               Mass
    ------------   -----------------  -----------------  -----------------  -----------------
         N           -2.347166615602    -0.000090170736     0.009862894513    14.003074004430
         C           -0.858091615602    -0.000026170736    -0.014572105487    12.000000000000
         C           -0.203203615602    -1.226100170736    -0.004369105487    12.000000000000
         C           -0.203071615602     1.225934829264    -0.004364105487    12.000000000000
         C            1.193169384398    -1.213110170736     0.002055894513    12.000000000000
         C            1.193334384398     1.212817829264     0.002052894513    12.000000000000
         C            1.886755384398    -0.000172170736     0.007153894513    12.000000000000
         H           -0.747970615602    -2.168320170736    -0.007909105487     1.007825032230
         H           -0.747688615602     2.168247829264    -0.007886105487     1.007825032230
         H           -2.729939615602     0.831835829264    -0.461272105487     1.007825032230
         H           -2.712312815602    -0.814817770736    -0.503443205487     1.007825032230
         H           -2.718905615602    -0.007295170736     0.971196894513     1.007825032230
         H            1.734917384398    -2.154244170736     0.002414894513     1.007825032230
         H            1.735171384398     2.153898829264     0.002403894513     1.007825032230
         H            2.972718384398    -0.000241170736     0.010845894513     1.007825032230

  Basis Set: AUG-CC-PVTZ
    Blend: AUG-CC-PVTZ
  Basis Set: (AUG-CC-PVTZ AUX)
    Blend: AUG-CC-PVTZ-JKFIT
	 Reference Energy          =    -286.1885148650331416 [Eh]
	 Singles Energy            =      -0.0000000000000000 [Eh]
	 Same-Spin Energy          =      -0.3089720965239717 [Eh]
	 Opposite-Spin Energy      =      -0.9925063982029725 [Eh]
	 Correlation Energy        =      -1.3014784947269442 [Eh]
	 Total Energy              =    -287.4899933597600921 [Eh]

	 ================> DF-SCS-MP2 Energies <==================
	-----------------------------------------------------------
	 SCS Same-Spin Scale       =       0.3333333333333333 [-]
	 SCS Opposite-Spin Scale   =       1.2000000000000000 [-]
	 SCS Same-Spin Energy      =      -0.1029906988413239 [Eh]
	 SCS Opposite-Spin Energy  =      -1.1910076778435670 [Eh]
	 SCS Correlation Energy    =      -1.2939983766848908 [Eh]
	 SCS Total Energy          =    -287.4825132417180384 [Eh]
	-----------------------------------------------------------

  Dipole Moment: [D]
     X:    -7.2238      Y:     0.0121      Z:     0.0450     Total:     7.2240

*** Psi4 exiting successfully. Buy a developer a beer!
