                               Psi4 1.3.2 release

  ==> Input File <==

--------------------------------------------------------------------------
#psi4
#
memory 32 gb

molecule  {
1 1
  N       -2.3156210     0.0000130     0.0092220
  C       -0.8265460     0.0000770    -0.0152130
  C       -0.1716580    -1.2259970    -0.0050100
  C       -0.1715260     1.2260380    -0.0050050
  C        1.2247150    -1.2130070     0.0014150
  C        1.2248800     1.2129210     0.0014120
  C        1.9183010    -0.0000690     0.0065130
  H       -0.7164250    -2.1682170    -0.0085500
  H       -0.7161430     2.1683510    -0.0085270
  H       -2.6983940     0.8319390    -0.4619130
  H       -2.6434674    -0.7922310    -0.5612709
  H       -2.6873600    -0.0071920     0.9705560
  H        1.7664630    -2.1541410     0.0017740
  H        1.7667170     2.1540020     0.0017630
  H        3.0042640    -0.0001380     0.0102050
units angstrom
no_reorient  #important for SAPT in psi4, default
symmetry c1  #important for SAPT in psi4, default
}

set PROPERTIES_ORIGIN ["COM"]
properties('MP2/aug-cc-pvtz', properties = ['dipole'])
--------------------------------------------------------------------------

    Molecular point group: c1
  Charge       = 1
  Multiplicity = 1
  Basis Set: AUG-CC-PVTZ
    Blend: AUG-CC-PVTZ
  Basis Set: (AUG-CC-PVTZ AUX)
    Blend: AUG-CC-PVTZ-JKFIT

    Orbital Energies [Eh]
    ---------------------

    Doubly Occupied:

       1A    -15.896886     2A    -11.468472     3A    -11.413546
       4A    -11.413225     5A    -11.397415     6A    -11.397148
       7A    -11.392519     8A     -1.511541     9A     -1.315808
      10A     -1.187525    11A     -1.178756    12A     -1.017151
      13A     -1.002235    14A     -0.967833    15A     -0.929196
      16A     -0.894441    17A     -0.834514    18A     -0.786843
      19A     -0.767825    20A     -0.756135    21A     -0.674374
      22A     -0.673004    23A     -0.664416    24A     -0.508430
      25A     -0.501782

  @DF-RHF Final Energy:  -286.18741481459563

   => Energetics <=

    Nuclear Repulsion Energy =            280.5776156544887954
    One-Electron Energy =                -932.4280211957927804
    Two-Electron Energy =                 365.6629907267083581
    Total Energy =                       -286.1874148145956269
  Basis Set: (AUG-CC-PVTZ AUX)
    Blend: AUG-CC-PVTZ-RI
    Molecular point group: c1

    Geometry (in Angstrom), charge = 1, multiplicity = 1:

       Center              X                  Y                   Z               Mass
    ------------   -----------------  -----------------  -----------------  -----------------
         N           -2.347566247800    -0.000331061317     0.010475597170    14.003074004430
         C           -0.858491247800    -0.000267061317    -0.013959402830    12.000000000000
         C           -0.203603247800    -1.226341061317    -0.003756402830    12.000000000000
         C           -0.203471247800     1.225693938683    -0.003751402830    12.000000000000
         C            1.192769752200    -1.213351061317     0.002668597170    12.000000000000
         C            1.192934752200     1.212576938683     0.002665597170    12.000000000000
         C            1.886355752200    -0.000413061317     0.007766597170    12.000000000000
         H           -0.748370247800    -2.168561061317    -0.007296402830     1.007825032230
         H           -0.748088247800     2.168006938683    -0.007273402830     1.007825032230
         H           -2.730339247800     0.831594938683    -0.460659402830     1.007825032230
         H           -2.675412647800    -0.792575061317    -0.560017302830     1.007825032230
         H           -2.719305247800    -0.007536061317     0.971809597170     1.007825032230
         H            1.734517752200    -2.154485061317     0.003027597170     1.007825032230
         H            1.734771752200     2.153657938683     0.003016597170     1.007825032230
         H            2.972318752200    -0.000482061317     0.011458597170     1.007825032230

  Basis Set: AUG-CC-PVTZ
    Blend: AUG-CC-PVTZ
  Basis Set: (AUG-CC-PVTZ AUX)
    Blend: AUG-CC-PVTZ-JKFIT
	 Reference Energy          =    -286.1874148145956269 [Eh]
	 Singles Energy            =      -0.0000000000000000 [Eh]
	 Same-Spin Energy          =      -0.3090356617626803 [Eh]
	 Opposite-Spin Energy      =      -0.9926374720602829 [Eh]
	 Correlation Energy        =      -1.3016731338229630 [Eh]
	 Total Energy              =    -287.4890879484186144 [Eh]

	 ================> DF-SCS-MP2 Energies <==================
	-----------------------------------------------------------
	 SCS Same-Spin Scale       =       0.3333333333333333 [-]
	 SCS Opposite-Spin Scale   =       1.2000000000000000 [-]
	 SCS Same-Spin Energy      =      -0.1030118872542267 [Eh]
	 SCS Opposite-Spin Energy  =      -1.1911649664723394 [Eh]
	 SCS Correlation Energy    =      -1.2941768537265661 [Eh]
	 SCS Total Energy          =    -287.4815916683222099 [Eh]
	-----------------------------------------------------------

  Dipole Moment: [D]
     X:    -7.1849      Y:     0.0400      Z:    -0.0089     Total:     7.1851

*** Psi4 exiting successfully. Buy a developer a beer!
