                               Psi4 1.3.2 release

  ==> Input File <==

--------------------------------------------------------------------------
#psi4
#
memory 32 gb

molecule  {
1 1
  N       -2.3156210     0.0000130     0.0092220
  C       -0.9265325     0.0000727    -0.0135723
  C       -0.1716580    -1.2259970    -0.0050100
  C       -0.1715260     1.2260380    -0.0050050
  C        1.2247150    -1.2130070     0.0014150
  C        1.2248800     1.2129210     0.0014120
  C        1.9183010    -0.0000690     0.0065130
  H       -0.7164250    -2.1682170    -0.0085500
  H       -0.7161430     2.1683510    -0.0085270
  H       -2.6983940     0.8319390    -0.4619130
  H       -2.6987610    -0.8244740    -0.4745350
  H       -2.6873600    -0.0071920     0.9705560
  H        1.7664630    -2.1541410     0.0017740
  H        1.7667170     2.1540020     0.0017630
  H        3.0042640    -0.0001380     0.0102050
units angstrom
no_reorient  #important for SAPT in psi4, default
symmetry c1  #important for SAPT in psi4, default
}

set PROPERTIES_ORIGIN ["COM"]
properties('MP2/aug-cc-pvtz', properties = ['dipole'])
--------------------------------------------------------------------------

    Molecular point group: c1
  Charge       = 1
  Multiplicity = 1
  Basis Set: AUG-CC-PVTZ
    Blend: AUG-CC-PVTZ
  Basis Set: (AUG-CC-PVTZ AUX)
    Blend: AUG-CC-PVTZ-JKFIT

    Orbital Energies [Eh]
    ---------------------

    Doubly Occupied:

       1A    -15.906851     2A    -11.466522     3A    -11.418300
       4A    -11.418241     5A    -11.395498     6A    -11.395015
       7A    -11.393521     8A     -1.541877     9A     -1.302871
      10A     -1.179428    11A     -1.175702    12A     -1.021018
      13A     -1.020713    14A     -0.974791    15A     -0.939341
      16A     -0.902793    17A     -0.841246    18A     -0.774389
      19A     -0.767692    20A     -0.748057    21A     -0.676487
      22A     -0.661156    23A     -0.653446    24A     -0.501602
      25A     -0.498105

  @DF-RHF Final Energy:  -286.17541342475243

   => Energetics <=

    Nuclear Repulsion Energy =            279.9430751618797331
    One-Electron Energy =                -931.0876533839326612
    Two-Electron Energy =                 364.9691647973004933
    Total Energy =                       -286.1754134247524348
  Basis Set: (AUG-CC-PVTZ AUX)
    Blend: AUG-CC-PVTZ-RI
    Molecular point group: c1

    Geometry (in Angstrom), charge = 1, multiplicity = 1:

       Center              X                  Y                   Z               Mass
    ------------   -----------------  -----------------  -----------------  -----------------
         N           -2.334218506618     0.000014940589     0.009336998929    14.003074004430
         C           -0.945130006618     0.000074640589    -0.013457301071    12.000000000000
         C           -0.190255506618    -1.225995059411    -0.004895001071    12.000000000000
         C           -0.190123506618     1.226039940589    -0.004890001071    12.000000000000
         C            1.206117493382    -1.213005059411     0.001529998929    12.000000000000
         C            1.206282493382     1.212922940589     0.001526998929    12.000000000000
         C            1.899703493382    -0.000067059411     0.006627998929    12.000000000000
         H           -0.735022506618    -2.168215059411    -0.008435001071     1.007825032230
         H           -0.734740506618     2.168352940589    -0.008412001071     1.007825032230
         H           -2.716991506618     0.831940940589    -0.461798001071     1.007825032230
         H           -2.717358506618    -0.824472059411    -0.474420001071     1.007825032230
         H           -2.705957506618    -0.007190059411     0.970670998929     1.007825032230
         H            1.747865493382    -2.154139059411     0.001888998929     1.007825032230
         H            1.748119493382     2.154003940589     0.001877998929     1.007825032230
         H            2.985666493382    -0.000136059411     0.010319998929     1.007825032230

  Basis Set: AUG-CC-PVTZ
    Blend: AUG-CC-PVTZ
  Basis Set: (AUG-CC-PVTZ AUX)
    Blend: AUG-CC-PVTZ-JKFIT
	 Reference Energy          =    -286.1754134247524348 [Eh]
	 Singles Energy            =      -0.0000000000000000 [Eh]
	 Same-Spin Energy          =      -0.3098021629228037 [Eh]
	 Opposite-Spin Energy      =      -0.9938167466291030 [Eh]
	 Correlation Energy        =      -1.3036189095519066 [Eh]
	 Total Energy              =    -287.4790323343043497 [Eh]

	 ================> DF-SCS-MP2 Energies <==================
	-----------------------------------------------------------
	 SCS Same-Spin Scale       =       0.3333333333333333 [-]
	 SCS Opposite-Spin Scale   =       1.2000000000000000 [-]
	 SCS Same-Spin Energy      =      -0.1032673876409345 [Eh]
	 SCS Opposite-Spin Energy  =      -1.1925800959549235 [Eh]
	 SCS Correlation Energy    =      -1.2958474835958580 [Eh]
	 SCS Total Energy          =    -287.4712609083483130 [Eh]
	-----------------------------------------------------------

  Dipole Moment: [D]
     X:    -7.4067      Y:    -0.0004      Z:     0.0799     Total:     7.4071

*** Psi4 exiting successfully. Buy a developer a beer!
