                               Psi4 1.4a3.dev225

  ==> Input File <==

--------------------------------------------------------------------------
#psi4
#
memory 32 gb

molecule  {
1 1
  N        2.3113160     0.0000000     0.0062670
  C        0.8846194     0.0000000    -0.0109709
  C        0.1710600     1.2220230    -0.0032900
  C        0.1710600    -1.2220230    -0.0032920
  C       -1.2250620     1.2112680     0.0011370
  C       -1.2250620    -1.2112680     0.0011350
  C       -1.9212210     0.0000000     0.0049050
  H        0.7202500     2.1599530    -0.0070580
  H        0.7202510    -2.1599530    -0.0070620
  H        2.6997490    -0.8257060    -0.4685630
  H        2.6997490     0.8257100    -0.4685560
  H        2.6858560    -0.0000040     0.9646680
  H       -1.7649950     2.1535280     0.0013910
  H       -1.7649950    -2.1535280     0.0013870
  H       -3.0074630     0.0000000     0.0058010
units angstrom
no_reorient  #important for SAPT in psi4, default
symmetry c1  #important for SAPT in psi4, default
}

set PROPERTIES_ORIGIN ["COM"]
properties('MP2/aug-cc-pvtz', properties = ['dipole'])
--------------------------------------------------------------------------

    Molecular point group: c1
  Charge       = 1
  Multiplicity = 1
  Basis Set: AUG-CC-PVTZ
    Blend: AUG-CC-PVTZ
  Basis Set: (AUG-CC-PVTZ AUX)
    Blend: AUG-CC-PVTZ-JKFIT

    Orbital Energies [Eh]
    ---------------------

    Doubly Occupied:

       1A    -15.903611     2A    -11.466231     3A    -11.415202
       4A    -11.415174     5A    -11.395879     6A    -11.395605
       7A    -11.393002     8A     -1.530694     9A     -1.308824
      10A     -1.182395    11A     -1.178525    12A     -1.019887
      13A     -1.014175    14A     -0.968598    15A     -0.938027
      16A     -0.901142    17A     -0.839897    18A     -0.779440
      19A     -0.768315    20A     -0.751423    21A     -0.675835
      22A     -0.666708    23A     -0.657925    24A     -0.504835
      25A     -0.499246

  @DF-RHF Final Energy:  -286.18433671938959

   => Energetics <=

    Nuclear Repulsion Energy =            280.4510369528717320
    One-Electron Energy =                -932.1295580840779849
    Two-Electron Energy =                 365.4941844118166614
    Total Energy =                       -286.1843367193895915
  Basis Set: (AUG-CC-PVTZ AUX)
    Blend: AUG-CC-PVTZ-RI
    Molecular point group: c1

    Geometry (in Angstrom), charge = 1, multiplicity = 1:

       Center              X                  Y                   Z               Mass
    ------------   -----------------  -----------------  -----------------  -----------------
         N            2.336383080855    -0.000000000000     0.006421927098    14.003074004430
         C            0.909686480855    -0.000000000000    -0.010815972902    12.000000000000
         C            0.196127080855     1.222023000000    -0.003135072902    12.000000000000
         C            0.196127080855    -1.222023000000    -0.003137072902    12.000000000000
         C           -1.199994919145     1.211268000000     0.001291927098    12.000000000000
         C           -1.199994919145    -1.211268000000     0.001289927098    12.000000000000
         C           -1.896153919145    -0.000000000000     0.005059927098    12.000000000000
         H            0.745317080855     2.159953000000    -0.006903072902     1.007825032230
         H            0.745318080855    -2.159953000000    -0.006907072902     1.007825032230
         H            2.724816080855    -0.825706000000    -0.468408072902     1.007825032230
         H            2.724816080855     0.825710000000    -0.468401072902     1.007825032230
         H            2.710923080855    -0.000004000000     0.964822927098     1.007825032230
         H           -1.739927919145     2.153528000000     0.001545927098     1.007825032230
         H           -1.739927919145    -2.153528000000     0.001541927098     1.007825032230
         H           -2.982395919145    -0.000000000000     0.005955927098     1.007825032230

  Basis Set: AUG-CC-PVTZ
    Blend: AUG-CC-PVTZ
  Basis Set: (AUG-CC-PVTZ AUX)
    Blend: AUG-CC-PVTZ-JKFIT
	 Reference Energy          =    -286.1843367193895915 [Eh]
	 Singles Energy            =      -0.0000000000000000 [Eh]
	 Same-Spin Energy          =      -0.3093481871012611 [Eh]
	 Opposite-Spin Energy      =      -0.9928755731344785 [Eh]
	 Correlation Energy        =      -1.3022237602357396 [Eh]
	 Total Energy              =    -287.4865604796253251 [Eh]

	 ================> DF-SCS-MP2 Energies <==================
	-----------------------------------------------------------
	 SCS Same-Spin Scale       =       0.3333333333333333 [-]
	 SCS Opposite-Spin Scale   =       1.2000000000000000 [-]
	 SCS Same-Spin Energy      =      -0.1031160623670870 [Eh]
	 SCS Opposite-Spin Energy  =      -1.1914506877613742 [Eh]
	 SCS Correlation Energy    =      -1.2945667501284612 [Eh]
	 SCS Total Energy          =    -287.4789034695180590 [Eh]
	-----------------------------------------------------------

  Dipole Moment: [D]
     X:     7.3703      Y:    -0.0000      Z:     0.0642     Total:     7.3706

*** Psi4 exiting successfully. Buy a developer a beer!
