                               Psi4 1.3.2 release

  ==> Input File <==

--------------------------------------------------------------------------
#psi4
#
memory 32 gb

molecule  {
1 1
  N       -2.3153858    -0.0259746     0.0096622
  C       -0.8265460     0.0000770    -0.0152130
  C       -0.1716580    -1.2259970    -0.0050100
  C       -0.1715260     1.2260380    -0.0050050
  C        1.2247150    -1.2130070     0.0014150
  C        1.2248800     1.2129210     0.0014120
  C        1.9183010    -0.0000690     0.0065130
  H       -0.7164250    -2.1682170    -0.0085500
  H       -0.7161430     2.1683510    -0.0085270
  H       -2.6983940     0.8319390    -0.4619130
  H       -2.6987610    -0.8244740    -0.4745350
  H       -2.6873600    -0.0071920     0.9705560
  H        1.7664630    -2.1541410     0.0017740
  H        1.7667170     2.1540020     0.0017630
  H        3.0042640    -0.0001380     0.0102050
units angstrom
no_reorient  #important for SAPT in psi4, default
symmetry c1  #important for SAPT in psi4, default
}

set PROPERTIES_ORIGIN ["COM"]
properties('MP2/aug-cc-pvtz', properties = ['dipole'])
--------------------------------------------------------------------------

    Molecular point group: c1
  Charge       = 1
  Multiplicity = 1
  Basis Set: AUG-CC-PVTZ
    Blend: AUG-CC-PVTZ
  Basis Set: (AUG-CC-PVTZ AUX)
    Blend: AUG-CC-PVTZ-JKFIT

    Orbital Energies [Eh]
    ---------------------

    Doubly Occupied:

       1A    -15.897230     2A    -11.469040     3A    -11.414001
       4A    -11.412825     5A    -11.397413     6A    -11.396937
       7A    -11.392368     8A     -1.511368     9A     -1.316017
      10A     -1.187429    11A     -1.179378    12A     -1.017844
      13A     -1.003632    14A     -0.959709    15A     -0.931970
      16A     -0.895673    17A     -0.834981    18A     -0.787331
      19A     -0.767984    20A     -0.756121    21A     -0.673999
      22A     -0.673076    23A     -0.664384    24A     -0.508126
      25A     -0.501658

  @DF-RHF Final Energy:  -286.18770456948562

   => Energetics <=

    Nuclear Repulsion Energy =            280.4973900595746272
    One-Electron Energy =                -932.2692001516334130
    Two-Electron Energy =                 365.5841055225731679
    Total Energy =                       -286.1877045694856179
  Basis Set: (AUG-CC-PVTZ AUX)
    Blend: AUG-CC-PVTZ-RI
    Molecular point group: c1

    Geometry (in Angstrom), charge = 1, multiplicity = 1:

       Center              X                  Y                   Z               Mass
    ------------   -----------------  -----------------  -----------------  -----------------
         N           -2.346773642013    -0.022104567370     0.009920973446    14.003074004430
         C           -0.857933842013     0.003947032630    -0.014954226554    12.000000000000
         C           -0.203045842013    -1.222126967370    -0.004751226554    12.000000000000
         C           -0.202913842013     1.229908032630    -0.004746226554    12.000000000000
         C            1.193327157987    -1.209136967370     0.001673773446    12.000000000000
         C            1.193492157987     1.216791032630     0.001670773446    12.000000000000
         C            1.886913157987     0.003801032630     0.006771773446    12.000000000000
         H           -0.747812842013    -2.164346967370    -0.008291226554     1.007825032230
         H           -0.747530842013     2.172221032630    -0.008268226554     1.007825032230
         H           -2.729781842013     0.835809032630    -0.461654226554     1.007825032230
         H           -2.730148842013    -0.820603967370    -0.474276226554     1.007825032230
         H           -2.718747842013    -0.003321967370     0.970814773446     1.007825032230
         H            1.735075157987    -2.150270967370     0.002032773446     1.007825032230
         H            1.735329157987     2.157872032630     0.002021773446     1.007825032230
         H            2.972876157987     0.003732032630     0.010463773446     1.007825032230

  Basis Set: AUG-CC-PVTZ
    Blend: AUG-CC-PVTZ
  Basis Set: (AUG-CC-PVTZ AUX)
    Blend: AUG-CC-PVTZ-JKFIT
	 Reference Energy          =    -286.1877045694856179 [Eh]
	 Singles Energy            =      -0.0000000000000000 [Eh]
	 Same-Spin Energy          =      -0.3089803902266456 [Eh]
	 Opposite-Spin Energy      =      -0.9925266599319753 [Eh]
	 Correlation Energy        =      -1.3015070501586208 [Eh]
	 Total Energy              =    -287.4892116196442657 [Eh]

	 ================> DF-SCS-MP2 Energies <==================
	-----------------------------------------------------------
	 SCS Same-Spin Scale       =       0.3333333333333333 [-]
	 SCS Opposite-Spin Scale   =       1.2000000000000000 [-]
	 SCS Same-Spin Energy      =      -0.1029934634088819 [Eh]
	 SCS Opposite-Spin Energy  =      -1.1910319919183703 [Eh]
	 SCS Correlation Energy    =      -1.2940254553272521 [Eh]
	 SCS Total Energy          =    -287.4817300248128618 [Eh]
	-----------------------------------------------------------

  Dipole Moment: [D]
     X:    -7.2415      Y:     0.0325      Z:     0.0736     Total:     7.2420

*** Psi4 exiting successfully. Buy a developer a beer!
