                               Psi4 1.3.2 release

  ==> Input File <==

--------------------------------------------------------------------------
#psi4
#
memory 32 gb

molecule  {
1 1
  N       -2.3156210     0.0000130     0.0092220
  C       -0.8265460     0.0000770    -0.0152130
  C       -0.1716580    -1.2259970    -0.0050100
  C       -0.1715260     1.2260380    -0.0050050
  C        1.2247150    -1.2130070     0.0014150
  C        1.2248800     1.2129210     0.0014120
  C        1.9183010    -0.0000690     0.0065130
  H       -0.7164250    -2.1682170    -0.0085500
  H       -0.7161430     2.1683510    -0.0085270
  H       -2.6983940     0.8319390    -0.4619130
  H       -2.7333269    -0.8409687    -0.4137054
  H       -2.6873600    -0.0071920     0.9705560
  H        1.7664630    -2.1541410     0.0017740
  H        1.7667170     2.1540020     0.0017630
  H        3.0042640    -0.0001380     0.0102050
units angstrom
no_reorient  #important for SAPT in psi4, default
symmetry c1  #important for SAPT in psi4, default
}

set PROPERTIES_ORIGIN ["COM"]
properties('MP2/aug-cc-pvtz', properties = ['dipole'])
--------------------------------------------------------------------------

    Molecular point group: c1
  Charge       = 1
  Multiplicity = 1
  Basis Set: AUG-CC-PVTZ
    Blend: AUG-CC-PVTZ
  Basis Set: (AUG-CC-PVTZ AUX)
    Blend: AUG-CC-PVTZ-JKFIT

    Orbital Energies [Eh]
    ---------------------

    Doubly Occupied:

       1A    -15.897343     2A    -11.469426     3A    -11.413561
       4A    -11.413267     5A    -11.397209     6A    -11.397006
       7A    -11.392257     8A     -1.511355     9A     -1.316145
      10A     -1.187368    11A     -1.179747    12A     -1.018287
      13A     -1.004347    14A     -0.952508    15A     -0.935707
      16A     -0.896514    17A     -0.835241    18A     -0.787698
      19A     -0.768116    20A     -0.756110    21A     -0.673757
      22A     -0.673093    23A     -0.664389    24A     -0.507911
      25A     -0.501578

  @DF-RHF Final Energy:  -286.18801295102855

   => Energetics <=

    Nuclear Repulsion Energy =            280.4461725715146372
    One-Electron Energy =                -932.1684898174117961
    Two-Electron Energy =                 365.5343042948685479
    Total Energy =                       -286.1880129510285542
  Basis Set: (AUG-CC-PVTZ AUX)
    Blend: AUG-CC-PVTZ-RI
    Molecular point group: c1

    Geometry (in Angstrom), charge = 1, multiplicity = 1:

       Center              X                  Y                   Z               Mass
    ------------   -----------------  -----------------  -----------------  -----------------
         N           -2.346603487960     0.000191117198     0.008894571934    14.003074004430
         C           -0.857528487960     0.000255117198    -0.015540428066    12.000000000000
         C           -0.202640487960    -1.225818882802    -0.005337428066    12.000000000000
         C           -0.202508487960     1.226216117198    -0.005332428066    12.000000000000
         C            1.193732512040    -1.212828882802     0.001087571934    12.000000000000
         C            1.193897512040     1.213099117198     0.001084571934    12.000000000000
         C            1.887318512040     0.000109117198     0.006185571934    12.000000000000
         H           -0.747407487960    -2.168038882802    -0.008877428066     1.007825032230
         H           -0.747125487960     2.168529117198    -0.008854428066     1.007825032230
         H           -2.729376487960     0.832117117198    -0.462240428066     1.007825032230
         H           -2.764309387960    -0.840790582802    -0.414032828066     1.007825032230
         H           -2.718342487960    -0.007013882802     0.970228571934     1.007825032230
         H            1.735480512040    -2.153962882802     0.001446571934     1.007825032230
         H            1.735734512040     2.154180117198     0.001435571934     1.007825032230
         H            2.973281512040     0.000040117198     0.009877571934     1.007825032230

  Basis Set: AUG-CC-PVTZ
    Blend: AUG-CC-PVTZ
  Basis Set: (AUG-CC-PVTZ AUX)
    Blend: AUG-CC-PVTZ-JKFIT
	 Reference Energy          =    -286.1880129510285542 [Eh]
	 Singles Energy            =      -0.0000000000000000 [Eh]
	 Same-Spin Energy          =      -0.3089683073660126 [Eh]
	 Opposite-Spin Energy      =      -0.9924463481031578 [Eh]
	 Correlation Energy        =      -1.3014146554691703 [Eh]
	 Total Energy              =    -287.4894276064977134 [Eh]

	 ================> DF-SCS-MP2 Energies <==================
	-----------------------------------------------------------
	 SCS Same-Spin Scale       =       0.3333333333333333 [-]
	 SCS Opposite-Spin Scale   =       1.2000000000000000 [-]
	 SCS Same-Spin Energy      =      -0.1029894357886708 [Eh]
	 SCS Opposite-Spin Energy  =      -1.1909356177237893 [Eh]
	 SCS Correlation Energy    =      -1.2939250535124602 [Eh]
	 SCS Total Energy          =    -287.4819380045410071 [Eh]
	-----------------------------------------------------------

  Dipole Moment: [D]
     X:    -7.2781      Y:    -0.0222      Z:     0.1342     Total:     7.2794

*** Psi4 exiting successfully. Buy a developer a beer!
