                               Psi4 1.3.2 release

  ==> Input File <==

--------------------------------------------------------------------------
#psi4
#
memory 32 gb

molecule  {
1 1
  N       -2.3156210     0.0000130     0.0092220
  C       -0.8265460     0.0000770    -0.0152130
  C       -0.1716580    -1.2259970    -0.0050100
  C       -0.1715260     1.2260380    -0.0050050
  C        1.2247150    -1.2130070     0.0014150
  C        1.2248800     1.2129210     0.0014120
  C        1.9183010    -0.0000690     0.0065130
  H       -0.7164250    -2.1682170    -0.0085500
  H       -0.7161430     2.1683510    -0.0085270
  H       -2.6983940     0.8319390    -0.4619130
  H       -2.6623285    -0.8039625    -0.5330078
  H       -2.6873600    -0.0071920     0.9705560
  H        1.7664630    -2.1541410     0.0017740
  H        1.7667170     2.1540020     0.0017630
  H        3.0042640    -0.0001380     0.0102050
units angstrom
no_reorient  #important for SAPT in psi4, default
symmetry c1  #important for SAPT in psi4, default
}

set PROPERTIES_ORIGIN ["COM"]
properties('MP2/aug-cc-pvtz', properties = ['dipole'])
--------------------------------------------------------------------------

    Molecular point group: c1
  Charge       = 1
  Multiplicity = 1
  Basis Set: AUG-CC-PVTZ
    Blend: AUG-CC-PVTZ
  Basis Set: (AUG-CC-PVTZ AUX)
    Blend: AUG-CC-PVTZ-JKFIT

    Orbital Energies [Eh]
    ---------------------

    Doubly Occupied:

       1A    -15.897036     2A    -11.468639     3A    -11.413494
       4A    -11.413290     5A    -11.397349     6A    -11.397135
       7A    -11.392464     8A     -1.511424     9A     -1.315864
      10A     -1.187488    11A     -1.178937    12A     -1.017267
      13A     -1.002656    14A     -0.964371    15A     -0.931059
      16A     -0.894965    17A     -0.834681    18A     -0.787050
      19A     -0.767891    20A     -0.756137    21A     -0.674240
      22A     -0.673031    23A     -0.664412    24A     -0.508324
      25A     -0.501736

  @DF-RHF Final Energy:  -286.18810774299101

   => Energetics <=

    Nuclear Repulsion Energy =            280.5488648653800396
    One-Electron Energy =                -932.3720654223920974
    Two-Electron Energy =                 365.6350928140211067
    Total Energy =                       -286.1881077429910079
  Basis Set: (AUG-CC-PVTZ AUX)
    Blend: AUG-CC-PVTZ-RI
    Molecular point group: c1

    Geometry (in Angstrom), charge = 1, multiplicity = 1:

       Center              X                  Y                   Z               Mass
    ------------   -----------------  -----------------  -----------------  -----------------
         N           -2.347364168892    -0.000205369352     0.010172784694    14.003074004430
         C           -0.858289168892    -0.000141369352    -0.014262215306    12.000000000000
         C           -0.203401168892    -1.226215369352    -0.004059215306    12.000000000000
         C           -0.203269168892     1.225819630648    -0.004054215306    12.000000000000
         C            1.192971831108    -1.213225369352     0.002365784694    12.000000000000
         C            1.193136831108     1.212702630648     0.002362784694    12.000000000000
         C            1.886557831108    -0.000287369352     0.007463784694    12.000000000000
         H           -0.748168168892    -2.168435369352    -0.007599215306     1.007825032230
         H           -0.747886168892     2.168132630648    -0.007576215306     1.007825032230
         H           -2.730137168892     0.831720630648    -0.460962215306     1.007825032230
         H           -2.694071668892    -0.804180869352    -0.532057015306     1.007825032230
         H           -2.719103168892    -0.007410369352     0.971506784694     1.007825032230
         H            1.734719831108    -2.154359369352     0.002724784694     1.007825032230
         H            1.734973831108     2.153783630648     0.002713784694     1.007825032230
         H            2.972520831108    -0.000356369352     0.011155784694     1.007825032230

  Basis Set: AUG-CC-PVTZ
    Blend: AUG-CC-PVTZ
  Basis Set: (AUG-CC-PVTZ AUX)
    Blend: AUG-CC-PVTZ-JKFIT
	 Reference Energy          =    -286.1881077429910079 [Eh]
	 Singles Energy            =      -0.0000000000000000 [Eh]
	 Same-Spin Energy          =      -0.3089977458857501 [Eh]
	 Opposite-Spin Energy      =      -0.9925630478324864 [Eh]
	 Correlation Energy        =      -1.3015607937182365 [Eh]
	 Total Energy              =    -287.4896685367092459 [Eh]

	 ================> DF-SCS-MP2 Energies <==================
	-----------------------------------------------------------
	 SCS Same-Spin Scale       =       0.3333333333333333 [-]
	 SCS Opposite-Spin Scale   =       1.2000000000000000 [-]
	 SCS Same-Spin Energy      =      -0.1029992486285834 [Eh]
	 SCS Opposite-Spin Energy  =      -1.1910756573989836 [Eh]
	 SCS Correlation Energy    =      -1.2940749060275669 [Eh]
	 SCS Total Energy          =    -287.4821826490185686 [Eh]
	-----------------------------------------------------------

  Dipole Moment: [D]
     X:    -7.2047      Y:     0.0256      Z:     0.0175     Total:     7.2047

*** Psi4 exiting successfully. Buy a developer a beer!
