                               Psi4 1.3.2 release

  ==> Input File <==

--------------------------------------------------------------------------
#psi4
#
memory 32 gb

molecule  {
1 1
  N       -2.3156210     0.0000130     0.0092220
  C       -0.8321492    -0.0010949     0.1405672
  C       -0.1716580    -1.2259970    -0.0050100
  C       -0.1715260     1.2260380    -0.0050050
  C        1.2247150    -1.2130070     0.0014150
  C        1.2248800     1.2129210     0.0014120
  C        1.9183010    -0.0000690     0.0065130
  H       -0.7164250    -2.1682170    -0.0085500
  H       -0.7161430     2.1683510    -0.0085270
  H       -2.6983940     0.8319390    -0.4619130
  H       -2.6987610    -0.8244740    -0.4745350
  H       -2.6873600    -0.0071920     0.9705560
  H        1.7664630    -2.1541410     0.0017740
  H        1.7667170     2.1540020     0.0017630
  H        3.0042640    -0.0001380     0.0102050
units angstrom
no_reorient  #important for SAPT in psi4, default
symmetry c1  #important for SAPT in psi4, default
}

set PROPERTIES_ORIGIN ["COM"]
properties('MP2/aug-cc-pvtz', properties = ['dipole'])
--------------------------------------------------------------------------

    Molecular point group: c1
  Charge       = 1
  Multiplicity = 1
  Basis Set: AUG-CC-PVTZ
    Blend: AUG-CC-PVTZ
  Basis Set: (AUG-CC-PVTZ AUX)
    Blend: AUG-CC-PVTZ-JKFIT

    Orbital Energies [Eh]
    ---------------------

    Doubly Occupied:

       1A    -15.896220     2A    -11.470122     3A    -11.415512
       4A    -11.415352     5A    -11.397003     6A    -11.396784
       7A    -11.393552     8A     -1.510732     9A     -1.314413
      10A     -1.186412    11A     -1.178366    12A     -1.015657
      13A     -1.004788    14A     -0.957349    15A     -0.933751
      16A     -0.893303    17A     -0.835044    18A     -0.784976
      19A     -0.767842    20A     -0.755991    21A     -0.675674
      22A     -0.669614    23A     -0.663730    24A     -0.507871
      25A     -0.500665

  @DF-RHF Final Energy:  -286.18100563800664

   => Energetics <=

    Nuclear Repulsion Energy =            280.2073057341780782
    One-Electron Energy =                -931.6951751026997499
    Two-Electron Energy =                 365.3068637305149764
    Total Energy =                       -286.1810056380066385
  Basis Set: (AUG-CC-PVTZ AUX)
    Blend: AUG-CC-PVTZ-RI
    Molecular point group: c1

    Geometry (in Angstrom), charge = 1, multiplicity = 1:

       Center              X                  Y                   Z               Mass
    ------------   -----------------  -----------------  -----------------  -----------------
         N           -2.346259026275     0.000163891841    -0.010326645801    14.003074004430
         C           -0.862787226275    -0.000944008159     0.121018554199    12.000000000000
         C           -0.202296026275    -1.225846108159    -0.024558645801    12.000000000000
         C           -0.202164026275     1.226188891841    -0.024553645801    12.000000000000
         C            1.194076973725    -1.212856108159    -0.018133645801    12.000000000000
         C            1.194241973725     1.213071891841    -0.018136645801    12.000000000000
         C            1.887662973725     0.000081891841    -0.013035645801    12.000000000000
         H           -0.747063026275    -2.168066108159    -0.028098645801     1.007825032230
         H           -0.746781026275     2.168501891841    -0.028075645801     1.007825032230
         H           -2.729032026275     0.832089891841    -0.481461645801     1.007825032230
         H           -2.729399026275    -0.824323108159    -0.494083645801     1.007825032230
         H           -2.717998026275    -0.007041108159     0.951007354199     1.007825032230
         H            1.735824973725    -2.153990108159    -0.017774645801     1.007825032230
         H            1.736078973725     2.154152891841    -0.017785645801     1.007825032230
         H            2.973625973725     0.000012891841    -0.009343645801     1.007825032230

  Basis Set: AUG-CC-PVTZ
    Blend: AUG-CC-PVTZ
  Basis Set: (AUG-CC-PVTZ AUX)
    Blend: AUG-CC-PVTZ-JKFIT
	 Reference Energy          =    -286.1810056380066385 [Eh]
	 Singles Energy            =      -0.0000000000000000 [Eh]
	 Same-Spin Energy          =      -0.3092376040054434 [Eh]
	 Opposite-Spin Energy      =      -0.9935836908762636 [Eh]
	 Correlation Energy        =      -1.3028212948817071 [Eh]
	 Total Energy              =    -287.4838269328883484 [Eh]

	 ================> DF-SCS-MP2 Energies <==================
	-----------------------------------------------------------
	 SCS Same-Spin Scale       =       0.3333333333333333 [-]
	 SCS Opposite-Spin Scale   =       1.2000000000000000 [-]
	 SCS Same-Spin Energy      =      -0.1030792013351478 [Eh]
	 SCS Opposite-Spin Energy  =      -1.1923004290515162 [Eh]
	 SCS Correlation Energy    =      -1.2953796303866640 [Eh]
	 SCS Total Energy          =    -287.4763852683933010 [Eh]
	-----------------------------------------------------------

  Dipole Moment: [D]
     X:    -7.2106      Y:    -0.0005      Z:    -0.0773     Total:     7.2110

*** Psi4 exiting successfully. Buy a developer a beer!
