                               Psi4 1.3.2 release

  ==> Input File <==

--------------------------------------------------------------------------
#psi4
#
memory 32 gb

molecule  {
1 1
  N       -2.3156210     0.0000130     0.0092220
  C       -0.8265460     0.0000770    -0.0152130
  C       -0.1716580    -1.2259970    -0.0050100
  C       -0.1715260     1.2260380    -0.0050050
  C        1.2247150    -1.2130070     0.0014150
  C        1.2248800     1.2129210     0.0014120
  C        1.9183010    -0.0000690     0.0065130
  H       -0.7164250    -2.1682170    -0.0085500
  H       -0.7161430     2.1683510    -0.0085270
  H       -2.6983940     0.8319390    -0.4619130
  H       -2.7075842    -0.8289777    -0.4595372
  H       -2.6873600    -0.0071920     0.9705560
  H        1.7664630    -2.1541410     0.0017740
  H        1.7667170     2.1540020     0.0017630
  H        3.0042640    -0.0001380     0.0102050
units angstrom
no_reorient  #important for SAPT in psi4, default
symmetry c1  #important for SAPT in psi4, default
}

set PROPERTIES_ORIGIN ["COM"]
properties('MP2/aug-cc-pvtz', properties = ['dipole'])
--------------------------------------------------------------------------

    Molecular point group: c1
  Charge       = 1
  Multiplicity = 1
  Basis Set: AUG-CC-PVTZ
    Blend: AUG-CC-PVTZ
  Basis Set: (AUG-CC-PVTZ AUX)
    Blend: AUG-CC-PVTZ-JKFIT

    Orbital Energies [Eh]
    ---------------------

    Doubly Occupied:

       1A    -15.897280     2A    -11.469111     3A    -11.413462
       4A    -11.413355     5A    -11.397230     6A    -11.397080
       7A    -11.392334     8A     -1.511303     9A     -1.316030
      10A     -1.187410    11A     -1.179427    12A     -1.017793
      13A     -1.003719    14A     -0.956184    15A     -0.934905
      16A     -0.896019    17A     -0.835050    18A     -0.787490
      19A     -0.768039    20A     -0.756127    21A     -0.673927
      22A     -0.673083    23A     -0.664401    24A     -0.508065
      25A     -0.501634

  @DF-RHF Final Energy:  -286.18858759605206

   => Energetics <=

    Nuclear Repulsion Energy =            280.4823589791416794
    One-Electron Energy =                -932.2409774390546318
    Two-Electron Energy =                 365.5700308638608362
    Total Energy =                       -286.1885875960520593
  Basis Set: (AUG-CC-PVTZ AUX)
    Blend: AUG-CC-PVTZ-RI
    Molecular point group: c1

    Geometry (in Angstrom), charge = 1, multiplicity = 1:

       Center              X                  Y                   Z               Mass
    ------------   -----------------  -----------------  -----------------  -----------------
         N           -2.346879296725     0.000062644936     0.009385616470    14.003074004430
         C           -0.857804296725     0.000126644936    -0.015049383530    12.000000000000
         C           -0.202916296725    -1.225947355064    -0.004846383530    12.000000000000
         C           -0.202784296725     1.226087644936    -0.004841383530    12.000000000000
         C            1.193456703275    -1.212957355064     0.001578616470    12.000000000000
         C            1.193621703275     1.212970644936     0.001575616470    12.000000000000
         C            1.887042703275    -0.000019355064     0.006676616470    12.000000000000
         H           -0.747683296725    -2.168167355064    -0.008386383530     1.007825032230
         H           -0.747401296725     2.168400644936    -0.008363383530     1.007825032230
         H           -2.729652296725     0.831988644936    -0.461749383530     1.007825032230
         H           -2.738842496725    -0.828928055064    -0.459373583530     1.007825032230
         H           -2.718618296725    -0.007142355064     0.970719616470     1.007825032230
         H            1.735204703275    -2.154091355064     0.001937616470     1.007825032230
         H            1.735458703275     2.154051644936     0.001926616470     1.007825032230
         H            2.973005703275    -0.000088355064     0.010368616470     1.007825032230

  Basis Set: AUG-CC-PVTZ
    Blend: AUG-CC-PVTZ
  Basis Set: (AUG-CC-PVTZ AUX)
    Blend: AUG-CC-PVTZ-JKFIT
	 Reference Energy          =    -286.1885875960520593 [Eh]
	 Singles Energy            =      -0.0000000000000000 [Eh]
	 Same-Spin Energy          =      -0.3089565221443917 [Eh]
	 Opposite-Spin Energy      =      -0.9924554850913094 [Eh]
	 Correlation Energy        =      -1.3014120072357012 [Eh]
	 Total Energy              =    -287.4899996032877425 [Eh]

	 ================> DF-SCS-MP2 Energies <==================
	-----------------------------------------------------------
	 SCS Same-Spin Scale       =       0.3333333333333333 [-]
	 SCS Opposite-Spin Scale   =       1.2000000000000000 [-]
	 SCS Same-Spin Energy      =      -0.1029855073814639 [Eh]
	 SCS Opposite-Spin Energy  =      -1.1909465821095713 [Eh]
	 SCS Correlation Energy    =      -1.2939320894910351 [Eh]
	 SCS Total Energy          =    -287.4825196855430818 [Eh]
	-----------------------------------------------------------

  Dipole Moment: [D]
     X:    -7.2515      Y:    -0.0062      Z:     0.0884     Total:     7.2520

*** Psi4 exiting successfully. Buy a developer a beer!
