                               Psi4 1.4a3.dev225

  ==> Input File <==

--------------------------------------------------------------------------
#psi4
#
memory 32 gb

molecule  {
1 1
  N        2.3113160     0.0000000     0.0062670
  C        0.8546215     0.0000000    -0.0113334
  C        0.1710600     1.2220230    -0.0032900
  C        0.1710600    -1.2220230    -0.0032920
  C       -1.2250620     1.2112680     0.0011370
  C       -1.2250620    -1.2112680     0.0011350
  C       -1.9212210     0.0000000     0.0049050
  H        0.7202500     2.1599530    -0.0070580
  H        0.7202510    -2.1599530    -0.0070620
  H        2.6997490    -0.8257060    -0.4685630
  H        2.6997490     0.8257100    -0.4685560
  H        2.6858560    -0.0000040     0.9646680
  H       -1.7649950     2.1535280     0.0013910
  H       -1.7649950    -2.1535280     0.0013870
  H       -3.0074630     0.0000000     0.0058010
units angstrom
no_reorient  #important for SAPT in psi4, default
symmetry c1  #important for SAPT in psi4, default
}

set PROPERTIES_ORIGIN ["COM"]
properties('MP2/aug-cc-pvtz', properties = ['dipole'])
--------------------------------------------------------------------------

    Molecular point group: c1
  Charge       = 1
  Multiplicity = 1
  Basis Set: AUG-CC-PVTZ
    Blend: AUG-CC-PVTZ
  Basis Set: (AUG-CC-PVTZ AUX)
    Blend: AUG-CC-PVTZ-JKFIT

    Orbital Energies [Eh]
    ---------------------

    Doubly Occupied:

       1A    -15.900658     2A    -11.466975     3A    -11.413740
       4A    -11.413710     5A    -11.396445     6A    -11.396248
       7A    -11.392646     8A     -1.521609     9A     -1.312849
      10A     -1.184859    11A     -1.179555    12A     -1.019044
      13A     -1.008874    14A     -0.963463    15A     -0.936481
      16A     -0.899049    17A     -0.837970    18A     -0.783366
      19A     -0.768434    20A     -0.753916    21A     -0.674865
      22A     -0.670562    23A     -0.661150    24A     -0.506768
      25A     -0.500335

  @DF-RHF Final Energy:  -286.18779968236328

   => Energetics <=

    Nuclear Repulsion Energy =            280.6210004386602463
    One-Electron Energy =                -932.4904563442804601
    Two-Electron Energy =                 365.6816562232569936
    Total Energy =                       -286.1877996823632770
  Basis Set: (AUG-CC-PVTZ AUX)
    Blend: AUG-CC-PVTZ-RI
    Molecular point group: c1

    Geometry (in Angstrom), charge = 1, multiplicity = 1:

       Center              X                  Y                   Z               Mass
    ------------   -----------------  -----------------  -----------------  -----------------
         N            2.340209926331    -0.000000000000     0.006468171384    14.003074004430
         C            0.883515426331    -0.000000000000    -0.011132228616    12.000000000000
         C            0.199953926331     1.222023000000    -0.003088828616    12.000000000000
         C            0.199953926331    -1.222023000000    -0.003090828616    12.000000000000
         C           -1.196168073669     1.211268000000     0.001338171384    12.000000000000
         C           -1.196168073669    -1.211268000000     0.001336171384    12.000000000000
         C           -1.892327073669    -0.000000000000     0.005106171384    12.000000000000
         H            0.749143926331     2.159953000000    -0.006856828616     1.007825032230
         H            0.749144926331    -2.159953000000    -0.006860828616     1.007825032230
         H            2.728642926331    -0.825706000000    -0.468361828616     1.007825032230
         H            2.728642926331     0.825710000000    -0.468354828616     1.007825032230
         H            2.714749926331    -0.000004000000     0.964869171384     1.007825032230
         H           -1.736101073669     2.153528000000     0.001592171384     1.007825032230
         H           -1.736101073669    -2.153528000000     0.001588171384     1.007825032230
         H           -2.978569073669    -0.000000000000     0.006002171384     1.007825032230

  Basis Set: AUG-CC-PVTZ
    Blend: AUG-CC-PVTZ
  Basis Set: (AUG-CC-PVTZ AUX)
    Blend: AUG-CC-PVTZ-JKFIT
	 Reference Energy          =    -286.1877996823632770 [Eh]
	 Singles Energy            =      -0.0000000000000000 [Eh]
	 Same-Spin Energy          =      -0.3091060132266905 [Eh]
	 Opposite-Spin Energy      =      -0.9924913434432905 [Eh]
	 Correlation Energy        =      -1.3015973566699810 [Eh]
	 Total Energy              =    -287.4893970390332356 [Eh]

	 ================> DF-SCS-MP2 Energies <==================
	-----------------------------------------------------------
	 SCS Same-Spin Scale       =       0.3333333333333333 [-]
	 SCS Opposite-Spin Scale   =       1.2000000000000000 [-]
	 SCS Same-Spin Energy      =      -0.1030353377422301 [Eh]
	 SCS Opposite-Spin Energy  =      -1.1909896121319485 [Eh]
	 SCS Correlation Energy    =      -1.2940249498741787 [Eh]
	 SCS Total Energy          =    -287.4818246322374762 [Eh]
	-----------------------------------------------------------

  Dipole Moment: [D]
     X:     7.3198      Y:    -0.0000      Z:     0.0625     Total:     7.3200

*** Psi4 exiting successfully. Buy a developer a beer!
