                               Psi4 1.4a3.dev225

  ==> Input File <==

--------------------------------------------------------------------------
#psi4
#
memory 32 gb

molecule  {
1 1
  N        2.3113160     0.0000000     0.0062670
  C        0.8346230     0.0000000    -0.0115750
  C        0.1710600     1.2220230    -0.0032900
  C        0.1710600    -1.2220230    -0.0032920
  C       -1.2250620     1.2112680     0.0011370
  C       -1.2250620    -1.2112680     0.0011350
  C       -1.9212210     0.0000000     0.0049050
  H        0.7202500     2.1599530    -0.0070580
  H        0.7202510    -2.1599530    -0.0070620
  H        2.6997490    -0.8257060    -0.4685630
  H        2.6997490     0.8257100    -0.4685560
  H        2.6785762    -0.0000039     0.9460399
  H       -1.7649950     2.1535280     0.0013910
  H       -1.7649950    -2.1535280     0.0013870
  H       -3.0074630     0.0000000     0.0058010
units angstrom
no_reorient  #important for SAPT in psi4, default
symmetry c1  #important for SAPT in psi4, default
}

set PROPERTIES_ORIGIN ["COM"]
properties('MP2/aug-cc-pvtz', properties = ['dipole'])
--------------------------------------------------------------------------

    Molecular point group: c1
  Charge       = 1
  Multiplicity = 1
  Basis Set: AUG-CC-PVTZ
    Blend: AUG-CC-PVTZ
  Basis Set: (AUG-CC-PVTZ AUX)
    Blend: AUG-CC-PVTZ-JKFIT

    Orbital Energies [Eh]
    ---------------------

    Doubly Occupied:

       1A    -15.897218     2A    -11.467760     3A    -11.413046
       4A    -11.413014     5A    -11.397043     6A    -11.396879
       7A    -11.392587     8A     -1.518998     9A     -1.316108
      10A     -1.186825    11A     -1.180815    12A     -1.019004
      13A     -1.006317    14A     -0.966141    15A     -0.935782
      16A     -0.898160    17A     -0.836670    18A     -0.786473
      19A     -0.768603    20A     -0.755575    21A     -0.674388
      22A     -0.673540    23A     -0.663311    24A     -0.508297
      25A     -0.501274

  @DF-RHF Final Energy:  -286.18920815897371

   => Energetics <=

    Nuclear Repulsion Energy =            280.8475610766094519
    One-Electron Energy =                -932.9258875090858965
    Two-Electron Energy =                 365.8891182735026746
    Total Energy =                       -286.1892081589737131
  Basis Set: (AUG-CC-PVTZ AUX)
    Blend: AUG-CC-PVTZ-RI
    Molecular point group: c1

    Geometry (in Angstrom), charge = 1, multiplicity = 1:

       Center              X                  Y                   Z               Mass
    ------------   -----------------  -----------------  -----------------  -----------------
         N            2.342839140086    -0.000000001071     0.006698574936    14.003074004430
         C            0.866146140086    -0.000000001071    -0.011143425064    12.000000000000
         C            0.202583140086     1.222022998929    -0.002858425064    12.000000000000
         C            0.202583140086    -1.222023001071    -0.002860425064    12.000000000000
         C           -1.193538859914     1.211267998929     0.001568574936    12.000000000000
         C           -1.193538859914    -1.211268001071     0.001566574936    12.000000000000
         C           -1.889697859914    -0.000000001071     0.005336574936    12.000000000000
         H            0.751773140086     2.159952998929    -0.006626425064     1.007825032230
         H            0.751774140086    -2.159953001071    -0.006630425064     1.007825032230
         H            2.731272140086    -0.825706001071    -0.468131425064     1.007825032230
         H            2.731272140086     0.825709998929    -0.468124425064     1.007825032230
         H            2.710099340086    -0.000003901071     0.946471474936     1.007825032230
         H           -1.733471859914     2.153527998929     0.001822574936     1.007825032230
         H           -1.733471859914    -2.153528001071     0.001818574936     1.007825032230
         H           -2.975939859914    -0.000000001071     0.006232574936     1.007825032230

  Basis Set: AUG-CC-PVTZ
    Blend: AUG-CC-PVTZ
  Basis Set: (AUG-CC-PVTZ AUX)
    Blend: AUG-CC-PVTZ-JKFIT
	 Reference Energy          =    -286.1892081589737131 [Eh]
	 Singles Energy            =      -0.0000000000000000 [Eh]
	 Same-Spin Energy          =      -0.3088759993122510 [Eh]
	 Opposite-Spin Energy      =      -0.9919877026790749 [Eh]
	 Correlation Energy        =      -1.3008637019913258 [Eh]
	 Total Energy              =    -287.4900718609650312 [Eh]

	 ================> DF-SCS-MP2 Energies <==================
	-----------------------------------------------------------
	 SCS Same-Spin Scale       =       0.3333333333333333 [-]
	 SCS Opposite-Spin Scale   =       1.2000000000000000 [-]
	 SCS Same-Spin Energy      =      -0.1029586664374170 [Eh]
	 SCS Opposite-Spin Energy  =      -1.1903852432148898 [Eh]
	 SCS Correlation Energy    =      -1.2933439096523067 [Eh]
	 SCS Total Energy          =    -287.4825520686260347 [Eh]
	-----------------------------------------------------------

  Dipole Moment: [D]
     X:     7.2656      Y:     0.0000      Z:     0.0331     Total:     7.2657

*** Psi4 exiting successfully. Buy a developer a beer!
