                               Psi4 1.3.2 release

  ==> Input File <==

--------------------------------------------------------------------------
#psi4
#
memory 32 gb

molecule  {
1 1
  N       -2.3154026     0.0260007     0.0087744
  C       -0.8265460     0.0000770    -0.0152130
  C       -0.1716580    -1.2259970    -0.0050100
  C       -0.1715260     1.2260380    -0.0050050
  C        1.2247150    -1.2130070     0.0014150
  C        1.2248800     1.2129210     0.0014120
  C        1.9183010    -0.0000690     0.0065130
  H       -0.7164250    -2.1682170    -0.0085500
  H       -0.7161430     2.1683510    -0.0085270
  H       -2.6983940     0.8319390    -0.4619130
  H       -2.6987610    -0.8244740    -0.4745350
  H       -2.6873600    -0.0071920     0.9705560
  H        1.7664630    -2.1541410     0.0017740
  H        1.7667170     2.1540020     0.0017630
  H        3.0042640    -0.0001380     0.0102050
units angstrom
no_reorient  #important for SAPT in psi4, default
symmetry c1  #important for SAPT in psi4, default
}

set PROPERTIES_ORIGIN ["COM"]
properties('MP2/aug-cc-pvtz', properties = ['dipole'])
--------------------------------------------------------------------------

    Molecular point group: c1
  Charge       = 1
  Multiplicity = 1
  Basis Set: AUG-CC-PVTZ
    Blend: AUG-CC-PVTZ
  Basis Set: (AUG-CC-PVTZ AUX)
    Blend: AUG-CC-PVTZ-JKFIT

    Orbital Energies [Eh]
    ---------------------

    Doubly Occupied:

       1A    -15.897242     2A    -11.469054     3A    -11.413954
       4A    -11.412859     5A    -11.397425     6A    -11.396929
       7A    -11.392355     8A     -1.511386     9A     -1.316016
      10A     -1.187431    11A     -1.179377    12A     -1.017995
      13A     -1.003632    14A     -0.959140    15A     -0.932397
      16A     -0.895691    17A     -0.834976    18A     -0.787376
      19A     -0.767986    20A     -0.756127    21A     -0.673961
      22A     -0.673086    23A     -0.664386    24A     -0.508101
      25A     -0.501659

  @DF-RHF Final Energy:  -286.18770632346423

   => Energetics <=

    Nuclear Repulsion Energy =            280.4973329744341868
    One-Electron Energy =                -932.2689937632840156
    Two-Electron Energy =                 365.5839544653856592
    Total Energy =                       -286.1877063234642264
  Basis Set: (AUG-CC-PVTZ AUX)
    Blend: AUG-CC-PVTZ-RI
    Molecular point group: c1

    Geometry (in Angstrom), charge = 1, multiplicity = 1:

       Center              X                  Y                   Z               Mass
    ------------   -----------------  -----------------  -----------------  -----------------
         N           -2.346787941083     0.022133436555     0.009165335674    14.003074004430
         C           -0.857931341083    -0.003790263445    -0.014822064326    12.000000000000
         C           -0.203043341083    -1.229864263445    -0.004619064326    12.000000000000
         C           -0.202911341083     1.222170736555    -0.004614064326    12.000000000000
         C            1.193329658917    -1.216874263445     0.001805935674    12.000000000000
         C            1.193494658917     1.209053736555     0.001802935674    12.000000000000
         C            1.886915658917    -0.003936263445     0.006903935674    12.000000000000
         H           -0.747810341083    -2.172084263445    -0.008159064326     1.007825032230
         H           -0.747528341083     2.164483736555    -0.008136064326     1.007825032230
         H           -2.729779341083     0.828071736555    -0.461522064326     1.007825032230
         H           -2.730146341083    -0.828341263445    -0.474144064326     1.007825032230
         H           -2.718745341083    -0.011059263445     0.970946935674     1.007825032230
         H            1.735077658917    -2.158008263445     0.002164935674     1.007825032230
         H            1.735331658917     2.150134736555     0.002153935674     1.007825032230
         H            2.972878658917    -0.004005263445     0.010595935674     1.007825032230

  Basis Set: AUG-CC-PVTZ
    Blend: AUG-CC-PVTZ
  Basis Set: (AUG-CC-PVTZ AUX)
    Blend: AUG-CC-PVTZ-JKFIT
	 Reference Energy          =    -286.1877063234642264 [Eh]
	 Singles Energy            =      -0.0000000000000000 [Eh]
	 Same-Spin Energy          =      -0.3089794763957450 [Eh]
	 Opposite-Spin Energy      =      -0.9925218627266861 [Eh]
	 Correlation Energy        =      -1.3015013391224310 [Eh]
	 Total Energy              =    -287.4892076625866366 [Eh]

	 ================> DF-SCS-MP2 Energies <==================
	-----------------------------------------------------------
	 SCS Same-Spin Scale       =       0.3333333333333333 [-]
	 SCS Opposite-Spin Scale   =       1.2000000000000000 [-]
	 SCS Same-Spin Energy      =      -0.1029931587985816 [Eh]
	 SCS Opposite-Spin Energy  =      -1.1910262352720233 [Eh]
	 SCS Correlation Energy    =      -1.2940193940706051 [Eh]
	 SCS Total Energy          =    -287.4817257175348573 [Eh]
	-----------------------------------------------------------

  Dipole Moment: [D]
     X:    -7.2421      Y:    -0.0333      Z:     0.0744     Total:     7.2426

*** Psi4 exiting successfully. Buy a developer a beer!
