                               Psi4 1.3.2 release

  ==> Input File <==

--------------------------------------------------------------------------
#psi4
#
memory 32 gb

molecule  {
1 1
  N       -2.3156210     0.0000130     0.0092220
  C       -0.8265460     0.0000770    -0.0152130
  C       -0.1716580    -1.2259970    -0.0050100
  C       -0.1715260     1.2260380    -0.0050050
  C        1.2247150    -1.2130070     0.0014150
  C        1.2248800     1.2129210     0.0014120
  C        1.9183010    -0.0000690     0.0065130
  H       -0.7164250    -2.1682170    -0.0085500
  H       -0.7161430     2.1683510    -0.0085270
  H       -2.6983940     0.8319390    -0.4619130
  H       -2.7498568    -0.8476838    -0.3824990
  H       -2.6873600    -0.0071920     0.9705560
  H        1.7664630    -2.1541410     0.0017740
  H        1.7667170     2.1540020     0.0017630
  H        3.0042640    -0.0001380     0.0102050
units angstrom
no_reorient  #important for SAPT in psi4, default
symmetry c1  #important for SAPT in psi4, default
}

set PROPERTIES_ORIGIN ["COM"]
properties('MP2/aug-cc-pvtz', properties = ['dipole'])
--------------------------------------------------------------------------

    Molecular point group: c1
  Charge       = 1
  Multiplicity = 1
  Basis Set: AUG-CC-PVTZ
    Blend: AUG-CC-PVTZ
  Basis Set: (AUG-CC-PVTZ AUX)
    Blend: AUG-CC-PVTZ-JKFIT

    Orbital Energies [Eh]
    ---------------------

    Doubly Occupied:

       1A    -15.897351     2A    -11.469647     3A    -11.413625
       4A    -11.413204     5A    -11.397209     6A    -11.396947
       7A    -11.392204     8A     -1.511446     9A     -1.316227
      10A     -1.187342    11A     -1.179970    12A     -1.018701
      13A     -1.004754    14A     -0.951251    15A     -0.934925
      16A     -0.896797    17A     -0.835357    18A     -0.787811
      19A     -0.768162    20A     -0.756093    21A     -0.673656
      22A     -0.673085    23A     -0.664378    24A     -0.507808
      25A     -0.501542

  @DF-RHF Final Energy:  -286.18726970335064

   => Energetics <=

    Nuclear Repulsion Energy =            280.4236150233904254
    One-Electron Energy =                -932.1227895828776582
    Two-Electron Energy =                 365.5119048561365958
    Total Energy =                       -286.1872697033506370
  Basis Set: (AUG-CC-PVTZ AUX)
    Blend: AUG-CC-PVTZ-RI
    Molecular point group: c1

    Geometry (in Angstrom), charge = 1, multiplicity = 1:

       Center              X                  Y                   Z               Mass
    ------------   -----------------  -----------------  -----------------  -----------------
         N           -2.346426385663     0.000263063165     0.008560224774    14.003074004430
         C           -0.857351385663     0.000327063165    -0.015874775226    12.000000000000
         C           -0.202463385663    -1.225746936835    -0.005671775226    12.000000000000
         C           -0.202331385663     1.226288063165    -0.005666775226    12.000000000000
         C            1.193909614337    -1.212756936835     0.000753224774    12.000000000000
         C            1.194074614337     1.213171063165     0.000750224774    12.000000000000
         C            1.887495614337     0.000181063165     0.005851224774    12.000000000000
         H           -0.747230385663    -2.167966936835    -0.009211775226     1.007825032230
         H           -0.746948385663     2.168601063165    -0.009188775226     1.007825032230
         H           -2.729199385663     0.832189063165    -0.462574775226     1.007825032230
         H           -2.780662185663    -0.847433736835    -0.383160775226     1.007825032230
         H           -2.718165385663    -0.006941936835     0.969894224774     1.007825032230
         H            1.735657614337    -2.153890936835     0.001112224774     1.007825032230
         H            1.735911614337     2.154252063165     0.001101224774     1.007825032230
         H            2.973458614337     0.000112063165     0.009543224774     1.007825032230

  Basis Set: AUG-CC-PVTZ
    Blend: AUG-CC-PVTZ
  Basis Set: (AUG-CC-PVTZ AUX)
    Blend: AUG-CC-PVTZ-JKFIT
	 Reference Energy          =    -286.1872697033506370 [Eh]
	 Singles Energy            =      -0.0000000000000000 [Eh]
	 Same-Spin Energy          =      -0.3089912928398226 [Eh]
	 Opposite-Spin Energy      =      -0.9924638175857956 [Eh]
	 Correlation Energy        =      -1.3014551104256182 [Eh]
	 Total Energy              =    -287.4887248137762299 [Eh]

	 ================> DF-SCS-MP2 Energies <==================
	-----------------------------------------------------------
	 SCS Same-Spin Scale       =       0.3333333333333333 [-]
	 SCS Opposite-Spin Scale   =       1.2000000000000000 [-]
	 SCS Same-Spin Energy      =      -0.1029970976132742 [Eh]
	 SCS Opposite-Spin Energy  =      -1.1909565811029548 [Eh]
	 SCS Correlation Energy    =      -1.2939536787162289 [Eh]
	 SCS Total Energy          =    -287.4812233820668439 [Eh]
	-----------------------------------------------------------

  Dipole Moment: [D]
     X:    -7.2954      Y:    -0.0316      Z:     0.1660     Total:     7.2973

*** Psi4 exiting successfully. Buy a developer a beer!
