                               Psi4 1.3.2 release

  ==> Input File <==

--------------------------------------------------------------------------
#psi4
#
memory 32 gb

molecule  {
1 1
  N       -2.3156210     0.0000130     0.0092220
  C       -0.8265460     0.0000770    -0.0152130
  C       -0.1716580    -1.2259970    -0.0050100
  C       -0.1715260     1.2260380    -0.0050050
  C        1.2247150    -1.2130070     0.0014150
  C        1.2248800     1.2129210     0.0014120
  C        1.9183010    -0.0000690     0.0065130
  H       -0.7164250    -2.1682170    -0.0085500
  H       -0.7161430     2.1683510    -0.0085270
  H       -2.6983940     0.8319390    -0.4619130
  H       -2.6987610    -0.8244740    -0.4745350
  H       -2.7594912    -0.0085900     1.1570905
  H        1.7664630    -2.1541410     0.0017740
  H        1.7667170     2.1540020     0.0017630
  H        3.0042640    -0.0001380     0.0102050
units angstrom
no_reorient  #important for SAPT in psi4, default
symmetry c1  #important for SAPT in psi4, default
}

set PROPERTIES_ORIGIN ["COM"]
properties('MP2/aug-cc-pvtz', properties = ['dipole'])
--------------------------------------------------------------------------

    Molecular point group: c1
  Charge       = 1
  Multiplicity = 1
  Basis Set: AUG-CC-PVTZ
    Blend: AUG-CC-PVTZ
  Basis Set: (AUG-CC-PVTZ AUX)
    Blend: AUG-CC-PVTZ-JKFIT

    Orbital Energies [Eh]
    ---------------------

    Doubly Occupied:

       1A    -15.905224     2A    -11.467027     3A    -11.411703
       4A    -11.411645     5A    -11.395991     6A    -11.395841
       7A    -11.391161     8A     -1.486874     9A     -1.312273
      10A     -1.185887    11A     -1.174755    12A     -1.014813
      13A     -0.999238    14A     -0.928904    15A     -0.903859
      16A     -0.886246    17A     -0.831820    18A     -0.785537
      19A     -0.766106    20A     -0.754638    21A     -0.671729
      22A     -0.670142    23A     -0.663040    24A     -0.505332
      25A     -0.500377

  @DF-RHF Final Energy:  -286.16166861721047

   => Energetics <=

    Nuclear Repulsion Energy =            279.5895537534826190
    One-Electron Energy =                -930.6621210242450388
    Two-Electron Energy =                 364.9108986535519534
    Total Energy =                       -286.1616686172104664
  Basis Set: (AUG-CC-PVTZ AUX)
    Blend: AUG-CC-PVTZ-RI
    Molecular point group: c1

    Geometry (in Angstrom), charge = 1, multiplicity = 1:

       Center              X                  Y                   Z               Mass
    ------------   -----------------  -----------------  -----------------  -----------------
         N           -2.346201011180     0.000029370288     0.007547762422    14.003074004430
         C           -0.857126011180     0.000093370288    -0.016887237578    12.000000000000
         C           -0.202238011180    -1.225980629712    -0.006684237578    12.000000000000
         C           -0.202106011180     1.226054370288    -0.006679237578    12.000000000000
         C            1.194134988820    -1.212990629712    -0.000259237578    12.000000000000
         C            1.194299988820     1.212937370288    -0.000262237578    12.000000000000
         C            1.887720988820    -0.000052629712     0.004838762422    12.000000000000
         H           -0.747005011180    -2.168200629712    -0.010224237578     1.007825032230
         H           -0.746723011180     2.168367370288    -0.010201237578     1.007825032230
         H           -2.728974011180     0.831955370288    -0.463587237578     1.007825032230
         H           -2.729341011180    -0.824457629712    -0.476209237578     1.007825032230
         H           -2.790071211180    -0.008573629712     1.155416262422     1.007825032230
         H            1.735882988820    -2.154124629712     0.000099762422     1.007825032230
         H            1.736136988820     2.154018370288     0.000088762422     1.007825032230
         H            2.973683988820    -0.000121629712     0.008530762422     1.007825032230

  Basis Set: AUG-CC-PVTZ
    Blend: AUG-CC-PVTZ
  Basis Set: (AUG-CC-PVTZ AUX)
    Blend: AUG-CC-PVTZ-JKFIT
	 Reference Energy          =    -286.1616686172104664 [Eh]
	 Singles Energy            =      -0.0000000000000000 [Eh]
	 Same-Spin Energy          =      -0.3101590613336871 [Eh]
	 Opposite-Spin Energy      =      -0.9961794790000271 [Eh]
	 Correlation Energy        =      -1.3063385403337142 [Eh]
	 Total Energy              =    -287.4680071575442071 [Eh]

	 ================> DF-SCS-MP2 Energies <==================
	-----------------------------------------------------------
	 SCS Same-Spin Scale       =       0.3333333333333333 [-]
	 SCS Opposite-Spin Scale   =       1.2000000000000000 [-]
	 SCS Same-Spin Energy      =      -0.1033863537778957 [Eh]
	 SCS Opposite-Spin Energy  =      -1.1954153748000325 [Eh]
	 SCS Correlation Energy    =      -1.2988017285779281 [Eh]
	 SCS Total Energy          =    -287.4604703457883943 [Eh]
	-----------------------------------------------------------

  Dipole Moment: [D]
     X:    -7.3569      Y:    -0.0024      Z:     0.3680     Total:     7.3661

*** Psi4 exiting successfully. Buy a developer a beer!
