                               Psi4 1.3.2 release

  ==> Input File <==

--------------------------------------------------------------------------
#psi4
#
memory 32 gb

molecule  {
1 1
  N       -2.3075140     0.1556623     0.0064295
  C       -0.8265460     0.0000770    -0.0152130
  C       -0.1716580    -1.2259970    -0.0050100
  C       -0.1715260     1.2260380    -0.0050050
  C        1.2247150    -1.2130070     0.0014150
  C        1.2248800     1.2129210     0.0014120
  C        1.9183010    -0.0000690     0.0065130
  H       -0.7164250    -2.1682170    -0.0085500
  H       -0.7161430     2.1683510    -0.0085270
  H       -2.6983940     0.8319390    -0.4619130
  H       -2.6987610    -0.8244740    -0.4745350
  H       -2.6873600    -0.0071920     0.9705560
  H        1.7664630    -2.1541410     0.0017740
  H        1.7667170     2.1540020     0.0017630
  H        3.0042640    -0.0001380     0.0102050
units angstrom
no_reorient  #important for SAPT in psi4, default
symmetry c1  #important for SAPT in psi4, default
}

set PROPERTIES_ORIGIN ["COM"]
properties('MP2/aug-cc-pvtz', properties = ['dipole'])
--------------------------------------------------------------------------

    Molecular point group: c1
  Charge       = 1
  Multiplicity = 1
  Basis Set: AUG-CC-PVTZ
    Blend: AUG-CC-PVTZ
  Basis Set: (AUG-CC-PVTZ AUX)
    Blend: AUG-CC-PVTZ-JKFIT

    Orbital Energies [Eh]
    ---------------------

    Doubly Occupied:

       1A    -15.896918     2A    -11.470348     3A    -11.416915
       4A    -11.410166     5A    -11.398741     6A    -11.395952
       7A    -11.392383     8A     -1.513904     9A     -1.316841
      10A     -1.187629    11A     -1.181401    12A     -1.028731
      13A     -1.007397    14A     -0.974640    15A     -0.906195
      16A     -0.886202    17A     -0.834857    18A     -0.785455
      19A     -0.767005    20A     -0.755809    21A     -0.673674
      22A     -0.673260    23A     -0.663726    24A     -0.507973
      25A     -0.501835

  @DF-RHF Final Energy:  -286.15508037469465

   => Energetics <=

    Nuclear Repulsion Energy =            280.5781357466656232
    One-Electron Energy =                -932.3705170755492873
    Two-Electron Energy =                 365.6373009541890724
    Total Energy =                       -286.1550803746946485
  Basis Set: (AUG-CC-PVTZ AUX)
    Blend: AUG-CC-PVTZ-RI
    Molecular point group: c1

    Geometry (in Angstrom), charge = 1, multiplicity = 1:

       Center              X                  Y                   Z               Mass
    ------------   -----------------  -----------------  -----------------  -----------------
         N           -2.340073676466     0.132492979831     0.007169508898    14.003074004430
         C           -0.859105676466    -0.023092320169    -0.014472991102    12.000000000000
         C           -0.204217676466    -1.249166320169    -0.004269991102    12.000000000000
         C           -0.204085676466     1.202868679831    -0.004264991102    12.000000000000
         C            1.192155323534    -1.236176320169     0.002155008898    12.000000000000
         C            1.192320323534     1.189751679831     0.002152008898    12.000000000000
         C            1.885741323534    -0.023238320169     0.007253008898    12.000000000000
         H           -0.748984676466    -2.191386320169    -0.007809991102     1.007825032230
         H           -0.748702676466     2.145181679831    -0.007786991102     1.007825032230
         H           -2.730953676466     0.808769679831    -0.461172991102     1.007825032230
         H           -2.731320676466    -0.847643320169    -0.473794991102     1.007825032230
         H           -2.719919676466    -0.030361320169     0.971296008898     1.007825032230
         H            1.733903323534    -2.177310320169     0.002514008898     1.007825032230
         H            1.734157323534     2.130832679831     0.002503008898     1.007825032230
         H            2.971704323534    -0.023307320169     0.010945008898     1.007825032230

  Basis Set: AUG-CC-PVTZ
    Blend: AUG-CC-PVTZ
  Basis Set: (AUG-CC-PVTZ AUX)
    Blend: AUG-CC-PVTZ-JKFIT
	 Reference Energy          =    -286.1550803746946485 [Eh]
	 Singles Energy            =      -0.0000000000000000 [Eh]
	 Same-Spin Energy          =      -0.3097237372394872 [Eh]
	 Opposite-Spin Energy      =      -0.9944784174959238 [Eh]
	 Correlation Energy        =      -1.3042021547354110 [Eh]
	 Total Energy              =    -287.4592825294300837 [Eh]

	 ================> DF-SCS-MP2 Energies <==================
	-----------------------------------------------------------
	 SCS Same-Spin Scale       =       0.3333333333333333 [-]
	 SCS Opposite-Spin Scale   =       1.2000000000000000 [-]
	 SCS Same-Spin Energy      =      -0.1032412457464957 [Eh]
	 SCS Opposite-Spin Energy  =      -1.1933741009951084 [Eh]
	 SCS Correlation Energy    =      -1.2966153467416042 [Eh]
	 SCS Total Energy          =    -287.4516957214362378 [Eh]
	-----------------------------------------------------------

  Dipole Moment: [D]
     X:    -7.2231      Y:    -0.1994      Z:     0.0873     Total:     7.2263

*** Psi4 exiting successfully. Buy a developer a beer!
