                               Psi4 1.3.2 release

  ==> Input File <==

--------------------------------------------------------------------------
#psi4
#
memory 32 gb

molecule  {
1 1
  N       -2.3156210     0.0000130     0.0092220
  C       -0.8372574     0.0012482    -0.1707255
  C       -0.1716580    -1.2259970    -0.0050100
  C       -0.1715260     1.2260380    -0.0050050
  C        1.2247150    -1.2130070     0.0014150
  C        1.2248800     1.2129210     0.0014120
  C        1.9183010    -0.0000690     0.0065130
  H       -0.7164250    -2.1682170    -0.0085500
  H       -0.7161430     2.1683510    -0.0085270
  H       -2.6983940     0.8319390    -0.4619130
  H       -2.6987610    -0.8244740    -0.4745350
  H       -2.6873600    -0.0071920     0.9705560
  H        1.7664630    -2.1541410     0.0017740
  H        1.7667170     2.1540020     0.0017630
  H        3.0042640    -0.0001380     0.0102050
units angstrom
no_reorient  #important for SAPT in psi4, default
symmetry c1  #important for SAPT in psi4, default
}

set PROPERTIES_ORIGIN ["COM"]
properties('MP2/aug-cc-pvtz', properties = ['dipole'])
--------------------------------------------------------------------------

    Molecular point group: c1
  Charge       = 1
  Multiplicity = 1
  Basis Set: AUG-CC-PVTZ
    Blend: AUG-CC-PVTZ
  Basis Set: (AUG-CC-PVTZ AUX)
    Blend: AUG-CC-PVTZ-JKFIT

    Orbital Energies [Eh]
    ---------------------

    Doubly Occupied:

       1A    -15.895615     2A    -11.469638     3A    -11.416899
       4A    -11.416821     5A    -11.397583     6A    -11.397159
       7A    -11.395459     8A     -1.509677     9A     -1.313947
      10A     -1.186401    11A     -1.178380    12A     -1.015840
      13A     -1.004938    14A     -0.955845    15A     -0.933114
      16A     -0.891686    17A     -0.836127    18A     -0.783636
      19A     -0.768317    20A     -0.756215    21A     -0.676960
      22A     -0.668816    23A     -0.663461    24A     -0.509087
      25A     -0.500852

  @DF-RHF Final Energy:  -286.17953290577475

   => Energetics <=

    Nuclear Repulsion Energy =            280.0511772389671705
    One-Electron Energy =                -931.3764746854084251
    Two-Electron Energy =                 365.1457645406665051
    Total Energy =                       -286.1795329057747495
  Basis Set: (AUG-CC-PVTZ AUX)
    Blend: AUG-CC-PVTZ-RI
    Molecular point group: c1

    Geometry (in Angstrom), charge = 1, multiplicity = 1:

       Center              X                  Y                   Z               Mass
    ------------   -----------------  -----------------  -----------------  -----------------
         N           -2.345607370923    -0.000135018470     0.029385102712    14.003074004430
         C           -0.867243770923     0.001100181530    -0.150562397288    12.000000000000
         C           -0.201644370923    -1.226145018470     0.015153102712    12.000000000000
         C           -0.201512370923     1.225889981530     0.015158102712    12.000000000000
         C            1.194728629077    -1.213155018470     0.021578102712    12.000000000000
         C            1.194893629077     1.212772981530     0.021575102712    12.000000000000
         C            1.888314629077    -0.000217018470     0.026676102712    12.000000000000
         H           -0.746411370923    -2.168365018470     0.011613102712     1.007825032230
         H           -0.746129370923     2.168202981530     0.011636102712     1.007825032230
         H           -2.728380370923     0.831790981530    -0.441749897288     1.007825032230
         H           -2.728747370923    -0.824622018470    -0.454371897288     1.007825032230
         H           -2.717346370923    -0.007340018470     0.990719102712     1.007825032230
         H            1.736476629077    -2.154289018470     0.021937102712     1.007825032230
         H            1.736730629077     2.153853981530     0.021926102712     1.007825032230
         H            2.974277629077    -0.000286018470     0.030368102712     1.007825032230

  Basis Set: AUG-CC-PVTZ
    Blend: AUG-CC-PVTZ
  Basis Set: (AUG-CC-PVTZ AUX)
    Blend: AUG-CC-PVTZ-JKFIT
	 Reference Energy          =    -286.1795329057747495 [Eh]
	 Singles Energy            =      -0.0000000000000000 [Eh]
	 Same-Spin Energy          =      -0.3093009655263545 [Eh]
	 Opposite-Spin Energy      =      -0.9939507544228486 [Eh]
	 Correlation Energy        =      -1.3032517199492031 [Eh]
	 Total Energy              =    -287.4827846257239798 [Eh]

	 ================> DF-SCS-MP2 Energies <==================
	-----------------------------------------------------------
	 SCS Same-Spin Scale       =       0.3333333333333333 [-]
	 SCS Opposite-Spin Scale   =       1.2000000000000000 [-]
	 SCS Same-Spin Energy      =      -0.1031003218421182 [Eh]
	 SCS Opposite-Spin Energy  =      -1.1927409053074183 [Eh]
	 SCS Correlation Energy    =      -1.2958412271495365 [Eh]
	 SCS Total Energy          =    -287.4753741329242871 [Eh]
	-----------------------------------------------------------

  Dipole Moment: [D]
     X:    -7.1055      Y:    -0.0003      Z:     0.2286     Total:     7.1092

*** Psi4 exiting successfully. Buy a developer a beer!
