                               Psi4 1.3.2 release

  ==> Input File <==

--------------------------------------------------------------------------
#psi4
#
memory 32 gb

molecule  {
1 1
  N       -2.3156210     0.0000130     0.0092220
  C       -0.8265460     0.0000770    -0.0152130
  C       -0.1716580    -1.2259970    -0.0050100
  C       -0.1715260     1.2260380    -0.0050050
  C        1.2247150    -1.2130070     0.0014150
  C        1.2248800     1.2129210     0.0014120
  C        1.9183010    -0.0000690     0.0065130
  H       -0.7164250    -2.1682170    -0.0085500
  H       -0.7161430     2.1683510    -0.0085270
  H       -2.6983940     0.8319390    -0.4619130
  H       -2.7162880    -0.8332289    -0.4443965
  H       -2.6873600    -0.0071920     0.9705560
  H        1.7664630    -2.1541410     0.0017740
  H        1.7667170     2.1540020     0.0017630
  H        3.0042640    -0.0001380     0.0102050
units angstrom
no_reorient  #important for SAPT in psi4, default
symmetry c1  #important for SAPT in psi4, default
}

set PROPERTIES_ORIGIN ["COM"]
properties('MP2/aug-cc-pvtz', properties = ['dipole'])
--------------------------------------------------------------------------

    Molecular point group: c1
  Charge       = 1
  Multiplicity = 1
  Basis Set: AUG-CC-PVTZ
    Blend: AUG-CC-PVTZ
  Basis Set: (AUG-CC-PVTZ AUX)
    Blend: AUG-CC-PVTZ-JKFIT

    Orbital Energies [Eh]
    ---------------------

    Doubly Occupied:

       1A    -15.897308     2A    -11.469214     3A    -11.413495
       4A    -11.413327     5A    -11.397219     6A    -11.397059
       7A    -11.392309     8A     -1.511309     9A     -1.316067
      10A     -1.187396    11A     -1.179532    12A     -1.017942
      13A     -1.003930    14A     -0.954782    15A     -0.935374
      16A     -0.896194    17A     -0.835116    18A     -0.787565
      19A     -0.768066    20A     -0.756122    21A     -0.673868
      22A     -0.673088    23A     -0.664397    24A     -0.508013
      25A     -0.501615

  @DF-RHF Final Energy:  -286.18846805065698

   => Energetics <=

    Nuclear Repulsion Energy =            280.4699853745578935
    One-Electron Energy =                -932.2162949847388518
    Two-Electron Energy =                 365.5578415595240358
    Total Energy =                       -286.1884680506569794
  Basis Set: (AUG-CC-PVTZ AUX)
    Blend: AUG-CC-PVTZ-RI
    Molecular point group: c1

    Geometry (in Angstrom), charge = 1, multiplicity = 1:

       Center              X                  Y                   Z               Mass
    ------------   -----------------  -----------------  -----------------  -----------------
         N           -2.346786043713     0.000108192537     0.009223398141    14.003074004430
         C           -0.857711043713     0.000172192537    -0.015211601859    12.000000000000
         C           -0.202823043713    -1.225901807463    -0.005008601859    12.000000000000
         C           -0.202691043713     1.226133192537    -0.005003601859    12.000000000000
         C            1.193549956287    -1.212911807463     0.001416398141    12.000000000000
         C            1.193714956287     1.213016192537     0.001413398141    12.000000000000
         C            1.887135956287     0.000026192537     0.006514398141    12.000000000000
         H           -0.747590043713    -2.168121807463    -0.008548601859     1.007825032230
         H           -0.747308043713     2.168446192537    -0.008525601859     1.007825032230
         H           -2.729559043713     0.832034192537    -0.461911601859     1.007825032230
         H           -2.747453043713    -0.833133707463    -0.444395101859     1.007825032230
         H           -2.718525043713    -0.007096807463     0.970557398141     1.007825032230
         H            1.735297956287    -2.154045807463     0.001775398141     1.007825032230
         H            1.735551956287     2.154097192537     0.001764398141     1.007825032230
         H            2.973098956287    -0.000042807463     0.010206398141     1.007825032230

  Basis Set: AUG-CC-PVTZ
    Blend: AUG-CC-PVTZ
  Basis Set: (AUG-CC-PVTZ AUX)
    Blend: AUG-CC-PVTZ-JKFIT
	 Reference Energy          =    -286.1884680506569794 [Eh]
	 Singles Energy            =      -0.0000000000000000 [Eh]
	 Same-Spin Energy          =      -0.3089574170657226 [Eh]
	 Opposite-Spin Energy      =      -0.9924477536057372 [Eh]
	 Correlation Energy        =      -1.3014051706714598 [Eh]
	 Total Energy              =    -287.4898732213284234 [Eh]

	 ================> DF-SCS-MP2 Energies <==================
	-----------------------------------------------------------
	 SCS Same-Spin Scale       =       0.3333333333333333 [-]
	 SCS Opposite-Spin Scale   =       1.2000000000000000 [-]
	 SCS Same-Spin Energy      =      -0.1029858056885742 [Eh]
	 SCS Opposite-Spin Energy  =      -1.1909373043268847 [Eh]
	 SCS Correlation Energy    =      -1.2939231100154589 [Eh]
	 SCS Total Energy          =    -287.4823911606724209 [Eh]
	-----------------------------------------------------------

  Dipole Moment: [D]
     X:    -7.2605      Y:    -0.0118      Z:     0.1033     Total:     7.2612

*** Psi4 exiting successfully. Buy a developer a beer!
