                               Psi4 1.3.2 release

  ==> Input File <==

--------------------------------------------------------------------------
#psi4
#
memory 32 gb

molecule  {
1 1
  N       -2.3074134    -0.1556356     0.0117468
  C       -0.8265460     0.0000770    -0.0152130
  C       -0.1716580    -1.2259970    -0.0050100
  C       -0.1715260     1.2260380    -0.0050050
  C        1.2247150    -1.2130070     0.0014150
  C        1.2248800     1.2129210     0.0014120
  C        1.9183010    -0.0000690     0.0065130
  H       -0.7164250    -2.1682170    -0.0085500
  H       -0.7161430     2.1683510    -0.0085270
  H       -2.6983940     0.8319390    -0.4619130
  H       -2.6987610    -0.8244740    -0.4745350
  H       -2.6873600    -0.0071920     0.9705560
  H        1.7664630    -2.1541410     0.0017740
  H        1.7667170     2.1540020     0.0017630
  H        3.0042640    -0.0001380     0.0102050
units angstrom
no_reorient  #important for SAPT in psi4, default
symmetry c1  #important for SAPT in psi4, default
}

set PROPERTIES_ORIGIN ["COM"]
properties('MP2/aug-cc-pvtz', properties = ['dipole'])
--------------------------------------------------------------------------

    Molecular point group: c1
  Charge       = 1
  Multiplicity = 1
  Basis Set: AUG-CC-PVTZ
    Blend: AUG-CC-PVTZ
  Basis Set: (AUG-CC-PVTZ AUX)
    Blend: AUG-CC-PVTZ-JKFIT

    Orbital Energies [Eh]
    ---------------------

    Doubly Occupied:

       1A    -15.896902     2A    -11.470239     3A    -11.416966
       4A    -11.410166     5A    -11.398706     6A    -11.395951
       7A    -11.392450     8A     -1.513653     9A     -1.316800
      10A     -1.187611    11A     -1.181290    12A     -1.027714
      13A     -1.007354    14A     -0.976416    15A     -0.906255
      16A     -0.885453    17A     -0.834882    18A     -0.785160
      19A     -0.766976    20A     -0.755752    21A     -0.673892
      22A     -0.673204    23A     -0.663702    24A     -0.508112
      25A     -0.501821

  @DF-RHF Final Energy:  -286.15582963013776

   => Energetics <=

    Nuclear Repulsion Energy =            280.5758353232910736
    One-Electron Energy =                -932.3684708191293566
    Two-Electron Energy =                 365.6368058657005804
    Total Energy =                       -286.1558296301377595
  Basis Set: (AUG-CC-PVTZ AUX)
    Blend: AUG-CC-PVTZ-RI
    Molecular point group: c1

    Geometry (in Angstrom), charge = 1, multiplicity = 1:

       Center              X                  Y                   Z               Mass
    ------------   -----------------  -----------------  -----------------  -----------------
         N           -2.339988052272    -0.132463599965     0.011695249746    14.003074004430
         C           -0.859120652272     0.023249000035    -0.015264550254    12.000000000000
         C           -0.204232652272    -1.202824999965    -0.005061550254    12.000000000000
         C           -0.204100652272     1.249210000035    -0.005056550254    12.000000000000
         C            1.192140347728    -1.189834999965     0.001363449746    12.000000000000
         C            1.192305347728     1.236093000035     0.001360449746    12.000000000000
         C            1.885726347728     0.023103000035     0.006461449746    12.000000000000
         H           -0.748999652272    -2.145044999965    -0.008601550254     1.007825032230
         H           -0.748717652272     2.191523000035    -0.008578550254     1.007825032230
         H           -2.730968652272     0.855111000035    -0.461964550254     1.007825032230
         H           -2.731335652272    -0.801301999965    -0.474586550254     1.007825032230
         H           -2.719934652272     0.015980000035     0.970504449746     1.007825032230
         H            1.733888347728    -2.130968999965     0.001722449746     1.007825032230
         H            1.734142347728     2.177174000035     0.001711449746     1.007825032230
         H            2.971689347728     0.023034000035     0.010153449746     1.007825032230

  Basis Set: AUG-CC-PVTZ
    Blend: AUG-CC-PVTZ
  Basis Set: (AUG-CC-PVTZ AUX)
    Blend: AUG-CC-PVTZ-JKFIT
	 Reference Energy          =    -286.1558296301377595 [Eh]
	 Singles Energy            =      -0.0000000000000000 [Eh]
	 Same-Spin Energy          =      -0.3097276777663946 [Eh]
	 Opposite-Spin Energy      =      -0.9944957366712948 [Eh]
	 Correlation Energy        =      -1.3042234144376894 [Eh]
	 Total Energy              =    -287.4600530445754316 [Eh]

	 ================> DF-SCS-MP2 Energies <==================
	-----------------------------------------------------------
	 SCS Same-Spin Scale       =       0.3333333333333333 [-]
	 SCS Opposite-Spin Scale   =       1.2000000000000000 [-]
	 SCS Same-Spin Energy      =      -0.1032425592554649 [Eh]
	 SCS Opposite-Spin Energy  =      -1.1933948840055537 [Eh]
	 SCS Correlation Energy    =      -1.2966374432610186 [Eh]
	 SCS Total Energy          =    -287.4524670733987932 [Eh]
	-----------------------------------------------------------

  Dipole Moment: [D]
     X:    -7.2203      Y:     0.1973      Z:     0.0822     Total:     7.2235

*** Psi4 exiting successfully. Buy a developer a beer!
