                               Psi4 1.4a3.dev225

  ==> Input File <==

--------------------------------------------------------------------------
#psi4
#
memory 32 gb

molecule  {
1 1
  N        2.3113160     0.0000000     0.0062670
  C        0.8346230     0.0000000    -0.0115750
  C        0.1710600     1.2220230    -0.0032900
  C        0.1710600    -1.2220230    -0.0032920
  C       -1.2250620     1.2112680     0.0011370
  C       -1.2250620    -1.2112680     0.0011350
  C       -1.9212210     0.0000000     0.0049050
  H        0.7202500     2.1599530    -0.0070580
  H        0.7202510    -2.1599530    -0.0070620
  H        2.6997490    -0.8257060    -0.4685630
  H        2.6997490     0.8257100    -0.4685560
  H        2.6931358    -0.0000041     0.9832961
  H       -1.7649950     2.1535280     0.0013910
  H       -1.7649950    -2.1535280     0.0013870
  H       -3.0074630     0.0000000     0.0058010
units angstrom
no_reorient  #important for SAPT in psi4, default
symmetry c1  #important for SAPT in psi4, default
}

set PROPERTIES_ORIGIN ["COM"]
properties('MP2/aug-cc-pvtz', properties = ['dipole'])
--------------------------------------------------------------------------

    Molecular point group: c1
  Charge       = 1
  Multiplicity = 1
  Basis Set: AUG-CC-PVTZ
    Blend: AUG-CC-PVTZ
  Basis Set: (AUG-CC-PVTZ AUX)
    Blend: AUG-CC-PVTZ-JKFIT

    Orbital Energies [Eh]
    ---------------------

    Doubly Occupied:

       1A    -15.899548     2A    -11.467363     3A    -11.412672
       4A    -11.412640     5A    -11.396784     6A    -11.396621
       7A    -11.392301     8A     -1.512685     9A     -1.315242
      10A     -1.186504    11A     -1.179676    12A     -1.018401
      13A     -1.005088    14A     -0.953876    15A     -0.934706
      16A     -0.897275    17A     -0.836151    18A     -0.786081
      19A     -0.768238    20A     -0.755267    21A     -0.674047
      22A     -0.672891    23A     -0.663023    24A     -0.507745
      25A     -0.501011

  @DF-RHF Final Energy:  -286.18796665514373

   => Energetics <=

    Nuclear Repulsion Energy =            280.6408116491889473
    One-Electron Energy =                -932.5658806721510246
    Two-Electron Energy =                 365.7371023678184088
    Total Energy =                       -286.1879666551437253
  Basis Set: (AUG-CC-PVTZ AUX)
    Blend: AUG-CC-PVTZ-RI
    Molecular point group: c1

    Geometry (in Angstrom), charge = 1, multiplicity = 1:

       Center              X                  Y                   Z               Mass
    ------------   -----------------  -----------------  -----------------  -----------------
         N            2.342683147696     0.000000001071     0.006299409872    14.003074004430
         C            0.865990147696     0.000000001071    -0.011542590128    12.000000000000
         C            0.202427147696     1.222023001071    -0.003257590128    12.000000000000
         C            0.202427147696    -1.222022998929    -0.003259590128    12.000000000000
         C           -1.193694852304     1.211268001071     0.001169409872    12.000000000000
         C           -1.193694852304    -1.211267998929     0.001167409872    12.000000000000
         C           -1.889853852304     0.000000001071     0.004937409872    12.000000000000
         H            0.751617147696     2.159953001071    -0.007025590128     1.007825032230
         H            0.751618147696    -2.159952998929    -0.007029590128     1.007825032230
         H            2.731116147696    -0.825705998929    -0.468530590128     1.007825032230
         H            2.731116147696     0.825710001071    -0.468523590128     1.007825032230
         H            2.724502947696    -0.000004098929     0.983328509872     1.007825032230
         H           -1.733627852304     2.153528001071     0.001423409872     1.007825032230
         H           -1.733627852304    -2.153527998929     0.001419409872     1.007825032230
         H           -2.976095852304     0.000000001071     0.005833409872     1.007825032230

  Basis Set: AUG-CC-PVTZ
    Blend: AUG-CC-PVTZ
  Basis Set: (AUG-CC-PVTZ AUX)
    Blend: AUG-CC-PVTZ-JKFIT
	 Reference Energy          =    -286.1879666551437253 [Eh]
	 Singles Energy            =      -0.0000000000000000 [Eh]
	 Same-Spin Energy          =      -0.3090983921234782 [Eh]
	 Opposite-Spin Energy      =      -0.9926400679089773 [Eh]
	 Correlation Energy        =      -1.3017384600324555 [Eh]
	 Total Energy              =    -287.4897051151762071 [Eh]

	 ================> DF-SCS-MP2 Energies <==================
	-----------------------------------------------------------
	 SCS Same-Spin Scale       =       0.3333333333333333 [-]
	 SCS Opposite-Spin Scale   =       1.2000000000000000 [-]
	 SCS Same-Spin Energy      =      -0.1030327973744927 [Eh]
	 SCS Opposite-Spin Energy  =      -1.1911680814907728 [Eh]
	 SCS Correlation Energy    =      -1.2942008788652655 [Eh]
	 SCS Total Energy          =    -287.4821675340089655 [Eh]
	-----------------------------------------------------------

  Dipole Moment: [D]
     X:     7.2936      Y:    -0.0000      Z:     0.0900     Total:     7.2942

*** Psi4 exiting successfully. Buy a developer a beer!
