                               Psi4 1.3.2 release

  ==> Input File <==

--------------------------------------------------------------------------
#psi4
#
memory 32 gb

molecule  {
1 1
  N       -2.3156210     0.0000130     0.0092220
  C       -0.8318778     0.0008587    -0.1190232
  C       -0.1716580    -1.2259970    -0.0050100
  C       -0.1715260     1.2260380    -0.0050050
  C        1.2247150    -1.2130070     0.0014150
  C        1.2248800     1.2129210     0.0014120
  C        1.9183010    -0.0000690     0.0065130
  H       -0.7164250    -2.1682170    -0.0085500
  H       -0.7161430     2.1683510    -0.0085270
  H       -2.6983940     0.8319390    -0.4619130
  H       -2.6987610    -0.8244740    -0.4745350
  H       -2.6873600    -0.0071920     0.9705560
  H        1.7664630    -2.1541410     0.0017740
  H        1.7667170     2.1540020     0.0017630
  H        3.0042640    -0.0001380     0.0102050
units angstrom
no_reorient  #important for SAPT in psi4, default
symmetry c1  #important for SAPT in psi4, default
}

set PROPERTIES_ORIGIN ["COM"]
properties('MP2/aug-cc-pvtz', properties = ['dipole'])
--------------------------------------------------------------------------

    Molecular point group: c1
  Charge       = 1
  Multiplicity = 1
  Basis Set: AUG-CC-PVTZ
    Blend: AUG-CC-PVTZ
  Basis Set: (AUG-CC-PVTZ AUX)
    Blend: AUG-CC-PVTZ-JKFIT

    Orbital Energies [Eh]
    ---------------------

    Doubly Occupied:

       1A    -15.896458     2A    -11.469252     3A    -11.415130
       4A    -11.415081     5A    -11.397371     6A    -11.397145
       7A    -11.393993     8A     -1.510467     9A     -1.314992
      10A     -1.186929    11A     -1.178909    12A     -1.016847
      13A     -1.004178    14A     -0.956703    15A     -0.933682
      16A     -0.893765    17A     -0.835607    18A     -0.785533
      19A     -0.768203    20A     -0.756199    21A     -0.675878
      22A     -0.670621    23A     -0.663968    24A     -0.508657
      25A     -0.501289

  @DF-RHF Final Energy:  -286.18445487949111

   => Energetics <=

    Nuclear Repulsion Energy =            280.2786565776870589
    One-Electron Energy =                -931.8325061168019374
    Two-Electron Energy =                 365.3693946596238220
    Total Energy =                       -286.1844548794911134
  Basis Set: (AUG-CC-PVTZ AUX)
    Blend: AUG-CC-PVTZ-RI
    Molecular point group: c1

    Geometry (in Angstrom), charge = 1, multiplicity = 1:

       Center              X                  Y                   Z               Mass
    ------------   -----------------  -----------------  -----------------  -----------------
         N           -2.346293648894    -0.000085329782     0.022789417252    14.003074004430
         C           -0.862550448894     0.000760370218    -0.105455782748    12.000000000000
         C           -0.202330648894    -1.226095329782     0.008557417252    12.000000000000
         C           -0.202198648894     1.225939670218     0.008562417252    12.000000000000
         C            1.194042351106    -1.213105329782     0.014982417252    12.000000000000
         C            1.194207351106     1.212822670218     0.014979417252    12.000000000000
         C            1.887628351106    -0.000167329782     0.020080417252    12.000000000000
         H           -0.747097648894    -2.168315329782     0.005017417252     1.007825032230
         H           -0.746815648894     2.168252670218     0.005040417252     1.007825032230
         H           -2.729066648894     0.831840670218    -0.448345582748     1.007825032230
         H           -2.729433648894    -0.824572329782    -0.460967582748     1.007825032230
         H           -2.718032648894    -0.007290329782     0.984123417252     1.007825032230
         H            1.735790351106    -2.154239329782     0.015341417252     1.007825032230
         H            1.736044351106     2.153903670218     0.015330417252     1.007825032230
         H            2.973591351106    -0.000236329782     0.023772417252     1.007825032230

  Basis Set: AUG-CC-PVTZ
    Blend: AUG-CC-PVTZ
  Basis Set: (AUG-CC-PVTZ AUX)
    Blend: AUG-CC-PVTZ-JKFIT
	 Reference Energy          =    -286.1844548794911134 [Eh]
	 Singles Energy            =      -0.0000000000000000 [Eh]
	 Same-Spin Energy          =      -0.3091304502082195 [Eh]
	 Opposite-Spin Energy      =      -0.9931957475713828 [Eh]
	 Correlation Energy        =      -1.3023261977796023 [Eh]
	 Total Energy              =    -287.4867810772707344 [Eh]

	 ================> DF-SCS-MP2 Energies <==================
	-----------------------------------------------------------
	 SCS Same-Spin Scale       =       0.3333333333333333 [-]
	 SCS Opposite-Spin Scale   =       1.2000000000000000 [-]
	 SCS Same-Spin Energy      =      -0.1030434834027398 [Eh]
	 SCS Opposite-Spin Energy  =      -1.1918348970856594 [Eh]
	 SCS Correlation Energy    =      -1.2948783804883992 [Eh]
	 SCS Total Energy          =    -287.4793332599795121 [Eh]
	-----------------------------------------------------------

  Dipole Moment: [D]
     X:    -7.1696      Y:    -0.0003      Z:     0.1758     Total:     7.1717

*** Psi4 exiting successfully. Buy a developer a beer!
