                               Psi4 1.4a3.dev225

  ==> Input File <==

--------------------------------------------------------------------------
#psi4
#
memory 32 gb

molecule  {
1 1
  N        2.3113160     0.0000000     0.0062670
  C        0.8346230     0.0000000    -0.0115750
  C        0.1710600     1.2220230    -0.0032900
  C        0.1710600    -1.2220230    -0.0032920
  C       -1.2250620     1.2112680     0.0011370
  C       -1.2250620    -1.2112680     0.0011350
  C       -1.9212210     0.0000000     0.0049050
  H        0.7202500     2.1599530    -0.0070580
  H        0.7202510    -2.1599530    -0.0070620
  H        2.6997490    -0.8257060    -0.4685630
  H        2.6997490     0.8257100    -0.4685560
  H        2.6676565    -0.0000038     0.9180978
  H       -1.7649950     2.1535280     0.0013910
  H       -1.7649950    -2.1535280     0.0013870
  H       -3.0074630     0.0000000     0.0058010
units angstrom
no_reorient  #important for SAPT in psi4, default
symmetry c1  #important for SAPT in psi4, default
}

set PROPERTIES_ORIGIN ["COM"]
properties('MP2/aug-cc-pvtz', properties = ['dipole'])
--------------------------------------------------------------------------

    Molecular point group: c1
  Charge       = 1
  Multiplicity = 1
  Basis Set: AUG-CC-PVTZ
    Blend: AUG-CC-PVTZ
  Basis Set: (AUG-CC-PVTZ AUX)
    Blend: AUG-CC-PVTZ-JKFIT

    Orbital Energies [Eh]
    ---------------------

    Doubly Occupied:

       1A    -15.895283     2A    -11.468057     3A    -11.413332
       4A    -11.413301     5A    -11.397237     6A    -11.397072
       7A    -11.392812     8A     -1.524217     9A     -1.316793
      10A     -1.187068    11A     -1.181739    12A     -1.019462
      13A     -1.007529    14A     -0.975205    15A     -0.936594
      16A     -0.898774    17A     -0.837049    18A     -0.786769
      19A     -0.768876    20A     -0.755808    21A     -0.674664
      22A     -0.673997    23A     -0.663528    24A     -0.508708
      25A     -0.501473

  @DF-RHF Final Energy:  -286.18839134161101

   => Energetics <=

    Nuclear Repulsion Energy =            281.0106302903670894
    One-Electron Energy =                -933.2073440039100660
    Two-Electron Energy =                 366.0083223719319676
    Total Energy =                       -286.1883913416110090
  Basis Set: (AUG-CC-PVTZ AUX)
    Blend: AUG-CC-PVTZ-RI
    Molecular point group: c1

    Geometry (in Angstrom), charge = 1, multiplicity = 1:

       Center              X                  Y                   Z               Mass
    ------------   -----------------  -----------------  -----------------  -----------------
         N            2.342956134379    -0.000000002143     0.006997948199    14.003074004430
         C            0.866263134379    -0.000000002143    -0.010844051801    12.000000000000
         C            0.202700134379     1.222022997857    -0.002559051801    12.000000000000
         C            0.202700134379    -1.222023002143    -0.002561051801    12.000000000000
         C           -1.193421865621     1.211267997857     0.001867948199    12.000000000000
         C           -1.193421865621    -1.211268002143     0.001865948199    12.000000000000
         C           -1.889580865621    -0.000000002143     0.005635948199    12.000000000000
         H            0.751890134379     2.159952997857    -0.006327051801     1.007825032230
         H            0.751891134379    -2.159953002143    -0.006331051801     1.007825032230
         H            2.731389134379    -0.825706002143    -0.467832051801     1.007825032230
         H            2.731389134379     0.825709997857    -0.467825051801     1.007825032230
         H            2.699296634379    -0.000003802143     0.918828748199     1.007825032230
         H           -1.733354865621     2.153527997857     0.002121948199     1.007825032230
         H           -1.733354865621    -2.153528002143     0.002117948199     1.007825032230
         H           -2.975822865621    -0.000000002143     0.006531948199     1.007825032230

  Basis Set: AUG-CC-PVTZ
    Blend: AUG-CC-PVTZ
  Basis Set: (AUG-CC-PVTZ AUX)
    Blend: AUG-CC-PVTZ-JKFIT
	 Reference Energy          =    -286.1883913416110090 [Eh]
	 Singles Energy            =      -0.0000000000000000 [Eh]
	 Same-Spin Energy          =      -0.3087165405372831 [Eh]
	 Opposite-Spin Energy      =      -0.9915268040715054 [Eh]
	 Correlation Energy        =      -1.3002433446087884 [Eh]
	 Total Energy              =    -287.4886346862198252 [Eh]

	 ================> DF-SCS-MP2 Energies <==================
	-----------------------------------------------------------
	 SCS Same-Spin Scale       =       0.3333333333333333 [-]
	 SCS Opposite-Spin Scale   =       1.2000000000000000 [-]
	 SCS Same-Spin Energy      =      -0.1029055135124277 [Eh]
	 SCS Opposite-Spin Energy  =      -1.1898321648858063 [Eh]
	 SCS Correlation Energy    =      -1.2927376783982341 [Eh]
	 SCS Total Energy          =    -287.4811290200092344 [Eh]
	-----------------------------------------------------------

  Dipole Moment: [D]
     X:     7.2436      Y:     0.0000      Z:    -0.0090     Total:     7.2436

*** Psi4 exiting successfully. Buy a developer a beer!
