                               Psi4 1.3.2 release

  ==> Input File <==

--------------------------------------------------------------------------
#psi4
#
memory 32 gb

molecule  {
1 1
  N       -2.3156210     0.0000130     0.0092220
  C       -0.7265595     0.0000813    -0.0168537
  C       -0.1716580    -1.2259970    -0.0050100
  C       -0.1715260     1.2260380    -0.0050050
  C        1.2247150    -1.2130070     0.0014150
  C        1.2248800     1.2129210     0.0014120
  C        1.9183010    -0.0000690     0.0065130
  H       -0.7164250    -2.1682170    -0.0085500
  H       -0.7161430     2.1683510    -0.0085270
  H       -2.6983940     0.8319390    -0.4619130
  H       -2.6987610    -0.8244740    -0.4745350
  H       -2.6873600    -0.0071920     0.9705560
  H        1.7664630    -2.1541410     0.0017740
  H        1.7667170     2.1540020     0.0017630
  H        3.0042640    -0.0001380     0.0102050
units angstrom
no_reorient  #important for SAPT in psi4, default
symmetry c1  #important for SAPT in psi4, default
}

set PROPERTIES_ORIGIN ["COM"]
properties('MP2/aug-cc-pvtz', properties = ['dipole'])
--------------------------------------------------------------------------

    Molecular point group: c1
  Charge       = 1
  Multiplicity = 1
  Basis Set: AUG-CC-PVTZ
    Blend: AUG-CC-PVTZ
  Basis Set: (AUG-CC-PVTZ AUX)
    Blend: AUG-CC-PVTZ-JKFIT

    Orbital Energies [Eh]
    ---------------------

    Doubly Occupied:

       1A    -15.881984     2A    -11.473401     3A    -11.410633
       4A    -11.410583     5A    -11.400803     6A    -11.400724
       7A    -11.392095     8A     -1.484070     9A     -1.331644
      10A     -1.198834    11A     -1.182743    12A     -1.018723
      13A     -0.992552    14A     -0.939569    15A     -0.924832
      16A     -0.891764    17A     -0.823874    18A     -0.805369
      19A     -0.765774    20A     -0.761487    21A     -0.688540
      22A     -0.673176    23A     -0.669396    24A     -0.514138
      25A     -0.506885

  @DF-RHF Final Energy:  -286.17974024888804

   => Energetics <=

    Nuclear Repulsion Energy =            281.1976313841561250
    One-Electron Energy =                -933.6675567667053883
    Two-Electron Energy =                 366.2901851336612253
    Total Energy =                       -286.1797402488880380
  Basis Set: (AUG-CC-PVTZ AUX)
    Blend: AUG-CC-PVTZ-RI
    Molecular point group: c1

    Geometry (in Angstrom), charge = 1, multiplicity = 1:

       Center              X                  Y                   Z               Mass
    ------------   -----------------  -----------------  -----------------  -----------------
         N           -2.359729151375     0.000013843483     0.009755608590    14.003074004430
         C           -0.770667651375     0.000082143483    -0.016320091410    12.000000000000
         C           -0.215766151375    -1.225996156517    -0.004476391410    12.000000000000
         C           -0.215634151375     1.226038843483    -0.004471391410    12.000000000000
         C            1.180606848625    -1.213006156517     0.001948608590    12.000000000000
         C            1.180771848625     1.212921843483     0.001945608590    12.000000000000
         C            1.874192848625    -0.000068156517     0.007046608590    12.000000000000
         H           -0.760533151375    -2.168216156517    -0.008016391410     1.007825032230
         H           -0.760251151375     2.168351843483    -0.007993391410     1.007825032230
         H           -2.742502151375     0.831939843483    -0.461379391410     1.007825032230
         H           -2.742869151375    -0.824473156517    -0.474001391410     1.007825032230
         H           -2.731468151375    -0.007191156517     0.971089608590     1.007825032230
         H            1.722354848625    -2.154140156517     0.002307608590     1.007825032230
         H            1.722608848625     2.154002843483     0.002296608590     1.007825032230
         H            2.960155848625    -0.000137156517     0.010738608590     1.007825032230

  Basis Set: AUG-CC-PVTZ
    Blend: AUG-CC-PVTZ
  Basis Set: (AUG-CC-PVTZ AUX)
    Blend: AUG-CC-PVTZ-JKFIT
	 Reference Energy          =    -286.1797402488880380 [Eh]
	 Singles Energy            =      -0.0000000000000000 [Eh]
	 Same-Spin Energy          =      -0.3088851881869134 [Eh]
	 Opposite-Spin Energy      =      -0.9924528264297376 [Eh]
	 Correlation Energy        =      -1.3013380146166509 [Eh]
	 Total Energy              =    -287.4810782635046849 [Eh]

	 ================> DF-SCS-MP2 Energies <==================
	-----------------------------------------------------------
	 SCS Same-Spin Scale       =       0.3333333333333333 [-]
	 SCS Opposite-Spin Scale   =       1.2000000000000000 [-]
	 SCS Same-Spin Energy      =      -0.1029617293956378 [Eh]
	 SCS Opposite-Spin Energy  =      -1.1909433917156851 [Eh]
	 SCS Correlation Energy    =      -1.2939051211113228 [Eh]
	 SCS Total Energy          =    -287.4736453699993604 [Eh]
	-----------------------------------------------------------

  Dipole Moment: [D]
     X:    -6.9434      Y:    -0.0003      Z:     0.0667     Total:     6.9437

*** Psi4 exiting successfully. Buy a developer a beer!
