                               Psi4 1.3.2 release

  ==> Input File <==

--------------------------------------------------------------------------
#psi4
#
memory 32 gb

molecule  {
1 1
  N       -2.3156210     0.0000130     0.0092220
  C       -1.0265191     0.0000684    -0.0119315
  C       -0.1716580    -1.2259970    -0.0050100
  C       -0.1715260     1.2260380    -0.0050050
  C        1.2247150    -1.2130070     0.0014150
  C        1.2248800     1.2129210     0.0014120
  C        1.9183010    -0.0000690     0.0065130
  H       -0.7164250    -2.1682170    -0.0085500
  H       -0.7161430     2.1683510    -0.0085270
  H       -2.6983940     0.8319390    -0.4619130
  H       -2.6987610    -0.8244740    -0.4745350
  H       -2.6873600    -0.0071920     0.9705560
  H        1.7664630    -2.1541410     0.0017740
  H        1.7667170     2.1540020     0.0017630
  H        3.0042640    -0.0001380     0.0102050
units angstrom
no_reorient  #important for SAPT in psi4, default
symmetry c1  #important for SAPT in psi4, default
}

set PROPERTIES_ORIGIN ["COM"]
properties('MP2/aug-cc-pvtz', properties = ['dipole'])
--------------------------------------------------------------------------

    Molecular point group: c1
  Charge       = 1
  Multiplicity = 1
  Basis Set: AUG-CC-PVTZ
    Blend: AUG-CC-PVTZ
  Basis Set: (AUG-CC-PVTZ AUX)
    Blend: AUG-CC-PVTZ-JKFIT

    Orbital Energies [Eh]
    ---------------------

    Doubly Occupied:

       1A    -15.911826     2A    -11.465616     3A    -11.424491
       4A    -11.424421     5A    -11.396586     6A    -11.394196
       7A    -11.393883     8A     -1.578071     9A     -1.292679
      10A     -1.174238    11A     -1.172235    12A     -1.042785
      13A     -1.028482    14A     -0.992490    15A     -0.941282
      16A     -0.908716    17A     -0.843626    18A     -0.766845
      19A     -0.766002    20A     -0.738039    21A     -0.679439
      22A     -0.650654    23A     -0.638880    24A     -0.496018
      25A     -0.493945

  @DF-RHF Final Energy:  -286.13284412082265

   => Energetics <=

    Nuclear Repulsion Energy =            279.5955375749645668
    One-Electron Energy =                -930.2258727013729640
    Two-Electron Energy =                 364.4974910055858004
    Total Energy =                       -286.1328441208226536
  Basis Set: (AUG-CC-PVTZ AUX)
    Blend: AUG-CC-PVTZ-RI
    Molecular point group: c1

    Geometry (in Angstrom), charge = 1, multiplicity = 1:

       Center              X                  Y                   Z               Mass
    ------------   -----------------  -----------------  -----------------  -----------------
         N           -2.321463171482     0.000015489142     0.009127681342    14.003074004430
         C           -1.032361271482     0.000070889142    -0.012025818658    12.000000000000
         C           -0.177500171482    -1.225994510858    -0.005104318658    12.000000000000
         C           -0.177368171482     1.226040489142    -0.005099318658    12.000000000000
         C            1.218872828518    -1.213004510858     0.001320681342    12.000000000000
         C            1.219037828518     1.212923489142     0.001317681342    12.000000000000
         C            1.912458828518    -0.000066510858     0.006418681342    12.000000000000
         H           -0.722267171482    -2.168214510858    -0.008644318658     1.007825032230
         H           -0.721985171482     2.168353489142    -0.008621318658     1.007825032230
         H           -2.704236171482     0.831941489142    -0.462007318658     1.007825032230
         H           -2.704603171482    -0.824471510858    -0.474629318658     1.007825032230
         H           -2.693202171482    -0.007189510858     0.970461681342     1.007825032230
         H            1.760620828518    -2.154138510858     0.001679681342     1.007825032230
         H            1.760874828518     2.154004489142     0.001668681342     1.007825032230
         H            2.998421828518    -0.000135510858     0.010110681342     1.007825032230

  Basis Set: AUG-CC-PVTZ
    Blend: AUG-CC-PVTZ
  Basis Set: (AUG-CC-PVTZ AUX)
    Blend: AUG-CC-PVTZ-JKFIT
	 Reference Energy          =    -286.1328441208226536 [Eh]
	 Singles Energy            =      -0.0000000000000000 [Eh]
	 Same-Spin Energy          =      -0.3115689143199851 [Eh]
	 Opposite-Spin Energy      =      -0.9968018898439902 [Eh]
	 Correlation Energy        =      -1.3083708041639754 [Eh]
	 Total Energy              =    -287.4412149249866388 [Eh]

	 ================> DF-SCS-MP2 Energies <==================
	-----------------------------------------------------------
	 SCS Same-Spin Scale       =       0.3333333333333333 [-]
	 SCS Opposite-Spin Scale   =       1.2000000000000000 [-]
	 SCS Same-Spin Energy      =      -0.1038563047733284 [Eh]
	 SCS Opposite-Spin Energy  =      -1.1961622678127881 [Eh]
	 SCS Correlation Energy    =      -1.3000185725861164 [Eh]
	 SCS Total Energy          =    -287.4328626934087652 [Eh]
	-----------------------------------------------------------

  Dipole Moment: [D]
     X:    -7.4692      Y:    -0.0004      Z:     0.0856     Total:     7.4697

*** Psi4 exiting successfully. Buy a developer a beer!
