                               Psi4 1.4a3.dev225

  ==> Input File <==

--------------------------------------------------------------------------
#psi4
#
memory 32 gb

molecule  {
1 1
  N        2.3113160     0.0000000     0.0062670
  C        0.8346230     0.0000000    -0.0115750
  C        0.1710600     1.2220230    -0.0032900
  C        0.1710600    -1.2220230    -0.0032920
  C       -1.2250620     1.2112680     0.0011370
  C       -1.2250620    -1.2112680     0.0011350
  C       -1.9212210     0.0000000     0.0049050
  H        0.7202500     2.1599530    -0.0070580
  H        0.7202510    -2.1599530    -0.0070620
  H        2.6997490    -0.8257060    -0.4685630
  H        2.6997490     0.8257100    -0.4685560
  H        2.7040555    -0.0000042     1.0112382
  H       -1.7649950     2.1535280     0.0013910
  H       -1.7649950    -2.1535280     0.0013870
  H       -3.0074630     0.0000000     0.0058010
units angstrom
no_reorient  #important for SAPT in psi4, default
symmetry c1  #important for SAPT in psi4, default
}

set PROPERTIES_ORIGIN ["COM"]
properties('MP2/aug-cc-pvtz', properties = ['dipole'])
--------------------------------------------------------------------------

    Molecular point group: c1
  Charge       = 1
  Multiplicity = 1
  Basis Set: AUG-CC-PVTZ
    Blend: AUG-CC-PVTZ
  Basis Set: (AUG-CC-PVTZ AUX)
    Blend: AUG-CC-PVTZ-JKFIT

    Orbital Energies [Eh]
    ---------------------

    Doubly Occupied:

       1A    -15.901103     2A    -11.467066     3A    -11.412398
       4A    -11.412367     5A    -11.396592     6A    -11.396430
       7A    -11.392099     8A     -1.508385     9A     -1.314627
      10A     -1.186267    11A     -1.178885    12A     -1.017954
      13A     -1.004325    14A     -0.944752    15A     -0.933901
      16A     -0.896532    17A     -0.835749    18A     -0.785791
      19A     -0.767965    20A     -0.755039    21A     -0.673803
      22A     -0.672381    23A     -0.662811    24A     -0.507329
      25A     -0.500816

  @DF-RHF Final Energy:  -286.18562002949295

   => Energetics <=

    Nuclear Repulsion Energy =            280.4930699572262256
    One-Electron Energy =                -932.3066464931466726
    Two-Electron Energy =                 365.6279565064274948
    Total Energy =                       -286.1856200294929522
  Basis Set: (AUG-CC-PVTZ AUX)
    Blend: AUG-CC-PVTZ-RI
    Molecular point group: c1

    Geometry (in Angstrom), charge = 1, multiplicity = 1:

       Center              X                  Y                   Z               Mass
    ------------   -----------------  -----------------  -----------------  -----------------
         N            2.342566153404     0.000000002143     0.006000036609    14.003074004430
         C            0.865873153404     0.000000002143    -0.011841963391    12.000000000000
         C            0.202310153404     1.222023002143    -0.003556963391    12.000000000000
         C            0.202310153404    -1.222022997857    -0.003558963391    12.000000000000
         C           -1.193811846596     1.211268002143     0.000870036609    12.000000000000
         C           -1.193811846596    -1.211267997857     0.000868036609    12.000000000000
         C           -1.889970846596     0.000000002143     0.004638036609    12.000000000000
         H            0.751500153404     2.159953002143    -0.007324963391     1.007825032230
         H            0.751501153404    -2.159952997857    -0.007328963391     1.007825032230
         H            2.730999153404    -0.825705997857    -0.468829963391     1.007825032230
         H            2.730999153404     0.825710002143    -0.468822963391     1.007825032230
         H            2.735305653404    -0.000004197857     1.010971236609     1.007825032230
         H           -1.733744846596     2.153528002143     0.001124036609     1.007825032230
         H           -1.733744846596    -2.153527997857     0.001120036609     1.007825032230
         H           -2.976212846596     0.000000002143     0.005534036609     1.007825032230

  Basis Set: AUG-CC-PVTZ
    Blend: AUG-CC-PVTZ
  Basis Set: (AUG-CC-PVTZ AUX)
    Blend: AUG-CC-PVTZ-JKFIT
	 Reference Energy          =    -286.1856200294929522 [Eh]
	 Singles Energy            =      -0.0000000000000000 [Eh]
	 Same-Spin Energy          =      -0.3092708139983508 [Eh]
	 Opposite-Spin Energy      =      -0.9931546891274827 [Eh]
	 Correlation Energy        =      -1.3024255031258334 [Eh]
	 Total Energy              =    -287.4880455326187985 [Eh]

	 ================> DF-SCS-MP2 Energies <==================
	-----------------------------------------------------------
	 SCS Same-Spin Scale       =       0.3333333333333333 [-]
	 SCS Opposite-Spin Scale   =       1.2000000000000000 [-]
	 SCS Same-Spin Energy      =      -0.1030902713327836 [Eh]
	 SCS Opposite-Spin Energy  =      -1.1917856269529792 [Eh]
	 SCS Correlation Energy    =      -1.2948758982857627 [Eh]
	 SCS Total Energy          =    -287.4804959277786907 [Eh]
	-----------------------------------------------------------

  Dipole Moment: [D]
     X:     7.3134      Y:    -0.0000      Z:     0.1333     Total:     7.3146

*** Psi4 exiting successfully. Buy a developer a beer!
