                               Psi4 1.3.2 release

  ==> Input File <==

--------------------------------------------------------------------------
#psi4
#
memory 32 gb

molecule  {
1 1
  N       -2.3146971    -0.0519543     0.0100948
  C       -0.8265460     0.0000770    -0.0152130
  C       -0.1716580    -1.2259970    -0.0050100
  C       -0.1715260     1.2260380    -0.0050050
  C        1.2247150    -1.2130070     0.0014150
  C        1.2248800     1.2129210     0.0014120
  C        1.9183010    -0.0000690     0.0065130
  H       -0.7164250    -2.1682170    -0.0085500
  H       -0.7161430     2.1683510    -0.0085270
  H       -2.6983940     0.8319390    -0.4619130
  H       -2.6987610    -0.8244740    -0.4745350
  H       -2.6873600    -0.0071920     0.9705560
  H        1.7664630    -2.1541410     0.0017740
  H        1.7667170     2.1540020     0.0017630
  H        3.0042640    -0.0001380     0.0102050
units angstrom
no_reorient  #important for SAPT in psi4, default
symmetry c1  #important for SAPT in psi4, default
}

set PROPERTIES_ORIGIN ["COM"]
properties('MP2/aug-cc-pvtz', properties = ['dipole'])
--------------------------------------------------------------------------

    Molecular point group: c1
  Charge       = 1
  Multiplicity = 1
  Basis Set: AUG-CC-PVTZ
    Blend: AUG-CC-PVTZ
  Basis Set: (AUG-CC-PVTZ AUX)
    Blend: AUG-CC-PVTZ-JKFIT

    Orbital Energies [Eh]
    ---------------------

    Doubly Occupied:

       1A    -15.897196     2A    -11.469141     3A    -11.414582
       4A    -11.412273     5A    -11.397651     6A    -11.396725
       7A    -11.392379     8A     -1.511566     9A     -1.316085
      10A     -1.187445    11A     -1.179538    12A     -1.018567
      13A     -1.004004    14A     -0.963687    15A     -0.926914
      16A     -0.895169    17A     -0.834976    18A     -0.787133
      19A     -0.767903    20A     -0.756098    21A     -0.674000
      22A     -0.673087    23A     -0.664326    24A     -0.508132
      25A     -0.501672

  @DF-RHF Final Energy:  -286.18492778688113

   => Energetics <=

    Nuclear Repulsion Energy =            280.5043206667065192
    One-Electron Energy =                -932.2779990395039249
    Two-Electron Energy =                 365.5887505859162161
    Total Energy =                       -286.1849277868811328
  Basis Set: (AUG-CC-PVTZ AUX)
    Blend: AUG-CC-PVTZ-RI
    Molecular point group: c1

    Geometry (in Angstrom), charge = 1, multiplicity = 1:

       Center              X                  Y                   Z               Mass
    ------------   -----------------  -----------------  -----------------  -----------------
         N           -2.346187465246    -0.044216802808     0.010289174504    14.003074004430
         C           -0.858036365246     0.007814497192    -0.015018625496    12.000000000000
         C           -0.203148365246    -1.218259502808    -0.004815625496    12.000000000000
         C           -0.203016365246     1.233775497192    -0.004810625496    12.000000000000
         C            1.193224634754    -1.205269502808     0.001609374504    12.000000000000
         C            1.193389634754     1.220658497192     0.001606374504    12.000000000000
         C            1.886810634754     0.007668497192     0.006707374504    12.000000000000
         H           -0.747915365246    -2.160479502808    -0.008355625496     1.007825032230
         H           -0.747633365246     2.176088497192    -0.008332625496     1.007825032230
         H           -2.729884365246     0.839676497192    -0.461718625496     1.007825032230
         H           -2.730251365246    -0.816736502808    -0.474340625496     1.007825032230
         H           -2.718850365246     0.000545497192     0.970750374504     1.007825032230
         H            1.734972634754    -2.146403502808     0.001968374504     1.007825032230
         H            1.735226634754     2.161739497192     0.001957374504     1.007825032230
         H            2.972773634754     0.007599497192     0.010399374504     1.007825032230

  Basis Set: AUG-CC-PVTZ
    Blend: AUG-CC-PVTZ
  Basis Set: (AUG-CC-PVTZ AUX)
    Blend: AUG-CC-PVTZ-JKFIT
	 Reference Energy          =    -286.1849277868811328 [Eh]
	 Singles Energy            =      -0.0000000000000000 [Eh]
	 Same-Spin Energy          =      -0.3090446343572539 [Eh]
	 Opposite-Spin Energy      =      -0.9926979564999809 [Eh]
	 Correlation Energy        =      -1.3017425908572349 [Eh]
	 Total Energy              =    -287.4866703777383918 [Eh]

	 ================> DF-SCS-MP2 Energies <==================
	-----------------------------------------------------------
	 SCS Same-Spin Scale       =       0.3333333333333333 [-]
	 SCS Opposite-Spin Scale   =       1.2000000000000000 [-]
	 SCS Same-Spin Energy      =      -0.1030148781190846 [Eh]
	 SCS Opposite-Spin Energy  =      -1.1912375477999770 [Eh]
	 SCS Correlation Energy    =      -1.2942524259190618 [Eh]
	 SCS Total Energy          =    -287.4791802128002018 [Eh]
	-----------------------------------------------------------

  Dipole Moment: [D]
     X:    -7.2395      Y:     0.0654      Z:     0.0742     Total:     7.2402

*** Psi4 exiting successfully. Buy a developer a beer!
