                               Psi4 1.3.2 release

  ==> Input File <==

--------------------------------------------------------------------------
#psi4
#
memory 32 gb

molecule  {
1 1
  N       -2.3156210     0.0000130     0.0092220
  C       -0.8284688    -0.0007050     0.0887162
  C       -0.1716580    -1.2259970    -0.0050100
  C       -0.1715260     1.2260380    -0.0050050
  C        1.2247150    -1.2130070     0.0014150
  C        1.2248800     1.2129210     0.0014120
  C        1.9183010    -0.0000690     0.0065130
  H       -0.7164250    -2.1682170    -0.0085500
  H       -0.7161430     2.1683510    -0.0085270
  H       -2.6983940     0.8319390    -0.4619130
  H       -2.6987610    -0.8244740    -0.4745350
  H       -2.6873600    -0.0071920     0.9705560
  H        1.7664630    -2.1541410     0.0017740
  H        1.7667170     2.1540020     0.0017630
  H        3.0042640    -0.0001380     0.0102050
units angstrom
no_reorient  #important for SAPT in psi4, default
symmetry c1  #important for SAPT in psi4, default
}

set PROPERTIES_ORIGIN ["COM"]
properties('MP2/aug-cc-pvtz', properties = ['dipole'])
--------------------------------------------------------------------------

    Molecular point group: c1
  Charge       = 1
  Multiplicity = 1
  Basis Set: AUG-CC-PVTZ
    Blend: AUG-CC-PVTZ
  Basis Set: (AUG-CC-PVTZ AUX)
    Blend: AUG-CC-PVTZ-JKFIT

    Orbital Energies [Eh]
    ---------------------

    Doubly Occupied:

       1A    -15.896859     2A    -11.469557     3A    -11.414202
       4A    -11.414076     5A    -11.397070     6A    -11.396905
       7A    -11.392658     8A     -1.511164     9A     -1.315331
      10A     -1.186960    11A     -1.178889    12A     -1.016734
      13A     -1.004051    14A     -0.957711    15A     -0.934125
      16A     -0.894875    17A     -0.834883    18A     -0.786464
      19A     -0.767874    20A     -0.756036    21A     -0.674866
      22A     -0.671338    23A     -0.664125    24A     -0.507861
      25A     -0.501180

  @DF-RHF Final Energy:  -286.18542584662333

   => Energetics <=

    Nuclear Repulsion Energy =            280.3840322158093841
    One-Electron Energy =                -932.0473317080519564
    Two-Electron Energy =                 365.4778736456192405
    Total Energy =                       -286.1854258466233318
  Basis Set: (AUG-CC-PVTZ AUX)
    Blend: AUG-CC-PVTZ-RI
    Molecular point group: c1

    Geometry (in Angstrom), charge = 1, multiplicity = 1:

       Center              X                  Y                   Z               Mass
    ------------   -----------------  -----------------  -----------------  -----------------
         N           -2.346728536543     0.000114152124    -0.003711990616    14.003074004430
         C           -0.859576336543    -0.000603847876     0.075782209384    12.000000000000
         C           -0.202765536543    -1.225895847876    -0.017943990616    12.000000000000
         C           -0.202633536543     1.226139152124    -0.017938990616    12.000000000000
         C            1.193607463457    -1.212905847876    -0.011518990616    12.000000000000
         C            1.193772463457     1.213022152124    -0.011521990616    12.000000000000
         C            1.887193463457     0.000032152124    -0.006420990616    12.000000000000
         H           -0.747532536543    -2.168115847876    -0.021483990616     1.007825032230
         H           -0.747250536543     2.168452152124    -0.021460990616     1.007825032230
         H           -2.729501536543     0.832040152124    -0.474846990616     1.007825032230
         H           -2.729868536543    -0.824372847876    -0.487468990616     1.007825032230
         H           -2.718467536543    -0.007090847876     0.957622009384     1.007825032230
         H            1.735355463457    -2.154039847876    -0.011159990616     1.007825032230
         H            1.735609463457     2.154103152124    -0.011170990616     1.007825032230
         H            2.973156463457    -0.000036847876    -0.002728990616     1.007825032230

  Basis Set: AUG-CC-PVTZ
    Blend: AUG-CC-PVTZ
  Basis Set: (AUG-CC-PVTZ AUX)
    Blend: AUG-CC-PVTZ-JKFIT
	 Reference Energy          =    -286.1854258466233318 [Eh]
	 Singles Energy            =      -0.0000000000000000 [Eh]
	 Same-Spin Energy          =      -0.3090797842237583 [Eh]
	 Opposite-Spin Energy      =      -0.9929473779698124 [Eh]
	 Correlation Energy        =      -1.3020271621935706 [Eh]
	 Total Energy              =    -287.4874530088168854 [Eh]

	 ================> DF-SCS-MP2 Energies <==================
	-----------------------------------------------------------
	 SCS Same-Spin Scale       =       0.3333333333333333 [-]
	 SCS Opposite-Spin Scale   =       1.2000000000000000 [-]
	 SCS Same-Spin Energy      =      -0.1030265947412528 [Eh]
	 SCS Opposite-Spin Energy  =      -1.1915368535637747 [Eh]
	 SCS Correlation Energy    =      -1.2945634483050275 [Eh]
	 SCS Total Energy          =    -287.4799892949283731 [Eh]
	-----------------------------------------------------------

  Dipole Moment: [D]
     X:    -7.2401      Y:    -0.0004      Z:    -0.0266     Total:     7.2402

*** Psi4 exiting successfully. Buy a developer a beer!
