                               Psi4 1.3.2 release

  ==> Input File <==

--------------------------------------------------------------------------
#psi4
#
memory 32 gb

molecule  {
1 1
  N       -2.3156210     0.0000130     0.0092220
  C       -0.8265460     0.0000770    -0.0152130
  C       -0.1716580    -1.2259970    -0.0050100
  C       -0.1715260     1.2260380    -0.0050050
  C        1.2247150    -1.2130070     0.0014150
  C        1.2248800     1.2129210     0.0014120
  C        1.9183010    -0.0000690     0.0065130
  H       -0.7164250    -2.1682170    -0.0085500
  H       -0.7161430     2.1683510    -0.0085270
  H       -2.6983940     0.8319390    -0.4619130
  H       -2.6987610    -0.8244740    -0.4745350
  H       -2.6512944    -0.0064930     0.8772887
  H        1.7664630    -2.1541410     0.0017740
  H        1.7667170     2.1540020     0.0017630
  H        3.0042640    -0.0001380     0.0102050
units angstrom
no_reorient  #important for SAPT in psi4, default
symmetry c1  #important for SAPT in psi4, default
}

set PROPERTIES_ORIGIN ["COM"]
properties('MP2/aug-cc-pvtz', properties = ['dipole'])
--------------------------------------------------------------------------

    Molecular point group: c1
  Charge       = 1
  Multiplicity = 1
  Basis Set: AUG-CC-PVTZ
    Blend: AUG-CC-PVTZ
  Basis Set: (AUG-CC-PVTZ AUX)
    Blend: AUG-CC-PVTZ-JKFIT

    Orbital Energies [Eh]
    ---------------------

    Doubly Occupied:

       1A    -15.890545     2A    -11.470018     3A    -11.414394
       4A    -11.414345     5A    -11.397899     6A    -11.397747
       7A    -11.393127     8A     -1.529471     9A     -1.318321
      10A     -1.188239    11A     -1.182446    12A     -1.019155
      13A     -1.008764    14A     -0.986730    15A     -0.937027
      16A     -0.897833    17A     -0.836282    18A     -0.788398
      19A     -0.768956    20A     -0.756920    21A     -0.675543
      22A     -0.673942    23A     -0.665133    24A     -0.509467
      25A     -0.502321

  @DF-RHF Final Energy:  -286.18294759644220

   => Energetics <=

    Nuclear Repulsion Energy =            281.0490664318747349
    One-Electron Energy =                -933.2179853721962672
    Two-Electron Energy =                 365.9859713438793278
    Total Energy =                       -286.1829475964422045
  Basis Set: (AUG-CC-PVTZ AUX)
    Blend: AUG-CC-PVTZ-RI
    Molecular point group: c1

    Geometry (in Angstrom), charge = 1, multiplicity = 1:

       Center              X                  Y                   Z               Mass
    ------------   -----------------  -----------------  -----------------  -----------------
         N           -2.347360237905     0.000006902910     0.010545574964    14.003074004430
         C           -0.858285237905     0.000070902910    -0.013889425036    12.000000000000
         C           -0.203397237905    -1.226003097090    -0.003686425036    12.000000000000
         C           -0.203265237905     1.226031902910    -0.003681425036    12.000000000000
         C            1.192975762095    -1.213013097090     0.002738574964    12.000000000000
         C            1.193140762095     1.212914902910     0.002735574964    12.000000000000
         C            1.886561762095    -0.000075097090     0.007836574964    12.000000000000
         H           -0.748164237905    -2.168223097090    -0.007226425036     1.007825032230
         H           -0.747882237905     2.168344902910    -0.007203425036     1.007825032230
         H           -2.730133237905     0.831932902910    -0.460589425036     1.007825032230
         H           -2.730500237905    -0.824480097090    -0.473211425036     1.007825032230
         H           -2.683033637905    -0.006499097090     0.878612274964     1.007825032230
         H            1.734723762095    -2.154147097090     0.003097574964     1.007825032230
         H            1.734977762095     2.153995902910     0.003086574964     1.007825032230
         H            2.972524762095    -0.000144097090     0.011528574964     1.007825032230

  Basis Set: AUG-CC-PVTZ
    Blend: AUG-CC-PVTZ
  Basis Set: (AUG-CC-PVTZ AUX)
    Blend: AUG-CC-PVTZ-JKFIT
	 Reference Energy          =    -286.1829475964422045 [Eh]
	 Singles Energy            =      -0.0000000000000000 [Eh]
	 Same-Spin Energy          =      -0.3084399215951584 [Eh]
	 Opposite-Spin Energy      =      -0.9909766067527029 [Eh]
	 Correlation Energy        =      -1.2994165283478614 [Eh]
	 Total Energy              =    -287.4823641247900810 [Eh]

	 ================> DF-SCS-MP2 Energies <==================
	-----------------------------------------------------------
	 SCS Same-Spin Scale       =       0.3333333333333333 [-]
	 SCS Opposite-Spin Scale   =       1.2000000000000000 [-]
	 SCS Same-Spin Energy      =      -0.1028133071983861 [Eh]
	 SCS Opposite-Spin Energy  =      -1.1891719281032436 [Eh]
	 SCS Correlation Energy    =      -1.2919852353016297 [Eh]
	 SCS Total Energy          =    -287.4749328317438426 [Eh]
	-----------------------------------------------------------

  Dipole Moment: [D]
     X:    -7.1674      Y:     0.0006      Z:    -0.0659     Total:     7.1677

*** Psi4 exiting successfully. Buy a developer a beer!
