                               Psi4 1.3.2 release

  ==> Input File <==

--------------------------------------------------------------------------
#psi4
#
memory 32 gb

molecule  {
1 1
  N       -2.3156210     0.0000130     0.0092220
  C       -0.8266003    -0.0003142     0.0367684
  C       -0.1716580    -1.2259970    -0.0050100
  C       -0.1715260     1.2260380    -0.0050050
  C        1.2247150    -1.2130070     0.0014150
  C        1.2248800     1.2129210     0.0014120
  C        1.9183010    -0.0000690     0.0065130
  H       -0.7164250    -2.1682170    -0.0085500
  H       -0.7161430     2.1683510    -0.0085270
  H       -2.6983940     0.8319390    -0.4619130
  H       -2.6987610    -0.8244740    -0.4745350
  H       -2.6873600    -0.0071920     0.9705560
  H        1.7664630    -2.1541410     0.0017740
  H        1.7667170     2.1540020     0.0017630
  H        3.0042640    -0.0001380     0.0102050
units angstrom
no_reorient  #important for SAPT in psi4, default
symmetry c1  #important for SAPT in psi4, default
}

set PROPERTIES_ORIGIN ["COM"]
properties('MP2/aug-cc-pvtz', properties = ['dipole'])
--------------------------------------------------------------------------

    Molecular point group: c1
  Charge       = 1
  Multiplicity = 1
  Basis Set: AUG-CC-PVTZ
    Blend: AUG-CC-PVTZ
  Basis Set: (AUG-CC-PVTZ AUX)
    Blend: AUG-CC-PVTZ-JKFIT

    Orbital Energies [Eh]
    ---------------------

    Doubly Occupied:

       1A    -15.897198     2A    -11.469181     3A    -11.413508
       4A    -11.413420     5A    -11.397164     6A    -11.397017
       7A    -11.392263     8A     -1.511356     9A     -1.315869
      10A     -1.187310    11A     -1.179210    12A     -1.017411
      13A     -1.003622    14A     -0.957831    15A     -0.934309
      16A     -0.895731    17A     -0.834864    18A     -0.787290
      19A     -0.767932    20A     -0.756083    21A     -0.674118
      22A     -0.672691    23A     -0.664349    24A     -0.507950
      25A     -0.501519

  @DF-RHF Final Energy:  -286.18795747608908

   => Energetics <=

    Nuclear Repulsion Energy =            280.4804895721823073
    One-Electron Energy =                -932.2385006894114667
    Two-Electron Energy =                 365.5700536411401345
    Total Energy =                       -286.1879574760890819
  Basis Set: (AUG-CC-PVTZ AUX)
    Blend: AUG-CC-PVTZ-RI
    Molecular point group: c1

    Geometry (in Angstrom), charge = 1, multiplicity = 1:

       Center              X                  Y                   Z               Mass
    ------------   -----------------  -----------------  -----------------  -----------------
         N           -2.346966901921     0.000064297594     0.002915013388    14.003074004430
         C           -0.857946201921    -0.000262902406     0.030461413388    12.000000000000
         C           -0.203003901921    -1.225945702406    -0.011316986612    12.000000000000
         C           -0.202871901921     1.226089297594    -0.011311986612    12.000000000000
         C            1.193369098079    -1.212955702406    -0.004891986612    12.000000000000
         C            1.193534098079     1.212972297594    -0.004894986612    12.000000000000
         C            1.886955098079    -0.000017702406     0.000206013388    12.000000000000
         H           -0.747770901921    -2.168165702406    -0.014856986612     1.007825032230
         H           -0.747488901921     2.168402297594    -0.014833986612     1.007825032230
         H           -2.729739901921     0.831990297594    -0.468219986612     1.007825032230
         H           -2.730106901921    -0.824422702406    -0.480841986612     1.007825032230
         H           -2.718705901921    -0.007140702406     0.964249013388     1.007825032230
         H            1.735117098079    -2.154089702406    -0.004532986612     1.007825032230
         H            1.735371098079     2.154053297594    -0.004543986612     1.007825032230
         H            2.972918098079    -0.000086702406     0.003898013388     1.007825032230

  Basis Set: AUG-CC-PVTZ
    Blend: AUG-CC-PVTZ
  Basis Set: (AUG-CC-PVTZ AUX)
    Blend: AUG-CC-PVTZ-JKFIT
	 Reference Energy          =    -286.1879574760890819 [Eh]
	 Singles Energy            =      -0.0000000000000000 [Eh]
	 Same-Spin Energy          =      -0.3089843472541913 [Eh]
	 Opposite-Spin Energy      =      -0.9925675856669118 [Eh]
	 Correlation Energy        =      -1.3015519329211032 [Eh]
	 Total Energy              =    -287.4895094090101679 [Eh]

	 ================> DF-SCS-MP2 Energies <==================
	-----------------------------------------------------------
	 SCS Same-Spin Scale       =       0.3333333333333333 [-]
	 SCS Opposite-Spin Scale   =       1.2000000000000000 [-]
	 SCS Same-Spin Energy      =      -0.1029947824180638 [Eh]
	 SCS Opposite-Spin Energy  =      -1.1910811028002941 [Eh]
	 SCS Correlation Energy    =      -1.2940758852183578 [Eh]
	 SCS Total Energy          =    -287.4820333613074581 [Eh]
	-----------------------------------------------------------

  Dipole Moment: [D]
     X:    -7.2507      Y:    -0.0004      Z:     0.0235     Total:     7.2507

*** Psi4 exiting successfully. Buy a developer a beer!
