                               Psi4 1.4a3.dev225

  ==> Input File <==

--------------------------------------------------------------------------
#psi4
#
memory 32 gb

molecule  {
1 1
  N        2.3113160     0.0000000     0.0062670
  C        0.7846266     0.0000000    -0.0121791
  C        0.1710600     1.2220230    -0.0032900
  C        0.1710600    -1.2220230    -0.0032920
  C       -1.2250620     1.2112680     0.0011370
  C       -1.2250620    -1.2112680     0.0011350
  C       -1.9212210     0.0000000     0.0049050
  H        0.7202500     2.1599530    -0.0070580
  H        0.7202510    -2.1599530    -0.0070620
  H        2.6997490    -0.8257060    -0.4685630
  H        2.6997490     0.8257100    -0.4685560
  H        2.6858560    -0.0000040     0.9646680
  H       -1.7649950     2.1535280     0.0013910
  H       -1.7649950    -2.1535280     0.0013870
  H       -3.0074630     0.0000000     0.0058010
units angstrom
no_reorient  #important for SAPT in psi4, default
symmetry c1  #important for SAPT in psi4, default
}

set PROPERTIES_ORIGIN ["COM"]
properties('MP2/aug-cc-pvtz', properties = ['dipole'])
--------------------------------------------------------------------------

    Molecular point group: c1
  Charge       = 1
  Multiplicity = 1
  Basis Set: AUG-CC-PVTZ
    Blend: AUG-CC-PVTZ
  Basis Set: (AUG-CC-PVTZ AUX)
    Blend: AUG-CC-PVTZ-JKFIT

    Orbital Energies [Eh]
    ---------------------

    Doubly Occupied:

       1A    -15.891824     2A    -11.469362     3A    -11.411018
       4A    -11.410983     5A    -11.398387     6A    -11.398275
       7A    -11.392105     8A     -1.501692     9A     -1.323155
      10A     -1.191782    11A     -1.181894    12A     -1.018573
      13A     -0.998835    14A     -0.951191    15A     -0.931359
      16A     -0.894953    17A     -0.831558    18A     -0.794457
      19A     -0.767976    20A     -0.758667    21A     -0.680314
      22A     -0.672405    23A     -0.667827    24A     -0.511071
      25A     -0.503458

  @DF-RHF Final Energy:  -286.18770526566482

   => Energetics <=

    Nuclear Repulsion Energy =            281.0734593469181277
    One-Electron Energy =                -933.4160880147493344
    Two-Electron Energy =                 366.1549234021663324
    Total Energy =                       -286.1877052656648175
  Basis Set: (AUG-CC-PVTZ AUX)
    Blend: AUG-CC-PVTZ-RI
    Molecular point group: c1

    Geometry (in Angstrom), charge = 1, multiplicity = 1:

       Center              X                  Y                   Z               Mass
    ------------   -----------------  -----------------  -----------------  -----------------
         N            2.349139206928    -0.000000000000     0.006576057710    14.003074004430
         C            0.822449806928    -0.000000000000    -0.011870042290    12.000000000000
         C            0.208883206928     1.222023000000    -0.002980942290    12.000000000000
         C            0.208883206928    -1.222023000000    -0.002982942290    12.000000000000
         C           -1.187238793072     1.211268000000     0.001446057710    12.000000000000
         C           -1.187238793072    -1.211268000000     0.001444057710    12.000000000000
         C           -1.883397793072    -0.000000000000     0.005214057710    12.000000000000
         H            0.758073206928     2.159953000000    -0.006748942290     1.007825032230
         H            0.758074206928    -2.159953000000    -0.006752942290     1.007825032230
         H            2.737572206928    -0.825706000000    -0.468253942290     1.007825032230
         H            2.737572206928     0.825710000000    -0.468246942290     1.007825032230
         H            2.723679206928    -0.000004000000     0.964977057710     1.007825032230
         H           -1.727171793072     2.153528000000     0.001700057710     1.007825032230
         H           -1.727171793072    -2.153528000000     0.001696057710     1.007825032230
         H           -2.969639793072    -0.000000000000     0.006110057710     1.007825032230

  Basis Set: AUG-CC-PVTZ
    Blend: AUG-CC-PVTZ
  Basis Set: (AUG-CC-PVTZ AUX)
    Blend: AUG-CC-PVTZ-JKFIT
	 Reference Energy          =    -286.1877052656648175 [Eh]
	 Singles Energy            =      -0.0000000000000000 [Eh]
	 Same-Spin Energy          =      -0.3088220457466199 [Eh]
	 Opposite-Spin Energy      =      -0.9920892538498397 [Eh]
	 Correlation Energy        =      -1.3009112995964596 [Eh]
	 Total Energy              =    -287.4886165652612817 [Eh]

	 ================> DF-SCS-MP2 Energies <==================
	-----------------------------------------------------------
	 SCS Same-Spin Scale       =       0.3333333333333333 [-]
	 SCS Opposite-Spin Scale   =       1.2000000000000000 [-]
	 SCS Same-Spin Energy      =      -0.1029406819155400 [Eh]
	 SCS Opposite-Spin Energy  =      -1.1905071046198077 [Eh]
	 SCS Correlation Energy    =      -1.2934477865353475 [Eh]
	 SCS Total Energy          =    -287.4811530522001704 [Eh]
	-----------------------------------------------------------

  Dipole Moment: [D]
     X:     7.1561      Y:    -0.0000      Z:     0.0585     Total:     7.1564

*** Psi4 exiting successfully. Buy a developer a beer!
