                               Psi4 1.3.2 release

  ==> Input File <==

--------------------------------------------------------------------------
#psi4
#
memory 32 gb

molecule  {
1 1
  N       -2.3156210     0.0000130     0.0092220
  C       -0.8263463    -0.0001186     0.0107779
  C       -0.1716580    -1.2259970    -0.0050100
  C       -0.1715260     1.2260380    -0.0050050
  C        1.2247150    -1.2130070     0.0014150
  C        1.2248800     1.2129210     0.0014120
  C        1.9183010    -0.0000690     0.0065130
  H       -0.7164250    -2.1682170    -0.0085500
  H       -0.7161430     2.1683510    -0.0085270
  H       -2.6983940     0.8319390    -0.4619130
  H       -2.6987610    -0.8244740    -0.4745350
  H       -2.6873600    -0.0071920     0.9705560
  H        1.7664630    -2.1541410     0.0017740
  H        1.7667170     2.1540020     0.0017630
  H        3.0042640    -0.0001380     0.0102050
units angstrom
no_reorient  #important for SAPT in psi4, default
symmetry c1  #important for SAPT in psi4, default
}

set PROPERTIES_ORIGIN ["COM"]
properties('MP2/aug-cc-pvtz', properties = ['dipole'])
--------------------------------------------------------------------------

    Molecular point group: c1
  Charge       = 1
  Multiplicity = 1
  Basis Set: AUG-CC-PVTZ
    Blend: AUG-CC-PVTZ
  Basis Set: (AUG-CC-PVTZ AUX)
    Blend: AUG-CC-PVTZ-JKFIT

    Orbital Energies [Eh]
    ---------------------

    Doubly Occupied:

       1A    -15.897259     2A    -11.469072     3A    -11.413394
       4A    -11.413325     5A    -11.397208     6A    -11.397063
       7A    -11.392252     8A     -1.511363     9A     -1.315986
      10A     -1.187399    11A     -1.179295    12A     -1.017591
      13A     -1.003527    14A     -0.957799    15A     -0.934329
      16A     -0.895879    17A     -0.834907    18A     -0.787441
      19A     -0.767971    20A     -0.756108    21A     -0.673814
      22A     -0.673168    23A     -0.664399    24A     -0.508026
      25A     -0.501614

  @DF-RHF Final Energy:  -286.18852556057197

   => Energetics <=

    Nuclear Repulsion Energy =            280.4980544122254287
    One-Electron Energy =                -932.2727836614885746
    Two-Electron Energy =                 365.5862036886911710
    Total Energy =                       -286.1885255605719749
  Basis Set: (AUG-CC-PVTZ AUX)
    Blend: AUG-CC-PVTZ-RI
    Molecular point group: c1

    Geometry (in Angstrom), charge = 1, multiplicity = 1:

       Center              X                  Y                   Z               Mass
    ------------   -----------------  -----------------  -----------------  -----------------
         N           -2.346999304814     0.000039344815     0.006230633060    14.003074004430
         C           -0.857724604814    -0.000092255185     0.007786533060    12.000000000000
         C           -0.203036304814    -1.225970655185    -0.008001366940    12.000000000000
         C           -0.202904304814     1.226064344815    -0.007996366940    12.000000000000
         C            1.193336695186    -1.212980655185    -0.001576366940    12.000000000000
         C            1.193501695186     1.212947344815    -0.001579366940    12.000000000000
         C            1.886922695186    -0.000042655185     0.003521633060    12.000000000000
         H           -0.747803304814    -2.168190655185    -0.011541366940     1.007825032230
         H           -0.747521304814     2.168377344815    -0.011518366940     1.007825032230
         H           -2.729772304814     0.831965344815    -0.464904366940     1.007825032230
         H           -2.730139304814    -0.824447655185    -0.477526366940     1.007825032230
         H           -2.718738304814    -0.007165655185     0.967564633060     1.007825032230
         H            1.735084695186    -2.154114655185    -0.001217366940     1.007825032230
         H            1.735338695186     2.154028344815    -0.001228366940     1.007825032230
         H            2.972885695186    -0.000111655185     0.007213633060     1.007825032230

  Basis Set: AUG-CC-PVTZ
    Blend: AUG-CC-PVTZ
  Basis Set: (AUG-CC-PVTZ AUX)
    Blend: AUG-CC-PVTZ-JKFIT
	 Reference Energy          =    -286.1885255605719749 [Eh]
	 Singles Energy            =      -0.0000000000000000 [Eh]
	 Same-Spin Energy          =      -0.3089617968950779 [Eh]
	 Opposite-Spin Energy      =      -0.9924796734194741 [Eh]
	 Correlation Energy        =      -1.3014414703145518 [Eh]
	 Total Energy              =    -287.4899670308865325 [Eh]

	 ================> DF-SCS-MP2 Energies <==================
	-----------------------------------------------------------
	 SCS Same-Spin Scale       =       0.3333333333333333 [-]
	 SCS Opposite-Spin Scale   =       1.2000000000000000 [-]
	 SCS Same-Spin Energy      =      -0.1029872656316926 [Eh]
	 SCS Opposite-Spin Energy  =      -1.1909756081033689 [Eh]
	 SCS Correlation Energy    =      -1.2939628737350615 [Eh]
	 SCS Total Energy          =    -287.4824884343070153 [Eh]
	-----------------------------------------------------------

  Dipole Moment: [D]
     X:    -7.2489      Y:    -0.0004      Z:     0.0485     Total:     7.2491

*** Psi4 exiting successfully. Buy a developer a beer!
