                               Psi4 1.3.2 release

  ==> Input File <==

--------------------------------------------------------------------------
#psi4
#
memory 32 gb

molecule  {
1 1
  N       -2.3147307     0.0519804     0.0083195
  C       -0.8265460     0.0000770    -0.0152130
  C       -0.1716580    -1.2259970    -0.0050100
  C       -0.1715260     1.2260380    -0.0050050
  C        1.2247150    -1.2130070     0.0014150
  C        1.2248800     1.2129210     0.0014120
  C        1.9183010    -0.0000690     0.0065130
  H       -0.7164250    -2.1682170    -0.0085500
  H       -0.7161430     2.1683510    -0.0085270
  H       -2.6983940     0.8319390    -0.4619130
  H       -2.6987610    -0.8244740    -0.4745350
  H       -2.6873600    -0.0071920     0.9705560
  H        1.7664630    -2.1541410     0.0017740
  H        1.7667170     2.1540020     0.0017630
  H        3.0042640    -0.0001380     0.0102050
units angstrom
no_reorient  #important for SAPT in psi4, default
symmetry c1  #important for SAPT in psi4, default
}

set PROPERTIES_ORIGIN ["COM"]
properties('MP2/aug-cc-pvtz', properties = ['dipole'])
--------------------------------------------------------------------------

    Molecular point group: c1
  Charge       = 1
  Multiplicity = 1
  Basis Set: AUG-CC-PVTZ
    Blend: AUG-CC-PVTZ
  Basis Set: (AUG-CC-PVTZ AUX)
    Blend: AUG-CC-PVTZ-JKFIT

    Orbital Energies [Eh]
    ---------------------

    Doubly Occupied:

       1A    -15.897217     2A    -11.469171     3A    -11.414532
       4A    -11.412301     5A    -11.397666     6A    -11.396719
       7A    -11.392354     8A     -1.511607     9A     -1.316084
      10A     -1.187449    11A     -1.179539    12A     -1.018876
      13A     -1.004011    14A     -0.962770    15A     -0.927511
      16A     -0.895220    17A     -0.834966    18A     -0.787223
      19A     -0.767908    20A     -0.756109    21A     -0.673923
      22A     -0.673107    23A     -0.664330    24A     -0.508082
      25A     -0.501675

  @DF-RHF Final Energy:  -286.18490943318989

   => Energetics <=

    Nuclear Repulsion Energy =            280.5042838853724447
    One-Electron Energy =                -932.2776835453106514
    Two-Electron Energy =                 365.5884902267482630
    Total Energy =                       -286.1849094331898868
  Basis Set: (AUG-CC-PVTZ AUX)
    Blend: AUG-CC-PVTZ-RI
    Molecular point group: c1

    Geometry (in Angstrom), charge = 1, multiplicity = 1:

       Center              X                  Y                   Z               Mass
    ------------   -----------------  -----------------  -----------------  -----------------
         N           -2.346216063387     0.044245671993     0.008778154301    14.003074004430
         C           -0.858031363387    -0.007657728007    -0.014754345699    12.000000000000
         C           -0.203143363387    -1.233731728007    -0.004551345699    12.000000000000
         C           -0.203011363387     1.218303271993    -0.004546345699    12.000000000000
         C            1.193229636613    -1.220741728007     0.001873654301    12.000000000000
         C            1.193394636613     1.205186271993     0.001870654301    12.000000000000
         C            1.886815636613    -0.007803728007     0.006971654301    12.000000000000
         H           -0.747910363387    -2.175951728007    -0.008091345699     1.007825032230
         H           -0.747628363387     2.160616271993    -0.008068345699     1.007825032230
         H           -2.729879363387     0.824204271993    -0.461454345699     1.007825032230
         H           -2.730246363387    -0.832208728007    -0.474076345699     1.007825032230
         H           -2.718845363387    -0.014926728007     0.971014654301     1.007825032230
         H            1.734977636613    -2.161875728007     0.002232654301     1.007825032230
         H            1.735231636613     2.146267271993     0.002221654301     1.007825032230
         H            2.972778636613    -0.007872728007     0.010663654301     1.007825032230

  Basis Set: AUG-CC-PVTZ
    Blend: AUG-CC-PVTZ
  Basis Set: (AUG-CC-PVTZ AUX)
    Blend: AUG-CC-PVTZ-JKFIT
	 Reference Energy          =    -286.1849094331898868 [Eh]
	 Singles Energy            =      -0.0000000000000000 [Eh]
	 Same-Spin Energy          =      -0.3090428575657825 [Eh]
	 Opposite-Spin Energy      =      -0.9926887167802962 [Eh]
	 Correlation Energy        =      -1.3017315743460789 [Eh]
	 Total Energy              =    -287.4866410075359795 [Eh]

	 ================> DF-SCS-MP2 Energies <==================
	-----------------------------------------------------------
	 SCS Same-Spin Scale       =       0.3333333333333333 [-]
	 SCS Opposite-Spin Scale   =       1.2000000000000000 [-]
	 SCS Same-Spin Energy      =      -0.1030142858552608 [Eh]
	 SCS Opposite-Spin Energy  =      -1.1912264601363554 [Eh]
	 SCS Correlation Energy    =      -1.2942407459916163 [Eh]
	 SCS Total Energy          =    -287.4791501791814881 [Eh]
	-----------------------------------------------------------

  Dipole Moment: [D]
     X:    -7.2407      Y:    -0.0663      Z:     0.0758     Total:     7.2414

*** Psi4 exiting successfully. Buy a developer a beer!
