                               Psi4 1.3.2 release

  ==> Input File <==

--------------------------------------------------------------------------
#psi4
#
memory 32 gb

molecule  {
1 1
  N       -2.3156210     0.0000130     0.0092220
  C       -0.6265729     0.0000856    -0.0184945
  C       -0.1716580    -1.2259970    -0.0050100
  C       -0.1715260     1.2260380    -0.0050050
  C        1.2247150    -1.2130070     0.0014150
  C        1.2248800     1.2129210     0.0014120
  C        1.9183010    -0.0000690     0.0065130
  H       -0.7164250    -2.1682170    -0.0085500
  H       -0.7161430     2.1683510    -0.0085270
  H       -2.6983940     0.8319390    -0.4619130
  H       -2.6987610    -0.8244740    -0.4745350
  H       -2.6873600    -0.0071920     0.9705560
  H        1.7664630    -2.1541410     0.0017740
  H        1.7667170     2.1540020     0.0017630
  H        3.0042640    -0.0001380     0.0102050
units angstrom
no_reorient  #important for SAPT in psi4, default
symmetry c1  #important for SAPT in psi4, default
}

set PROPERTIES_ORIGIN ["COM"]
properties('MP2/aug-cc-pvtz', properties = ['dipole'])
--------------------------------------------------------------------------

    Molecular point group: c1
  Charge       = 1
  Multiplicity = 1
  Basis Set: AUG-CC-PVTZ
    Blend: AUG-CC-PVTZ
  Basis Set: (AUG-CC-PVTZ AUX)
    Blend: AUG-CC-PVTZ-JKFIT

    Orbital Energies [Eh]
    ---------------------

    Doubly Occupied:

       1A    -15.860519     2A    -11.479993     3A    -11.410537
       4A    -11.410481     5A    -11.406222     6A    -11.406169
       7A    -11.393280     8A     -1.458588     9A     -1.348951
      10A     -1.214092    11A     -1.186111    12A     -1.022737
      13A     -0.987669    14A     -0.919297    15A     -0.910553
      16A     -0.892345    17A     -0.825799    18A     -0.812857
      19A     -0.765197    20A     -0.758894    21A     -0.705217
      22A     -0.681032    23A     -0.663895    24A     -0.520175
      25A     -0.513964

  @DF-RHF Final Energy:  -286.15453097738970

   => Energetics <=

    Nuclear Repulsion Energy =            282.0008530950499903
    One-Electron Energy =                -935.2016171882320350
    Two-Electron Energy =                 367.0462331157922904
    Total Energy =                       -286.1545309773896975
  Basis Set: (AUG-CC-PVTZ AUX)
    Blend: AUG-CC-PVTZ-RI
    Molecular point group: c1

    Geometry (in Angstrom), charge = 1, multiplicity = 1:

       Center              X                  Y                   Z               Mass
    ------------   -----------------  -----------------  -----------------  -----------------
         N           -2.372484486511     0.000013294930     0.009964926178    14.003074004430
         C           -0.683436386511     0.000085894930    -0.017751573822    12.000000000000
         C           -0.228521486511    -1.225996705070    -0.004267073822    12.000000000000
         C           -0.228389486511     1.226038294930    -0.004262073822    12.000000000000
         C            1.167851513489    -1.213006705070     0.002157926178    12.000000000000
         C            1.168016513489     1.212921294930     0.002154926178    12.000000000000
         C            1.861437513489    -0.000068705070     0.007255926178    12.000000000000
         H           -0.773288486511    -2.168216705070    -0.007807073822     1.007825032230
         H           -0.773006486511     2.168351294930    -0.007784073822     1.007825032230
         H           -2.755257486511     0.831939294930    -0.461170073822     1.007825032230
         H           -2.755624486511    -0.824473705070    -0.473792073822     1.007825032230
         H           -2.744223486511    -0.007191705070     0.971298926178     1.007825032230
         H            1.709599513489    -2.154140705070     0.002516926178     1.007825032230
         H            1.709853513489     2.154002294930     0.002505926178     1.007825032230
         H            2.947400513489    -0.000137705070     0.010947926178     1.007825032230

  Basis Set: AUG-CC-PVTZ
    Blend: AUG-CC-PVTZ
  Basis Set: (AUG-CC-PVTZ AUX)
    Blend: AUG-CC-PVTZ-JKFIT
	 Reference Energy          =    -286.1545309773896975 [Eh]
	 Singles Energy            =      -0.0000000000000000 [Eh]
	 Same-Spin Energy          =      -0.3094146608732574 [Eh]
	 Opposite-Spin Energy      =      -0.9933259602965228 [Eh]
	 Correlation Energy        =      -1.3027406211697801 [Eh]
	 Total Energy              =    -287.4572715985594868 [Eh]

	 ================> DF-SCS-MP2 Energies <==================
	-----------------------------------------------------------
	 SCS Same-Spin Scale       =       0.3333333333333333 [-]
	 SCS Opposite-Spin Scale   =       1.2000000000000000 [-]
	 SCS Same-Spin Energy      =      -0.1031382202910858 [Eh]
	 SCS Opposite-Spin Energy  =      -1.1919911523558273 [Eh]
	 SCS Correlation Energy    =      -1.2951293726469131 [Eh]
	 SCS Total Energy          =    -287.4496603500365950 [Eh]
	-----------------------------------------------------------

  Dipole Moment: [D]
     X:    -6.4783      Y:    -0.0003      Z:     0.0591     Total:     6.4785

*** Psi4 exiting successfully. Buy a developer a beer!
