                               Psi4 1.3.2 release

  ==> Input File <==

--------------------------------------------------------------------------
#psi4
#
memory 32 gb

molecule  {
1 1
  N       -2.3120273     0.1038846     0.0073883
  C       -0.8265460     0.0000770    -0.0152130
  C       -0.1716580    -1.2259970    -0.0050100
  C       -0.1715260     1.2260380    -0.0050050
  C        1.2247150    -1.2130070     0.0014150
  C        1.2248800     1.2129210     0.0014120
  C        1.9183010    -0.0000690     0.0065130
  H       -0.7164250    -2.1682170    -0.0085500
  H       -0.7161430     2.1683510    -0.0085270
  H       -2.6983940     0.8319390    -0.4619130
  H       -2.6987610    -0.8244740    -0.4745350
  H       -2.6873600    -0.0071920     0.9705560
  H        1.7664630    -2.1541410     0.0017740
  H        1.7667170     2.1540020     0.0017630
  H        3.0042640    -0.0001380     0.0102050
units angstrom
no_reorient  #important for SAPT in psi4, default
symmetry c1  #important for SAPT in psi4, default
}

set PROPERTIES_ORIGIN ["COM"]
properties('MP2/aug-cc-pvtz', properties = ['dipole'])
--------------------------------------------------------------------------

    Molecular point group: c1
  Charge       = 1
  Multiplicity = 1
  Basis Set: AUG-CC-PVTZ
    Blend: AUG-CC-PVTZ
  Basis Set: (AUG-CC-PVTZ AUX)
    Blend: AUG-CC-PVTZ-JKFIT

    Orbital Energies [Eh]
    ---------------------

    Doubly Occupied:

       1A    -15.897106     2A    -11.469621     3A    -11.415710
       4A    -11.411213     5A    -11.398185     6A    -11.396318
       7A    -11.392361     8A     -1.512475     9A     -1.316363
      10A     -1.187519    11A     -1.180212    12A     -1.022501
      13A     -1.005465    14A     -0.970269    15A     -0.915484
      16A     -0.892745    17A     -0.834929    18A     -0.786569
      19A     -0.767582    20A     -0.756020    21A     -0.673812
      22A     -0.673178    23A     -0.664105    24A     -0.508034
      25A     -0.501737

  @DF-RHF Final Energy:  -286.17370466002075

   => Energetics <=

    Nuclear Repulsion Energy =            280.5321218706931745
    One-Electron Energy =                -932.3126286134037173
    Two-Electron Energy =                 365.6068020826897396
    Total Energy =                       -286.1737046600207464
  Basis Set: (AUG-CC-PVTZ AUX)
    Blend: AUG-CC-PVTZ-RI
    Molecular point group: c1

    Geometry (in Angstrom), charge = 1, multiplicity = 1:

       Center              X                  Y                   Z               Mass
    ------------   -----------------  -----------------  -----------------  -----------------
         N           -2.343915104666     0.088423160209     0.007985577265    14.003074004430
         C           -0.858433804666    -0.015384439791    -0.014615722735    12.000000000000
         C           -0.203545804666    -1.241458439791    -0.004412722735    12.000000000000
         C           -0.203413804666     1.210576560209    -0.004407722735    12.000000000000
         C            1.192827195334    -1.228468439791     0.002012277265    12.000000000000
         C            1.192992195334     1.197459560209     0.002009277265    12.000000000000
         C            1.886413195334    -0.015530439791     0.007110277265    12.000000000000
         H           -0.748312804666    -2.183678439791    -0.007952722735     1.007825032230
         H           -0.748030804666     2.152889560209    -0.007929722735     1.007825032230
         H           -2.730281804666     0.816477560209    -0.461315722735     1.007825032230
         H           -2.730648804666    -0.839935439791    -0.473937722735     1.007825032230
         H           -2.719247804666    -0.022653439791     0.971153277265     1.007825032230
         H            1.734575195334    -2.169602439791     0.002371277265     1.007825032230
         H            1.734829195334     2.138540560209     0.002360277265     1.007825032230
         H            2.972376195334    -0.015599439791     0.010802277265     1.007825032230

  Basis Set: AUG-CC-PVTZ
    Blend: AUG-CC-PVTZ
  Basis Set: (AUG-CC-PVTZ AUX)
    Blend: AUG-CC-PVTZ-JKFIT
	 Reference Energy          =    -286.1737046600207464 [Eh]
	 Singles Energy            =      -0.0000000000000000 [Eh]
	 Same-Spin Energy          =      -0.3092976237735491 [Eh]
	 Opposite-Spin Energy      =      -0.9933600208281181 [Eh]
	 Correlation Energy        =      -1.3026576446016671 [Eh]
	 Total Energy              =    -287.4763623046223984 [Eh]

	 ================> DF-SCS-MP2 Energies <==================
	-----------------------------------------------------------
	 SCS Same-Spin Scale       =       0.3333333333333333 [-]
	 SCS Opposite-Spin Scale   =       1.2000000000000000 [-]
	 SCS Same-Spin Energy      =      -0.1030992079245164 [Eh]
	 SCS Opposite-Spin Energy  =      -1.1920320249937417 [Eh]
	 SCS Correlation Energy    =      -1.2951312329182580 [Eh]
	 SCS Total Energy          =    -287.4688358929390120 [Eh]
	-----------------------------------------------------------

  Dipole Moment: [D]
     X:    -7.2343      Y:    -0.1326      Z:     0.0806     Total:     7.2360

*** Psi4 exiting successfully. Buy a developer a beer!
