                               Psi4 1.3.2 release

  ==> Input File <==

--------------------------------------------------------------------------
#psi4
#
memory 32 gb

molecule  {
1 1
  N       -2.3156210     0.0000130     0.0092220
  C       -0.8265460     0.0000770    -0.0152130
  C       -0.1716580    -1.2259970    -0.0050100
  C       -0.1715260     1.2260380    -0.0050050
  C        1.2247150    -1.2130070     0.0014150
  C        1.2248800     1.2129210     0.0014120
  C        1.9183010    -0.0000690     0.0065130
  H       -0.7164250    -2.1682170    -0.0085500
  H       -0.7161430     2.1683510    -0.0085270
  H       -2.6983940     0.8319390    -0.4619130
  H       -2.6987610    -0.8244740    -0.4745350
  H       -2.7234256    -0.0078910     1.0638233
  H        1.7664630    -2.1541410     0.0017740
  H        1.7667170     2.1540020     0.0017630
  H        3.0042640    -0.0001380     0.0102050
units angstrom
no_reorient  #important for SAPT in psi4, default
symmetry c1  #important for SAPT in psi4, default
}

set PROPERTIES_ORIGIN ["COM"]
properties('MP2/aug-cc-pvtz', properties = ['dipole'])
--------------------------------------------------------------------------

    Molecular point group: c1
  Charge       = 1
  Multiplicity = 1
  Basis Set: AUG-CC-PVTZ
    Blend: AUG-CC-PVTZ
  Basis Set: (AUG-CC-PVTZ AUX)
    Blend: AUG-CC-PVTZ-JKFIT

    Orbital Energies [Eh]
    ---------------------

    Doubly Occupied:

       1A    -15.902152     2A    -11.468009     3A    -11.412526
       4A    -11.412471     5A    -11.396602     6A    -11.396455
       7A    -11.391693     8A     -1.497535     9A     -1.313988
      10A     -1.186633    11A     -1.176814    12A     -1.016211
      13A     -1.001094    14A     -0.931610    15A     -0.927750
      16A     -0.893167    17A     -0.833551    18A     -0.786451
      19A     -0.767062    20A     -0.755363    21A     -0.672581
      22A     -0.671945    23A     -0.663699    24A     -0.506738
      25A     -0.500998

  @DF-RHF Final Energy:  -286.17909082101130

   => Energetics <=

    Nuclear Repulsion Energy =            280.0140280287328096
    One-Electron Energy =                -931.4200418958538421
    Two-Electron Energy =                 365.2269230461097322
    Total Energy =                       -286.1790908210113002
  Basis Set: (AUG-CC-PVTZ AUX)
    Blend: AUG-CC-PVTZ-RI
    Molecular point group: c1

    Geometry (in Angstrom), charge = 1, multiplicity = 1:

       Center              X                  Y                   Z               Mass
    ------------   -----------------  -----------------  -----------------  -----------------
         N           -2.346587420088     0.000021881162     0.008547032555    14.003074004430
         C           -0.857512420088     0.000085881162    -0.015887967445    12.000000000000
         C           -0.202624420088    -1.225988118838    -0.005684967445    12.000000000000
         C           -0.202492420088     1.226046881162    -0.005679967445    12.000000000000
         C            1.193748579912    -1.212998118838     0.000740032555    12.000000000000
         C            1.193913579912     1.212929881162     0.000737032555    12.000000000000
         C            1.887334579912    -0.000060118838     0.005838032555    12.000000000000
         H           -0.747391420088    -2.168208118838    -0.009224967445     1.007825032230
         H           -0.747109420088     2.168359881162    -0.009201967445     1.007825032230
         H           -2.729360420088     0.831947881162    -0.462587967445     1.007825032230
         H           -2.729727420088    -0.824465118838    -0.475209967445     1.007825032230
         H           -2.754392020088    -0.007882118838     1.063148332555     1.007825032230
         H            1.735496579912    -2.154132118838     0.001099032555     1.007825032230
         H            1.735750579912     2.154010881162     0.001088032555     1.007825032230
         H            2.973297579912    -0.000129118838     0.009530032555     1.007825032230

  Basis Set: AUG-CC-PVTZ
    Blend: AUG-CC-PVTZ
  Basis Set: (AUG-CC-PVTZ AUX)
    Blend: AUG-CC-PVTZ-JKFIT
	 Reference Energy          =    -286.1790908210113002 [Eh]
	 Singles Energy            =      -0.0000000000000000 [Eh]
	 Same-Spin Energy          =      -0.3095404839095261 [Eh]
	 Opposite-Spin Energy      =      -0.9942193547481100 [Eh]
	 Correlation Energy        =      -1.3037598386576361 [Eh]
	 Total Energy              =    -287.4828506596689408 [Eh]

	 ================> DF-SCS-MP2 Energies <==================
	-----------------------------------------------------------
	 SCS Same-Spin Scale       =       0.3333333333333333 [-]
	 SCS Opposite-Spin Scale   =       1.2000000000000000 [-]
	 SCS Same-Spin Energy      =      -0.1031801613031754 [Eh]
	 SCS Opposite-Spin Energy  =      -1.1930632256977318 [Eh]
	 SCS Correlation Energy    =      -1.2962433870009071 [Eh]
	 SCS Total Energy          =    -287.4753342080122138 [Eh]
	-----------------------------------------------------------

  Dipole Moment: [D]
     X:    -7.3076      Y:    -0.0013      Z:     0.2194     Total:     7.3109

*** Psi4 exiting successfully. Buy a developer a beer!
