                               Psi4 1.4a3.dev225

  ==> Input File <==

--------------------------------------------------------------------------
#psi4
#
memory 32 gb

molecule  {
1 1
  N        2.3113160     0.0000000     0.0062670
  C        0.8146245     0.0000000    -0.0118166
  C        0.1710600     1.2220230    -0.0032900
  C        0.1710600    -1.2220230    -0.0032920
  C       -1.2250620     1.2112680     0.0011370
  C       -1.2250620    -1.2112680     0.0011350
  C       -1.9212210     0.0000000     0.0049050
  H        0.7202500     2.1599530    -0.0070580
  H        0.7202510    -2.1599530    -0.0070620
  H        2.6997490    -0.8257060    -0.4685630
  H        2.6997490     0.8257100    -0.4685560
  H        2.6858560    -0.0000040     0.9646680
  H       -1.7649950     2.1535280     0.0013910
  H       -1.7649950    -2.1535280     0.0013870
  H       -3.0074630     0.0000000     0.0058010
units angstrom
no_reorient  #important for SAPT in psi4, default
symmetry c1  #important for SAPT in psi4, default
}

set PROPERTIES_ORIGIN ["COM"]
properties('MP2/aug-cc-pvtz', properties = ['dipole'])
--------------------------------------------------------------------------

    Molecular point group: c1
  Charge       = 1
  Multiplicity = 1
  Basis Set: AUG-CC-PVTZ
    Blend: AUG-CC-PVTZ
  Basis Set: (AUG-CC-PVTZ AUX)
    Blend: AUG-CC-PVTZ-JKFIT

    Orbital Energies [Eh]
    ---------------------

    Doubly Occupied:

       1A    -15.895956     2A    -11.468222     3A    -11.412056
       4A    -11.412023     5A    -11.397451     6A    -11.397312
       7A    -11.392275     8A     -1.510039     9A     -1.318590
      10A     -1.188605    11A     -1.180903    12A     -1.018529
      13A     -1.002724    14A     -0.956521    15A     -0.933828
      16A     -0.896512    17A     -0.834631    18A     -0.789403
      19A     -0.768320    20A     -0.756803    21A     -0.676018
      22A     -0.673488    23A     -0.665090    24A     -0.509254
      25A     -0.502017

  @DF-RHF Final Energy:  -286.18905724853812

   => Energetics <=

    Nuclear Repulsion Energy =            280.8707023480857288
    One-Electron Energy =                -933.0063775519826095
    Two-Electron Energy =                 365.9466179553587608
    Total Energy =                       -286.1890572485381199
  Basis Set: (AUG-CC-PVTZ AUX)
    Blend: AUG-CC-PVTZ-RI
    Molecular point group: c1

    Geometry (in Angstrom), charge = 1, multiplicity = 1:

       Center              X                  Y                   Z               Mass
    ------------   -----------------  -----------------  -----------------  -----------------
         N            2.345312361452    -0.000000000000     0.006529813424    14.003074004430
         C            0.848620861452    -0.000000000000    -0.011553786576    12.000000000000
         C            0.205056361452     1.222023000000    -0.003027186576    12.000000000000
         C            0.205056361452    -1.222023000000    -0.003029186576    12.000000000000
         C           -1.191065638548     1.211268000000     0.001399813424    12.000000000000
         C           -1.191065638548    -1.211268000000     0.001397813424    12.000000000000
         C           -1.887224638548    -0.000000000000     0.005167813424    12.000000000000
         H            0.754246361452     2.159953000000    -0.006795186576     1.007825032230
         H            0.754247361452    -2.159953000000    -0.006799186576     1.007825032230
         H            2.733745361452    -0.825706000000    -0.468300186576     1.007825032230
         H            2.733745361452     0.825710000000    -0.468293186576     1.007825032230
         H            2.719852361452    -0.000004000000     0.964930813424     1.007825032230
         H           -1.730998638548     2.153528000000     0.001653813424     1.007825032230
         H           -1.730998638548    -2.153528000000     0.001649813424     1.007825032230
         H           -2.973466638548    -0.000000000000     0.006063813424     1.007825032230

  Basis Set: AUG-CC-PVTZ
    Blend: AUG-CC-PVTZ
  Basis Set: (AUG-CC-PVTZ AUX)
    Blend: AUG-CC-PVTZ-JKFIT
	 Reference Energy          =    -286.1890572485381199 [Eh]
	 Singles Energy            =      -0.0000000000000000 [Eh]
	 Same-Spin Energy          =      -0.3088976740388811 [Eh]
	 Opposite-Spin Energy      =      -0.9921819239043171 [Eh]
	 Correlation Energy        =      -1.3010795979431982 [Eh]
	 Total Energy              =    -287.4901368464813345 [Eh]

	 ================> DF-SCS-MP2 Energies <==================
	-----------------------------------------------------------
	 SCS Same-Spin Scale       =       0.3333333333333333 [-]
	 SCS Opposite-Spin Scale   =       1.2000000000000000 [-]
	 SCS Same-Spin Energy      =      -0.1029658913462937 [Eh]
	 SCS Opposite-Spin Energy  =      -1.1906183086851805 [Eh]
	 SCS Correlation Energy    =      -1.2935842000314741 [Eh]
	 SCS Total Energy          =    -287.4826414485696091 [Eh]
	-----------------------------------------------------------

  Dipole Moment: [D]
     X:     7.2346      Y:    -0.0000      Z:     0.0603     Total:     7.2348

*** Psi4 exiting successfully. Buy a developer a beer!
