                               Psi4 1.3.2 release

  ==> Input File <==

--------------------------------------------------------------------------
#psi4
#
memory 32 gb

molecule  {
1 1
  N       -2.3156210     0.0000130     0.0092220
  C       -0.8283059     0.0004681    -0.0671646
  C       -0.1716580    -1.2259970    -0.0050100
  C       -0.1715260     1.2260380    -0.0050050
  C        1.2247150    -1.2130070     0.0014150
  C        1.2248800     1.2129210     0.0014120
  C        1.9183010    -0.0000690     0.0065130
  H       -0.7164250    -2.1682170    -0.0085500
  H       -0.7161430     2.1683510    -0.0085270
  H       -2.6983940     0.8319390    -0.4619130
  H       -2.6987610    -0.8244740    -0.4745350
  H       -2.6873600    -0.0071920     0.9705560
  H        1.7664630    -2.1541410     0.0017740
  H        1.7667170     2.1540020     0.0017630
  H        3.0042640    -0.0001380     0.0102050
units angstrom
no_reorient  #important for SAPT in psi4, default
symmetry c1  #important for SAPT in psi4, default
}

set PROPERTIES_ORIGIN ["COM"]
properties('MP2/aug-cc-pvtz', properties = ['dipole'])
--------------------------------------------------------------------------

    Molecular point group: c1
  Charge       = 1
  Multiplicity = 1
  Basis Set: AUG-CC-PVTZ
    Blend: AUG-CC-PVTZ
  Basis Set: (AUG-CC-PVTZ AUX)
    Blend: AUG-CC-PVTZ-JKFIT

    Orbital Energies [Eh]
    ---------------------

    Doubly Occupied:

       1A    -15.896997     2A    -11.469033     3A    -11.413964
       4A    -11.413933     5A    -11.397298     6A    -11.397130
       7A    -11.392933     8A     -1.511008     9A     -1.315689
      10A     -1.187284    11A     -1.179220    12A     -1.017462
      13A     -1.003692    14A     -0.957324    15A     -0.934082
      16A     -0.895165    17A     -0.835224    18A     -0.786812
      19A     -0.768098    20A     -0.756165    21A     -0.674906
      22A     -0.672039    23A     -0.664275    24A     -0.508341
      25A     -0.501566

  @DF-RHF Final Energy:  -286.18747833057739

   => Energetics <=

    Nuclear Repulsion Energy =            280.4274070109972854
    One-Electron Energy =                -932.1304922758467910
    Two-Electron Energy =                 365.5156069342721139
    Total Energy =                       -286.1874783305773917
  Basis Set: (AUG-CC-PVTZ AUX)
    Blend: AUG-CC-PVTZ-RI
    Molecular point group: c1

    Geometry (in Angstrom), charge = 1, multiplicity = 1:

       Center              X                  Y                   Z               Mass
    ------------   -----------------  -----------------  -----------------  -----------------
         N           -2.346749317769    -0.000035500766     0.016173792532    14.003074004430
         C           -0.859434217769     0.000419599234    -0.060212807468    12.000000000000
         C           -0.202786317769    -1.226045500766     0.001941792532    12.000000000000
         C           -0.202654317769     1.225989499234     0.001946792532    12.000000000000
         C            1.193586682231    -1.213055500766     0.008366792532    12.000000000000
         C            1.193751682231     1.212872499234     0.008363792532    12.000000000000
         C            1.887172682231    -0.000117500766     0.013464792532    12.000000000000
         H           -0.747553317769    -2.168265500766    -0.001598207468     1.007825032230
         H           -0.747271317769     2.168302499234    -0.001575207468     1.007825032230
         H           -2.729522317769     0.831890499234    -0.454961207468     1.007825032230
         H           -2.729889317769    -0.824522500766    -0.467583207468     1.007825032230
         H           -2.718488317769    -0.007240500766     0.977507792532     1.007825032230
         H            1.735334682231    -2.154189500766     0.008725792532     1.007825032230
         H            1.735588682231     2.153953499234     0.008714792532     1.007825032230
         H            2.973135682231    -0.000186500766     0.017156792532     1.007825032230

  Basis Set: AUG-CC-PVTZ
    Blend: AUG-CC-PVTZ
  Basis Set: (AUG-CC-PVTZ AUX)
    Blend: AUG-CC-PVTZ-JKFIT
	 Reference Energy          =    -286.1874783305773917 [Eh]
	 Singles Energy            =      -0.0000000000000000 [Eh]
	 Same-Spin Energy          =      -0.3090121518722122 [Eh]
	 Opposite-Spin Energy      =      -0.9926874363214081 [Eh]
	 Correlation Energy        =      -1.3016995881936202 [Eh]
	 Total Energy              =    -287.4891779187710199 [Eh]

	 ================> DF-SCS-MP2 Energies <==================
	-----------------------------------------------------------
	 SCS Same-Spin Scale       =       0.3333333333333333 [-]
	 SCS Opposite-Spin Scale   =       1.2000000000000000 [-]
	 SCS Same-Spin Energy      =      -0.1030040506240707 [Eh]
	 SCS Opposite-Spin Energy  =      -1.1912249235856898 [Eh]
	 SCS Correlation Energy    =      -1.2942289742097606 [Eh]
	 SCS Total Energy          =    -287.4817073047871645 [Eh]
	-----------------------------------------------------------

  Dipole Moment: [D]
     X:    -7.2153      Y:    -0.0003      Z:     0.1243     Total:     7.2164

*** Psi4 exiting successfully. Buy a developer a beer!
