                               Psi4 1.3.2 release

  ==> Input File <==

--------------------------------------------------------------------------
#psi4
#
memory 32 gb

molecule  {
1 1
  N       -2.3119601    -0.1038583     0.0109367
  C       -0.8265460     0.0000770    -0.0152130
  C       -0.1716580    -1.2259970    -0.0050100
  C       -0.1715260     1.2260380    -0.0050050
  C        1.2247150    -1.2130070     0.0014150
  C        1.2248800     1.2129210     0.0014120
  C        1.9183010    -0.0000690     0.0065130
  H       -0.7164250    -2.1682170    -0.0085500
  H       -0.7161430     2.1683510    -0.0085270
  H       -2.6983940     0.8319390    -0.4619130
  H       -2.6987610    -0.8244740    -0.4745350
  H       -2.6873600    -0.0071920     0.9705560
  H        1.7664630    -2.1541410     0.0017740
  H        1.7667170     2.1540020     0.0017630
  H        3.0042640    -0.0001380     0.0102050
units angstrom
no_reorient  #important for SAPT in psi4, default
symmetry c1  #important for SAPT in psi4, default
}

set PROPERTIES_ORIGIN ["COM"]
properties('MP2/aug-cc-pvtz', properties = ['dipole'])
--------------------------------------------------------------------------

    Molecular point group: c1
  Charge       = 1
  Multiplicity = 1
  Basis Set: AUG-CC-PVTZ
    Blend: AUG-CC-PVTZ
  Basis Set: (AUG-CC-PVTZ AUX)
    Blend: AUG-CC-PVTZ-JKFIT

    Orbital Energies [Eh]
    ---------------------

    Doubly Occupied:

       1A    -15.897076     2A    -11.469556     3A    -11.415764
       4A    -11.411200     5A    -11.398162     6A    -11.396321
       7A    -11.392409     8A     -1.512360     9A     -1.316354
      10A     -1.187509    11A     -1.180183    12A     -1.021843
      13A     -1.005428    14A     -0.971649    15A     -0.915013
      16A     -0.892479    17A     -0.834948    18A     -0.786383
      19A     -0.767568    20A     -0.755992    21A     -0.673965
      22A     -0.673137    23A     -0.664094    24A     -0.508130
      25A     -0.501729

  @DF-RHF Final Energy:  -286.17391576851810

   => Energetics <=

    Nuclear Repulsion Energy =            280.5315837242753787
    One-Electron Energy =                -932.3124951737664787
    Two-Electron Energy =                 365.6069956809730002
    Total Energy =                       -286.1739157685180999
  Basis Set: (AUG-CC-PVTZ AUX)
    Blend: AUG-CC-PVTZ-RI
    Molecular point group: c1

    Geometry (in Angstrom), charge = 1, multiplicity = 1:

       Center              X                  Y                   Z               Mass
    ------------   -----------------  -----------------  -----------------  -----------------
         N           -2.343857908385    -0.088394120797     0.011005745174    14.003074004430
         C           -0.858443808385     0.015541179203    -0.015143954826    12.000000000000
         C           -0.203555808385    -1.210532820797    -0.004940954826    12.000000000000
         C           -0.203423808385     1.241502179203    -0.004935954826    12.000000000000
         C            1.192817191615    -1.197542820797     0.001484045174    12.000000000000
         C            1.192982191615     1.228385179203     0.001481045174    12.000000000000
         C            1.886403191615     0.015395179203     0.006582045174    12.000000000000
         H           -0.748322808385    -2.152752820797    -0.008480954826     1.007825032230
         H           -0.748040808385     2.183815179203    -0.008457954826     1.007825032230
         H           -2.730291808385     0.847403179203    -0.461843954826     1.007825032230
         H           -2.730658808385    -0.809009820797    -0.474465954826     1.007825032230
         H           -2.719257808385     0.008272179203     0.970625045174     1.007825032230
         H            1.734565191615    -2.138676820797     0.001843045174     1.007825032230
         H            1.734819191615     2.169466179203     0.001832045174     1.007825032230
         H            2.972366191615     0.015326179203     0.010274045174     1.007825032230

  Basis Set: AUG-CC-PVTZ
    Blend: AUG-CC-PVTZ
  Basis Set: (AUG-CC-PVTZ AUX)
    Blend: AUG-CC-PVTZ-JKFIT
	 Reference Energy          =    -286.1739157685180999 [Eh]
	 Singles Energy            =      -0.0000000000000000 [Eh]
	 Same-Spin Energy          =      -0.3093007985825346 [Eh]
	 Opposite-Spin Energy      =      -0.9933757681332392 [Eh]
	 Correlation Energy        =      -1.3026765667157738 [Eh]
	 Total Energy              =    -287.4765923352338746 [Eh]

	 ================> DF-SCS-MP2 Energies <==================
	-----------------------------------------------------------
	 SCS Same-Spin Scale       =       0.3333333333333333 [-]
	 SCS Opposite-Spin Scale   =       1.2000000000000000 [-]
	 SCS Same-Spin Energy      =      -0.1031002661941782 [Eh]
	 SCS Opposite-Spin Energy  =      -1.1920509217598871 [Eh]
	 SCS Correlation Energy    =      -1.2951511879540654 [Eh]
	 SCS Total Energy          =    -287.4690669564721475 [Eh]
	-----------------------------------------------------------

  Dipole Moment: [D]
     X:    -7.2322      Y:     0.1313      Z:     0.0772     Total:     7.2338

*** Psi4 exiting successfully. Buy a developer a beer!
