                               Psi4 1.3.2 release

  ==> Input File <==

--------------------------------------------------------------------------
#psi4
#
memory 32 gb

molecule  {
1 1
  N       -2.3156210     0.0000130     0.0092220
  C       -0.8265460     0.0000770    -0.0152130
  C       -0.1716580    -1.2259970    -0.0050100
  C       -0.1715260     1.2260380    -0.0050050
  C        1.2247150    -1.2130070     0.0014150
  C        1.2248800     1.2129210     0.0014120
  C        1.9183010    -0.0000690     0.0065130
  H       -0.7164250    -2.1682170    -0.0085500
  H       -0.7161430     2.1683510    -0.0085270
  H       -2.6983940     0.8319390    -0.4619130
  H       -2.6898211    -0.8197191    -0.4893855
  H       -2.6873600    -0.0071920     0.9705560
  H        1.7664630    -2.1541410     0.0017740
  H        1.7667170     2.1540020     0.0017630
  H        3.0042640    -0.0001380     0.0102050
units angstrom
no_reorient  #important for SAPT in psi4, default
symmetry c1  #important for SAPT in psi4, default
}

set PROPERTIES_ORIGIN ["COM"]
properties('MP2/aug-cc-pvtz', properties = ['dipole'])
--------------------------------------------------------------------------

    Molecular point group: c1
  Charge       = 1
  Multiplicity = 1
  Basis Set: AUG-CC-PVTZ
    Blend: AUG-CC-PVTZ
  Basis Set: (AUG-CC-PVTZ AUX)
    Blend: AUG-CC-PVTZ-JKFIT

    Orbital Energies [Eh]
    ---------------------

    Doubly Occupied:

       1A    -15.897205     2A    -11.468913     3A    -11.413421
       4A    -11.413384     5A    -11.397266     6A    -11.397110
       7A    -11.392386     8A     -1.511321     9A     -1.315959
      10A     -1.187439    11A     -1.179224    12A     -1.017540
      13A     -1.003294    14A     -0.959304    15A     -0.933585
      16A     -0.895636    17A     -0.834910    18A     -0.787328
      19A     -0.767983    20A     -0.756133    21A     -0.674048
      22A     -0.673066    23A     -0.664406    24A     -0.508167
      25A     -0.501673

  @DF-RHF Final Energy:  -286.18861093866400

   => Energetics <=

    Nuclear Repulsion Energy =            280.5080366401529091
    One-Electron Energy =                -932.2918875994399741
    Two-Electron Energy =                 365.5952400206230664
    Total Energy =                       -286.1886109386639987
  Basis Set: (AUG-CC-PVTZ AUX)
    Blend: AUG-CC-PVTZ-RI
    Molecular point group: c1

    Geometry (in Angstrom), charge = 1, multiplicity = 1:

       Center              X                  Y                   Z               Mass
    ------------   -----------------  -----------------  -----------------  -----------------
         N           -2.347069611598    -0.000036552236     0.009705412869    14.003074004430
         C           -0.857994611598     0.000027447764    -0.014729587131    12.000000000000
         C           -0.203106611598    -1.226046552236    -0.004526587131    12.000000000000
         C           -0.202974611598     1.225988447764    -0.004521587131    12.000000000000
         C            1.193266388402    -1.213056552236     0.001898412869    12.000000000000
         C            1.193431388402     1.212871447764     0.001895412869    12.000000000000
         C            1.886852388402    -0.000118552236     0.006996412869    12.000000000000
         H           -0.747873611598    -2.168266552236    -0.008066587131     1.007825032230
         H           -0.747591611598     2.168301447764    -0.008043587131     1.007825032230
         H           -2.729842611598     0.831889447764    -0.461429587131     1.007825032230
         H           -2.721269711598    -0.819768652236    -0.488902087131     1.007825032230
         H           -2.718808611598    -0.007241552236     0.971039412869     1.007825032230
         H            1.735014388402    -2.154190552236     0.002257412869     1.007825032230
         H            1.735268388402     2.153952447764     0.002246412869     1.007825032230
         H            2.972815388402    -0.000187552236     0.010688412869     1.007825032230

  Basis Set: AUG-CC-PVTZ
    Blend: AUG-CC-PVTZ
  Basis Set: (AUG-CC-PVTZ AUX)
    Blend: AUG-CC-PVTZ-JKFIT
	 Reference Energy          =    -286.1886109386639987 [Eh]
	 Singles Energy            =      -0.0000000000000000 [Eh]
	 Same-Spin Energy          =      -0.3089638566210676 [Eh]
	 Opposite-Spin Energy      =      -0.9924848438431986 [Eh]
	 Correlation Energy        =      -1.3014487004642663 [Eh]
	 Total Energy              =    -287.4900596391282761 [Eh]

	 ================> DF-SCS-MP2 Energies <==================
	-----------------------------------------------------------
	 SCS Same-Spin Scale       =       0.3333333333333333 [-]
	 SCS Opposite-Spin Scale   =       1.2000000000000000 [-]
	 SCS Same-Spin Energy      =      -0.1029879522070225 [Eh]
	 SCS Opposite-Spin Energy  =      -1.1909818126118383 [Eh]
	 SCS Correlation Energy    =      -1.2939697648188608 [Eh]
	 SCS Total Energy          =    -287.4825807034828813 [Eh]
	-----------------------------------------------------------

  Dipole Moment: [D]
     X:    -7.2332      Y:     0.0057      Z:     0.0592     Total:     7.2334

*** Psi4 exiting successfully. Buy a developer a beer!
