                               Psi4 1.3.2 release

  ==> Input File <==

--------------------------------------------------------------------------
#psi4
#
memory 32 gb

molecule  {
0 1
  N       -1.1265450    -1.2362860     0.0000060
  C        0.2308680    -1.4868800    -0.0000290
  C        1.1512880    -0.4934230    -0.0000150
  C        0.6802440     0.8910390    -0.0001390
  N       -0.7159090     1.0273040    -0.0000130
  C       -1.6820960     0.0327770     0.0001490
  C        2.6300190    -0.7237960     0.0000320
  O        1.4079770     1.8828460     0.0000440
  O       -2.8884590     0.2443806     0.1499660
  H       -1.7971660    -1.9955960    -0.0000480
  H       -1.0703780     1.9806020    -0.0000270
  H        0.5071850    -2.5374850    -0.0000570
  H        3.0900470    -0.2640690    -0.8790850
  H        3.0900220    -0.2639380     0.8790930
  H        2.8593700    -1.7927480     0.0001130
units angstrom
no_reorient  #important for SAPT in psi4, default
symmetry c1  #important for SAPT in psi4, default
}

set PROPERTIES_ORIGIN ["COM"]
properties('MP2/aug-cc-pvtz', properties = ['dipole'])
--------------------------------------------------------------------------

    Molecular point group: c1
  Charge       = 0
  Multiplicity = 1
  Basis Set: AUG-CC-PVTZ
    Blend: AUG-CC-PVTZ
  Basis Set: (AUG-CC-PVTZ AUX)
    Blend: AUG-CC-PVTZ-JKFIT

    Orbital Energies [Eh]
    ---------------------

    Doubly Occupied:

       1A    -20.544245     2A    -20.543650     3A    -15.641526
       4A    -15.629487     5A    -11.419795     6A    -11.381628
       7A    -11.332526     8A    -11.263421     9A    -11.239878
      10A     -1.424163    11A     -1.391278    12A     -1.303847
      13A     -1.240606    14A     -1.108537    15A     -0.970616
      16A     -0.915741    17A     -0.894071    18A     -0.771353
      19A     -0.765441    20A     -0.707788    21A     -0.674289
      22A     -0.664655    23A     -0.637827    24A     -0.616508
      25A     -0.591279    26A     -0.568911    27A     -0.558373
      28A     -0.552182    29A     -0.510154    30A     -0.478346
      31A     -0.448721    32A     -0.434303    33A     -0.354779

  @DF-RHF Final Energy:  -451.66958668959069

   => Energetics <=

    Nuclear Repulsion Energy =            437.9563004068464238
    One-Electron Energy =               -1484.0919279324691615
    Two-Electron Energy =                 594.4660408360321071
    Total Energy =                       -451.6695866895906875
  Basis Set: (AUG-CC-PVTZ AUX)
    Blend: AUG-CC-PVTZ-RI
    Molecular point group: c1

    Geometry (in Angstrom), charge = 0, multiplicity = 1:

       Center              X                  Y                   Z               Mass
    ------------   -----------------  -----------------  -----------------  -----------------
         N           -1.073983678109    -1.274555931655    -0.019029292842    14.003074004430
         C            0.283429321891    -1.525149931655    -0.019064292842    12.000000000000
         C            1.203849321891    -0.531692931655    -0.019050292842    12.000000000000
         C            0.732805321891     0.852769068345    -0.019174292842    12.000000000000
         N           -0.663347678109     0.989034068345    -0.019048292842    14.003074004430
         C           -1.629534678109    -0.005492931655    -0.018886292842    12.000000000000
         C            2.682580321891    -0.762065931655    -0.019003292842    12.000000000000
         O            1.460538321891     1.844576068345    -0.018991292842    15.994914619570
         O           -2.835897678109     0.206110668345     0.130930707158    15.994914619570
         H           -1.744604678109    -2.033865931655    -0.019083292842     1.007825032230
         H           -1.017816678109     1.942332068345    -0.019062292842     1.007825032230
         H            0.559746321891    -2.575754931655    -0.019092292842     1.007825032230
         H            3.142608321891    -0.302338931655    -0.898120292842     1.007825032230
         H            3.142583321891    -0.302207931655     0.860057707158     1.007825032230
         H            2.911931321891    -1.831017931655    -0.018922292842     1.007825032230

  Basis Set: AUG-CC-PVTZ
    Blend: AUG-CC-PVTZ
  Basis Set: (AUG-CC-PVTZ AUX)
    Blend: AUG-CC-PVTZ-JKFIT
	 Reference Energy          =    -451.6695866895906875 [Eh]
	 Singles Energy            =      -0.0000000000000000 [Eh]
	 Same-Spin Energy          =      -0.4592650399247367 [Eh]
	 Opposite-Spin Energy      =      -1.3854117754949951 [Eh]
	 Correlation Energy        =      -1.8446768154197317 [Eh]
	 Total Energy              =    -453.5142635050104332 [Eh]

	 ================> DF-SCS-MP2 Energies <==================
	-----------------------------------------------------------
	 SCS Same-Spin Scale       =       0.3333333333333333 [-]
	 SCS Opposite-Spin Scale   =       1.2000000000000000 [-]
	 SCS Same-Spin Energy      =      -0.1530883466415789 [Eh]
	 SCS Opposite-Spin Energy  =      -1.6624941305939940 [Eh]
	 SCS Correlation Energy    =      -1.8155824772355729 [Eh]
	 SCS Total Energy          =    -453.4851691668262674 [Eh]
	-----------------------------------------------------------

  Dipole Moment: [D]
     X:     1.0853      Y:    -4.1962      Z:    -0.2759     Total:     4.3431

*** Psi4 exiting successfully. Buy a developer a beer!
