                               Psi4 1.3.2 release

  ==> Input File <==

--------------------------------------------------------------------------
#psi4
#
memory 32 gb

molecule  {
0 1
  N       -1.1265450    -1.2362860     0.0000060
  C        0.2308680    -1.4868800    -0.0000290
  C        1.1512880    -0.4934230    -0.0000150
  C        0.6802440     0.8910390    -0.0001390
  N       -0.7159090     1.0273040    -0.0000130
  C       -1.6820960     0.0327770     0.0001490
  C        2.6300233    -0.7238014    -0.0999680
  O        1.4079770     1.8828460     0.0000440
  O       -2.8884570     0.2443790    -0.0000340
  H       -1.7971660    -1.9955960    -0.0000480
  H       -1.0703780     1.9806020    -0.0000270
  H        0.5071850    -2.5374850    -0.0000570
  H        3.0900470    -0.2640690    -0.8790850
  H        3.0900220    -0.2639380     0.8790930
  H        2.8593700    -1.7927480     0.0001130
units angstrom
no_reorient  #important for SAPT in psi4, default
symmetry c1  #important for SAPT in psi4, default
}

set PROPERTIES_ORIGIN ["COM"]
properties('MP2/aug-cc-pvtz', properties = ['dipole'])
--------------------------------------------------------------------------

    Molecular point group: c1
  Charge       = 0
  Multiplicity = 1
  Basis Set: AUG-CC-PVTZ
    Blend: AUG-CC-PVTZ
  Basis Set: (AUG-CC-PVTZ AUX)
    Blend: AUG-CC-PVTZ-JKFIT

    Orbital Energies [Eh]
    ---------------------

    Doubly Occupied:

       1A    -20.544686     2A    -20.543316     3A    -15.640785
       4A    -15.628704     5A    -11.418395     6A    -11.381221
       7A    -11.332242     8A    -11.263670     9A    -11.241046
      10A     -1.427532    11A     -1.392203    12A     -1.305157
      13A     -1.240295    14A     -1.108093    15A     -0.970986
      16A     -0.915743    17A     -0.893781    18A     -0.772017
      19A     -0.765460    20A     -0.707522    21A     -0.674583
      22A     -0.665335    23A     -0.640852    24A     -0.619081
      25A     -0.600657    26A     -0.569928    27A     -0.559958
      28A     -0.539535    29A     -0.507400    30A     -0.479536
      31A     -0.448569    32A     -0.434874    33A     -0.353817

  @DF-RHF Final Energy:  -451.66209313028014

   => Energetics <=

    Nuclear Repulsion Energy =            438.1512955202258581
    One-Electron Energy =               -1484.4528161245723368
    Two-Electron Energy =                 594.6394274740663377
    Total Energy =                       -451.6620931302801409
  Basis Set: (AUG-CC-PVTZ AUX)
    Blend: AUG-CC-PVTZ-RI
    Molecular point group: c1

    Geometry (in Angstrom), charge = 0, multiplicity = 1:

       Center              X                  Y                   Z               Mass
    ------------   -----------------  -----------------  -----------------  -----------------
         N           -1.073984341295    -1.274555214504     0.009526352969    14.003074004430
         C            0.283428658705    -1.525149214504     0.009491352969    12.000000000000
         C            1.203848658705    -0.531692214504     0.009505352969    12.000000000000
         C            0.732804658705     0.852769785496     0.009381352969    12.000000000000
         N           -0.663348341295     0.989034785496     0.009507352969    14.003074004430
         C           -1.629535341295    -0.005492214504     0.009669352969    12.000000000000
         C            2.682583958705    -0.762070614504    -0.090447647031    12.000000000000
         O            1.460537658705     1.844576785496     0.009564352969    15.994914619570
         O           -2.835896341295     0.206109785496     0.009486352969    15.994914619570
         H           -1.744605341295    -2.033865214504     0.009472352969     1.007825032230
         H           -1.017817341295     1.942332785496     0.009493352969     1.007825032230
         H            0.559745658705    -2.575754214504     0.009463352969     1.007825032230
         H            3.142607658705    -0.302338214504    -0.869564647031     1.007825032230
         H            3.142582658705    -0.302207214504     0.888613352969     1.007825032230
         H            2.911930658705    -1.831017214504     0.009633352969     1.007825032230

  Basis Set: AUG-CC-PVTZ
    Blend: AUG-CC-PVTZ
  Basis Set: (AUG-CC-PVTZ AUX)
    Blend: AUG-CC-PVTZ-JKFIT
	 Reference Energy          =    -451.6620931302801409 [Eh]
	 Singles Energy            =      -0.0000000000000000 [Eh]
	 Same-Spin Energy          =      -0.4590953992315804 [Eh]
	 Opposite-Spin Energy      =      -1.3852127831822356 [Eh]
	 Correlation Energy        =      -1.8443081824138159 [Eh]
	 Total Energy              =    -453.5064013126939813 [Eh]

	 ================> DF-SCS-MP2 Energies <==================
	-----------------------------------------------------------
	 SCS Same-Spin Scale       =       0.3333333333333333 [-]
	 SCS Opposite-Spin Scale   =       1.2000000000000000 [-]
	 SCS Same-Spin Energy      =      -0.1530317997438601 [Eh]
	 SCS Opposite-Spin Energy  =      -1.6622553398186828 [Eh]
	 SCS Correlation Energy    =      -1.8152871395625430 [Eh]
	 SCS Total Energy          =    -453.4773802698426834 [Eh]
	-----------------------------------------------------------

  Dipole Moment: [D]
     X:     1.0222      Y:    -4.1888      Z:    -0.0392     Total:     4.3119

*** Psi4 exiting successfully. Buy a developer a beer!
