                               Psi4 1.3.2 release

  ==> Input File <==

--------------------------------------------------------------------------
#psi4
#
memory 32 gb

molecule  {
0 1
  N       -1.1265450    -1.2362860     0.0000060
  C        0.2308680    -1.4868800    -0.0000290
  C        1.1512880    -0.4934230    -0.0000150
  C        0.6802440     0.8910390    -0.0001390
  N       -0.7159090     1.0273040    -0.0000130
  C       -1.6820960     0.0327770     0.0001490
  C        2.6300190    -0.7237960     0.0000320
  O        1.4079770     1.8828460     0.0000440
  O       -2.8884570     0.2443790    -0.0000340
  H       -1.7971614    -1.9956254     0.2999520
  H       -1.0703780     1.9806020    -0.0000270
  H        0.5071850    -2.5374850    -0.0000570
  H        3.0900470    -0.2640690    -0.8790850
  H        3.0900220    -0.2639380     0.8790930
  H        2.8593700    -1.7927480     0.0001130
units angstrom
no_reorient  #important for SAPT in psi4, default
symmetry c1  #important for SAPT in psi4, default
}

set PROPERTIES_ORIGIN ["COM"]
properties('MP2/aug-cc-pvtz', properties = ['dipole'])
--------------------------------------------------------------------------

    Molecular point group: c1
  Charge       = 0
  Multiplicity = 1
  Basis Set: AUG-CC-PVTZ
    Blend: AUG-CC-PVTZ
  Basis Set: (AUG-CC-PVTZ AUX)
    Blend: AUG-CC-PVTZ-JKFIT

    Orbital Energies [Eh]
    ---------------------

    Doubly Occupied:

       1A    -20.544881     2A    -20.543867     3A    -15.642424
       4A    -15.628632     5A    -11.417952     6A    -11.381486
       7A    -11.330952     8A    -11.263257     9A    -11.239652
      10A     -1.426985    11A     -1.392459    12A     -1.302976
      13A     -1.238292    14A     -1.107141    15A     -0.969636
      16A     -0.915217    17A     -0.888318    18A     -0.767324
      19A     -0.761853    20A     -0.705925    21A     -0.676830
      22A     -0.659549    23A     -0.640090    24A     -0.615223
      25A     -0.591304    26A     -0.568864    27A     -0.557694
      28A     -0.550976    29A     -0.510346    30A     -0.479420
      31A     -0.448876    32A     -0.434852    33A     -0.355348

  @DF-RHF Final Energy:  -451.66771343542564

   => Energetics <=

    Nuclear Repulsion Energy =            437.9811905998138286
    One-Electron Energy =               -1484.1806093717589192
    Two-Electron Energy =                 594.5317053365195079
    Total Energy =                       -451.6677134354256395
  Basis Set: (AUG-CC-PVTZ AUX)
    Blend: AUG-CC-PVTZ-RI
    Molecular point group: c1

    Geometry (in Angstrom), charge = 0, multiplicity = 1:

       Center              X                  Y                   Z               Mass
    ------------   -----------------  -----------------  -----------------  -----------------
         N           -1.073983968691    -1.274555493535    -0.002392979121    14.003074004430
         C            0.283429031309    -1.525149493535    -0.002427979121    12.000000000000
         C            1.203849031309    -0.531692493535    -0.002413979121    12.000000000000
         C            0.732805031309     0.852769506465    -0.002537979121    12.000000000000
         N           -0.663347968691     0.989034506465    -0.002411979121    14.003074004430
         C           -1.629534968691    -0.005492493535    -0.002249979121    12.000000000000
         C            2.682580031309    -0.762065493535    -0.002366979121    12.000000000000
         O            1.460538031309     1.844576506465    -0.002354979121    15.994914619570
         O           -2.835895968691     0.206109506465    -0.002432979121    15.994914619570
         H           -1.744600368691    -2.033894893535     0.297553020879     1.007825032230
         H           -1.017816968691     1.942332506465    -0.002425979121     1.007825032230
         H            0.559746031309    -2.575754493535    -0.002455979121     1.007825032230
         H            3.142608031309    -0.302338493535    -0.881483979121     1.007825032230
         H            3.142583031309    -0.302207493535     0.876694020879     1.007825032230
         H            2.911931031309    -1.831017493535    -0.002285979121     1.007825032230

  Basis Set: AUG-CC-PVTZ
    Blend: AUG-CC-PVTZ
  Basis Set: (AUG-CC-PVTZ AUX)
    Blend: AUG-CC-PVTZ-JKFIT
	 Reference Energy          =    -451.6677134354256395 [Eh]
	 Singles Energy            =      -0.0000000000000000 [Eh]
	 Same-Spin Energy          =      -0.4592406143696747 [Eh]
	 Opposite-Spin Energy      =      -1.3855366357381329 [Eh]
	 Correlation Energy        =      -1.8447772501078075 [Eh]
	 Total Energy              =    -453.5124906855334643 [Eh]

	 ================> DF-SCS-MP2 Energies <==================
	-----------------------------------------------------------
	 SCS Same-Spin Scale       =       0.3333333333333333 [-]
	 SCS Opposite-Spin Scale   =       1.2000000000000000 [-]
	 SCS Same-Spin Energy      =      -0.1530802047898915 [Eh]
	 SCS Opposite-Spin Energy  =      -1.6626439628857594 [Eh]
	 SCS Correlation Energy    =      -1.8157241676756510 [Eh]
	 SCS Total Energy          =    -453.4834376031012653 [Eh]
	-----------------------------------------------------------

  Dipole Moment: [D]
     X:     1.0617      Y:    -4.1314      Z:     0.4168     Total:     4.2859

*** Psi4 exiting successfully. Buy a developer a beer!
