                               Psi4 1.3.2 release

  ==> Input File <==

--------------------------------------------------------------------------
#psi4
#
memory 32 gb

molecule  {
0 1
  N       -1.1265450    -1.2362860     0.0000060
  C        0.2308680    -1.4868800    -0.0000290
  C        1.1512880    -0.4934230    -0.0000150
  C        0.6802440     0.8910390    -0.0001390
  N       -0.7159090     1.0273040    -0.0000130
  C       -1.6820960     0.0327770     0.0001490
  C        2.6300190    -0.7237960     0.0000320
  O        1.4079770     1.8828460     0.0000440
  O       -2.8884570     0.2443790    -0.0000340
  H       -1.7971630    -1.9956156     0.1999520
  H       -1.0703780     1.9806020    -0.0000270
  H        0.5071850    -2.5374850    -0.0000570
  H        3.0900470    -0.2640690    -0.8790850
  H        3.0900220    -0.2639380     0.8790930
  H        2.8593700    -1.7927480     0.0001130
units angstrom
no_reorient  #important for SAPT in psi4, default
symmetry c1  #important for SAPT in psi4, default
}

set PROPERTIES_ORIGIN ["COM"]
properties('MP2/aug-cc-pvtz', properties = ['dipole'])
--------------------------------------------------------------------------

    Molecular point group: c1
  Charge       = 0
  Multiplicity = 1
  Basis Set: AUG-CC-PVTZ
    Blend: AUG-CC-PVTZ
  Basis Set: (AUG-CC-PVTZ AUX)
    Blend: AUG-CC-PVTZ-JKFIT

    Orbital Energies [Eh]
    ---------------------

    Doubly Occupied:

       1A    -20.544727     2A    -20.543527     3A    -15.641443
       4A    -15.628620     5A    -11.418136     6A    -11.381297
       7A    -11.331551     8A    -11.263047     9A    -11.239592
      10A     -1.427224    11A     -1.392286    12A     -1.304063
      13A     -1.239321    14A     -1.107649    15A     -0.969897
      16A     -0.915326    17A     -0.891019    18A     -0.768736
      19A     -0.764275    20A     -0.706748    21A     -0.675910
      22A     -0.662259    23A     -0.640157    24A     -0.615953
      25A     -0.591429    26A     -0.568743    27A     -0.557893
      28A     -0.551487    29A     -0.510833    30A     -0.479450
      31A     -0.448673    32A     -0.434845    33A     -0.354898

  @DF-RHF Final Energy:  -451.67064424530980

   => Energetics <=

    Nuclear Repulsion Energy =            438.0964284380739855
    One-Electron Energy =               -1484.3921260751421869
    Two-Electron Energy =                 594.6250533917585699
    Total Energy =                       -451.6706442453097452
  Basis Set: (AUG-CC-PVTZ AUX)
    Blend: AUG-CC-PVTZ-RI
    Molecular point group: c1

    Geometry (in Angstrom), charge = 0, multiplicity = 1:

       Center              X                  Y                   Z               Mass
    ------------   -----------------  -----------------  -----------------  -----------------
         N           -1.073983955898    -1.274555571895    -0.001593390399    14.003074004430
         C            0.283429044102    -1.525149571895    -0.001628390399    12.000000000000
         C            1.203849044102    -0.531692571895    -0.001614390399    12.000000000000
         C            0.732805044102     0.852769428105    -0.001738390399    12.000000000000
         N           -0.663347955898     0.989034428105    -0.001612390399    14.003074004430
         C           -1.629534955898    -0.005492571895    -0.001450390399    12.000000000000
         C            2.682580044102    -0.762065571895    -0.001567390399    12.000000000000
         O            1.460538044102     1.844576428105    -0.001555390399    15.994914619570
         O           -2.835895955898     0.206109428105    -0.001633390399    15.994914619570
         H           -1.744601955898    -2.033885171895     0.198352609601     1.007825032230
         H           -1.017816955898     1.942332428105    -0.001626390399     1.007825032230
         H            0.559746044102    -2.575754571895    -0.001656390399     1.007825032230
         H            3.142608044102    -0.302338571895    -0.880684390399     1.007825032230
         H            3.142583044102    -0.302207571895     0.877493609601     1.007825032230
         H            2.911931044102    -1.831017571895    -0.001486390399     1.007825032230

  Basis Set: AUG-CC-PVTZ
    Blend: AUG-CC-PVTZ
  Basis Set: (AUG-CC-PVTZ AUX)
    Blend: AUG-CC-PVTZ-JKFIT
	 Reference Energy          =    -451.6706442453098020 [Eh]
	 Singles Energy            =      -0.0000000000000000 [Eh]
	 Same-Spin Energy          =      -0.4590873519236123 [Eh]
	 Opposite-Spin Energy      =      -1.3850938733955243 [Eh]
	 Correlation Energy        =      -1.8441812253191365 [Eh]
	 Total Energy              =    -453.5148254706289208 [Eh]

	 ================> DF-SCS-MP2 Energies <==================
	-----------------------------------------------------------
	 SCS Same-Spin Scale       =       0.3333333333333333 [-]
	 SCS Opposite-Spin Scale   =       1.2000000000000000 [-]
	 SCS Same-Spin Energy      =      -0.1530291173078708 [Eh]
	 SCS Opposite-Spin Energy  =      -1.6621126480746291 [Eh]
	 SCS Correlation Energy    =      -1.8151417653824999 [Eh]
	 SCS Total Energy          =    -453.4857860106923226 [Eh]
	-----------------------------------------------------------

  Dipole Moment: [D]
     X:     1.0479      Y:    -4.1617      Z:     0.2795     Total:     4.3007

*** Psi4 exiting successfully. Buy a developer a beer!
