                               Psi4 1.3.2 release

  ==> Input File <==

--------------------------------------------------------------------------
#psi4
#
memory 32 gb

molecule  {
0 1
  N       -1.1265450    -1.2362860     0.0000060
  C        0.2308680    -1.4868800    -0.0000290
  C        1.1512880    -0.4934230    -0.0000150
  C        0.6802440     0.8910390    -0.0001390
  N       -0.7159090     1.0273040    -0.0000130
  C       -1.6820960     0.0327770     0.0001490
  C        2.6300190    -0.7237960     0.0000320
  O        1.4079770     1.8828460     0.0000440
  O       -2.8884570     0.2443790    -0.0000340
  H       -1.7971660    -1.9955960    -0.0000480
  H       -1.0703931     1.9805932    -0.1500270
  H        0.5071850    -2.5374850    -0.0000570
  H        3.0900470    -0.2640690    -0.8790850
  H        3.0900220    -0.2639380     0.8790930
  H        2.8593700    -1.7927480     0.0001130
units angstrom
no_reorient  #important for SAPT in psi4, default
symmetry c1  #important for SAPT in psi4, default
}

set PROPERTIES_ORIGIN ["COM"]
properties('MP2/aug-cc-pvtz', properties = ['dipole'])
--------------------------------------------------------------------------

    Molecular point group: c1
  Charge       = 0
  Multiplicity = 1
  Basis Set: AUG-CC-PVTZ
    Blend: AUG-CC-PVTZ
  Basis Set: (AUG-CC-PVTZ AUX)
    Blend: AUG-CC-PVTZ-JKFIT

    Orbital Energies [Eh]
    ---------------------

    Doubly Occupied:

       1A    -20.544641     2A    -20.543307     3A    -15.640570
       4A    -15.629103     5A    -11.418173     6A    -11.380996
       7A    -11.332070     8A    -11.262811     9A    -11.239505
      10A     -1.427254    11A     -1.392074    12A     -1.304964
      13A     -1.239143    14A     -1.108017    15A     -0.970079
      16A     -0.914445    17A     -0.893013    18A     -0.769906
      19A     -0.765282    20A     -0.706206    21A     -0.674621
      22A     -0.663930    23A     -0.640136    24A     -0.616193
      25A     -0.591502    26A     -0.568626    27A     -0.557978
      28A     -0.551473    29A     -0.511131    30A     -0.479436
      31A     -0.448508    32A     -0.434787    33A     -0.354471

  @DF-RHF Final Energy:  -451.67126263632696

   => Energetics <=

    Nuclear Repulsion Energy =            438.1363154993471767
    One-Electron Energy =               -1484.4664527260533760
    Two-Electron Energy =                 594.6588745903792415
    Total Energy =                       -451.6712626363270147
  Basis Set: (AUG-CC-PVTZ AUX)
    Blend: AUG-CC-PVTZ-RI
    Molecular point group: c1

    Geometry (in Angstrom), charge = 0, multiplicity = 1:

       Center              X                  Y                   Z               Mass
    ------------   -----------------  -----------------  -----------------  -----------------
         N           -1.073983811172    -1.274555658250     0.001205170127    14.003074004430
         C            0.283429188828    -1.525149658250     0.001170170127    12.000000000000
         C            1.203849188828    -0.531692658250     0.001184170127    12.000000000000
         C            0.732805188828     0.852769341750     0.001060170127    12.000000000000
         N           -0.663347811172     0.989034341750     0.001186170127    14.003074004430
         C           -1.629534811172    -0.005492658250     0.001348170127    12.000000000000
         C            2.682580188828    -0.762065658250     0.001231170127    12.000000000000
         O            1.460538188828     1.844576341750     0.001243170127    15.994914619570
         O           -2.835895811172     0.206109341750     0.001165170127    15.994914619570
         H           -1.744604811172    -2.033865658250     0.001151170127     1.007825032230
         H           -1.017831911172     1.942323541750    -0.148827829873     1.007825032230
         H            0.559746188828    -2.575754658250     0.001142170127     1.007825032230
         H            3.142608188828    -0.302338658250    -0.877885829873     1.007825032230
         H            3.142583188828    -0.302207658250     0.880292170127     1.007825032230
         H            2.911931188828    -1.831017658250     0.001312170127     1.007825032230

  Basis Set: AUG-CC-PVTZ
    Blend: AUG-CC-PVTZ
  Basis Set: (AUG-CC-PVTZ AUX)
    Blend: AUG-CC-PVTZ-JKFIT
	 Reference Energy          =    -451.6712626363269578 [Eh]
	 Singles Energy            =      -0.0000000000000000 [Eh]
	 Same-Spin Energy          =      -0.4590660943061517 [Eh]
	 Opposite-Spin Energy      =      -1.3849858932523358 [Eh]
	 Correlation Energy        =      -1.8440519875584875 [Eh]
	 Total Energy              =    -453.5153146238854447 [Eh]

	 ================> DF-SCS-MP2 Energies <==================
	-----------------------------------------------------------
	 SCS Same-Spin Scale       =       0.3333333333333333 [-]
	 SCS Opposite-Spin Scale   =       1.2000000000000000 [-]
	 SCS Same-Spin Energy      =      -0.1530220314353839 [Eh]
	 SCS Opposite-Spin Energy  =      -1.6619830719028028 [Eh]
	 SCS Correlation Energy    =      -1.8150051033381867 [Eh]
	 SCS Total Energy          =    -453.4862677396651520 [Eh]
	-----------------------------------------------------------

  Dipole Moment: [D]
     X:     1.0375      Y:    -4.1916      Z:    -0.1957     Total:     4.3225

*** Psi4 exiting successfully. Buy a developer a beer!
