                               Psi4 1.3.2 release

  ==> Input File <==

--------------------------------------------------------------------------
#psi4
#
memory 32 gb

molecule  {
0 1
  N       -1.1265450    -1.2362860     0.0000060
  C        0.2308680    -1.4868800    -0.0000290
  C        1.1512880    -0.4934230    -0.0000150
  C        0.6802440     0.8910390    -0.0001390
  N       -0.7159090     1.0273040    -0.0000130
  C       -1.6820960     0.0327770     0.0001490
  C        2.6300190    -0.7237960     0.0000320
  O        1.4079770     1.8828460     0.0000440
  O       -2.8884570     0.2443790    -0.0000340
  H       -1.7971637    -1.9956107     0.1499520
  H       -1.0703780     1.9806020    -0.0000270
  H        0.5071850    -2.5374850    -0.0000570
  H        3.0900470    -0.2640690    -0.8790850
  H        3.0900220    -0.2639380     0.8790930
  H        2.8593700    -1.7927480     0.0001130
units angstrom
no_reorient  #important for SAPT in psi4, default
symmetry c1  #important for SAPT in psi4, default
}

set PROPERTIES_ORIGIN ["COM"]
properties('MP2/aug-cc-pvtz', properties = ['dipole'])
--------------------------------------------------------------------------

    Molecular point group: c1
  Charge       = 0
  Multiplicity = 1
  Basis Set: AUG-CC-PVTZ
    Blend: AUG-CC-PVTZ
  Basis Set: (AUG-CC-PVTZ AUX)
    Blend: AUG-CC-PVTZ-JKFIT

    Orbital Energies [Eh]
    ---------------------

    Doubly Occupied:

       1A    -20.544667     2A    -20.543401     3A    -15.641087
       4A    -15.628615     5A    -11.418204     6A    -11.381226
       7A    -11.331773     8A    -11.262969     9A    -11.239570
      10A     -1.427313    11A     -1.392221    12A     -1.304474
      13A     -1.239697    14A     -1.107839    15A     -0.969996
      16A     -0.915365    17A     -0.892056    18A     -0.769544
      19A     -0.764874    20A     -0.707032    21A     -0.675391
      22A     -0.663402    23A     -0.640177    24A     -0.616187
      25A     -0.591471    26A     -0.568691    27A     -0.557980
      28A     -0.551656    29A     -0.511005    30A     -0.479457
      31A     -0.448598    32A     -0.434841    33A     -0.354731

  @DF-RHF Final Energy:  -451.67150851224295

   => Energetics <=

    Nuclear Repulsion Energy =            438.1382357417892308
    One-Electron Energy =               -1484.4684673191843558
    Two-Electron Energy =                 594.6587230651521168
    Total Energy =                       -451.6715085122430082
  Basis Set: (AUG-CC-PVTZ AUX)
    Blend: AUG-CC-PVTZ-RI
    Molecular point group: c1

    Geometry (in Angstrom), charge = 0, multiplicity = 1:

       Center              X                  Y                   Z               Mass
    ------------   -----------------  -----------------  -----------------  -----------------
         N           -1.073983950301    -1.274555611075    -0.001193596038    14.003074004430
         C            0.283429049699    -1.525149611075    -0.001228596038    12.000000000000
         C            1.203849049699    -0.531692611075    -0.001214596038    12.000000000000
         C            0.732805049699     0.852769388925    -0.001338596038    12.000000000000
         N           -0.663347950301     0.989034388925    -0.001212596038    14.003074004430
         C           -1.629534950301    -0.005492611075    -0.001050596038    12.000000000000
         C            2.682580049699    -0.762065611075    -0.001167596038    12.000000000000
         O            1.460538049699     1.844576388925    -0.001155596038    15.994914619570
         O           -2.835895950301     0.206109388925    -0.001233596038    15.994914619570
         H           -1.744602650301    -2.033880311075     0.148752403962     1.007825032230
         H           -1.017816950301     1.942332388925    -0.001226596038     1.007825032230
         H            0.559746049699    -2.575754611075    -0.001256596038     1.007825032230
         H            3.142608049699    -0.302338611075    -0.880284596038     1.007825032230
         H            3.142583049699    -0.302207611075     0.877893403962     1.007825032230
         H            2.911931049699    -1.831017611075    -0.001086596038     1.007825032230

  Basis Set: AUG-CC-PVTZ
    Blend: AUG-CC-PVTZ
  Basis Set: (AUG-CC-PVTZ AUX)
    Blend: AUG-CC-PVTZ-JKFIT
	 Reference Energy          =    -451.6715085122429514 [Eh]
	 Singles Energy            =      -0.0000000000000000 [Eh]
	 Same-Spin Energy          =      -0.4590335980166229 [Eh]
	 Opposite-Spin Energy      =      -1.3849446294801937 [Eh]
	 Correlation Energy        =      -1.8439782274968166 [Eh]
	 Total Energy              =    -453.5154867397397425 [Eh]

	 ================> DF-SCS-MP2 Energies <==================
	-----------------------------------------------------------
	 SCS Same-Spin Scale       =       0.3333333333333333 [-]
	 SCS Opposite-Spin Scale   =       1.2000000000000000 [-]
	 SCS Same-Spin Energy      =      -0.1530111993388743 [Eh]
	 SCS Opposite-Spin Energy  =      -1.6619335553762324 [Eh]
	 SCS Correlation Energy    =      -1.8149447547151067 [Eh]
	 SCS Total Energy          =    -453.4864532669580512 [Eh]
	-----------------------------------------------------------

  Dipole Moment: [D]
     X:     1.0429      Y:    -4.1729      Z:     0.2101     Total:     4.3063

*** Psi4 exiting successfully. Buy a developer a beer!
