                               Psi4 1.3.2 release

  ==> Input File <==

--------------------------------------------------------------------------
#psi4
#
memory 32 gb

molecule  {
0 1
  N       -1.1265450    -1.2362860     0.0000060
  C        0.2308680    -1.4868800    -0.0000290
  C        1.1512880    -0.4934230    -0.0000150
  C        0.6802440     0.8910390    -0.0001390
  N       -0.7159090     1.0273040    -0.0000130
  C       -1.6820960     0.0327770     0.0001490
  C        2.6300190    -0.7237960     0.0000320
  O        1.4079788     1.8828483    -0.0999560
  O       -2.8884570     0.2443790    -0.0000340
  H       -1.7971660    -1.9955960    -0.0000480
  H       -1.0703780     1.9806020    -0.0000270
  H        0.5071850    -2.5374850    -0.0000570
  H        3.0900470    -0.2640690    -0.8790850
  H        3.0900220    -0.2639380     0.8790930
  H        2.8593700    -1.7927480     0.0001130
units angstrom
no_reorient  #important for SAPT in psi4, default
symmetry c1  #important for SAPT in psi4, default
}

set PROPERTIES_ORIGIN ["COM"]
properties('MP2/aug-cc-pvtz', properties = ['dipole'])
--------------------------------------------------------------------------

    Molecular point group: c1
  Charge       = 0
  Multiplicity = 1
  Basis Set: AUG-CC-PVTZ
    Blend: AUG-CC-PVTZ
  Basis Set: (AUG-CC-PVTZ AUX)
    Blend: AUG-CC-PVTZ-JKFIT

    Orbital Energies [Eh]
    ---------------------

    Doubly Occupied:

       1A    -20.544755     2A    -20.543208     3A    -15.640821
       4A    -15.628998     5A    -11.418503     6A    -11.381834
       7A    -11.332265     8A    -11.263209     9A    -11.239589
      10A     -1.427361    11A     -1.390044    12A     -1.305057
      13A     -1.240231    14A     -1.108255    15A     -0.970243
      16A     -0.915667    17A     -0.893706    18A     -0.771005
      19A     -0.765337    20A     -0.707579    21A     -0.674159
      22A     -0.665173    23A     -0.640136    24A     -0.615877
      25A     -0.591408    26A     -0.568577    27A     -0.557430
      28A     -0.551717    29A     -0.511338    30A     -0.479506
      31A     -0.448439    32A     -0.434494    33A     -0.354567

  @DF-RHF Final Energy:  -451.67128109231083

   => Energetics <=

    Nuclear Repulsion Energy =            438.0856089311151322
    One-Electron Energy =               -1484.3528057047810762
    Two-Electron Energy =                 594.5959156813552227
    Total Energy =                       -451.6712810923107781
  Basis Set: (AUG-CC-PVTZ AUX)
    Blend: AUG-CC-PVTZ-RI
    Molecular point group: c1

    Geometry (in Angstrom), charge = 0, multiplicity = 1:

       Center              X                  Y                   Z               Mass
    ------------   -----------------  -----------------  -----------------  -----------------
         N           -1.073984160331    -1.274556020485     0.012695840302    14.003074004430
         C            0.283428839669    -1.525150020485     0.012660840302    12.000000000000
         C            1.203848839669    -0.531693020485     0.012674840302    12.000000000000
         C            0.732804839669     0.852768979515     0.012550840302    12.000000000000
         N           -0.663348160331     0.989033979515     0.012676840302    14.003074004430
         C           -1.629535160331    -0.005493020485     0.012838840302    12.000000000000
         C            2.682579839669    -0.762066020485     0.012721840302    12.000000000000
         O            1.460539639669     1.844578279515    -0.087266159698    15.994914619570
         O           -2.835896160331     0.206108979515     0.012655840302    15.994914619570
         H           -1.744605160331    -2.033866020485     0.012641840302     1.007825032230
         H           -1.017817160331     1.942331979515     0.012662840302     1.007825032230
         H            0.559745839669    -2.575755020485     0.012632840302     1.007825032230
         H            3.142607839669    -0.302339020485    -0.866395159698     1.007825032230
         H            3.142582839669    -0.302208020485     0.891782840302     1.007825032230
         H            2.911930839669    -1.831018020485     0.012802840302     1.007825032230

  Basis Set: AUG-CC-PVTZ
    Blend: AUG-CC-PVTZ
  Basis Set: (AUG-CC-PVTZ AUX)
    Blend: AUG-CC-PVTZ-JKFIT
	 Reference Energy          =    -451.6712810923108350 [Eh]
	 Singles Energy            =      -0.0000000000000000 [Eh]
	 Same-Spin Energy          =      -0.4591014071994849 [Eh]
	 Opposite-Spin Energy      =      -1.3850578541150769 [Eh]
	 Correlation Energy        =      -1.8441592613145619 [Eh]
	 Total Energy              =    -453.5154403536254222 [Eh]

	 ================> DF-SCS-MP2 Energies <==================
	-----------------------------------------------------------
	 SCS Same-Spin Scale       =       0.3333333333333333 [-]
	 SCS Opposite-Spin Scale   =       1.2000000000000000 [-]
	 SCS Same-Spin Energy      =      -0.1530338023998283 [Eh]
	 SCS Opposite-Spin Energy  =      -1.6620694249380923 [Eh]
	 SCS Correlation Energy    =      -1.8151032273379206 [Eh]
	 SCS Total Energy          =    -453.4863843196487778 [Eh]
	-----------------------------------------------------------

  Dipole Moment: [D]
     X:     1.0276      Y:    -4.1975      Z:     0.1710     Total:     4.3249

*** Psi4 exiting successfully. Buy a developer a beer!
