                               Psi4 1.3.2 release

  ==> Input File <==

--------------------------------------------------------------------------
#psi4
#
memory 32 gb

molecule  {
0 1
  N       -1.1265450    -1.2362860     0.0000060
  C        0.2308680    -1.4868800    -0.0000290
  C        1.1512880    -0.4934230    -0.0000150
  C        0.6802440     0.8910390    -0.0001390
  N       -0.7159090     1.0273040    -0.0000130
  C       -1.6820960     0.0327770     0.0001490
  C        2.6300190    -0.7237960     0.0000320
  O        1.4079770     1.8828460     0.0000440
  O       -2.8884570     0.2443790    -0.0000340
  H       -1.7971660    -1.9955960    -0.0000480
  H       -1.0703780     1.9806020    -0.0000270
  H        0.5071823    -2.5374811    -0.1500570
  H        3.0900470    -0.2640690    -0.8790850
  H        3.0900220    -0.2639380     0.8790930
  H        2.8593700    -1.7927480     0.0001130
units angstrom
no_reorient  #important for SAPT in psi4, default
symmetry c1  #important for SAPT in psi4, default
}

set PROPERTIES_ORIGIN ["COM"]
properties('MP2/aug-cc-pvtz', properties = ['dipole'])
--------------------------------------------------------------------------

    Molecular point group: c1
  Charge       = 0
  Multiplicity = 1
  Basis Set: AUG-CC-PVTZ
    Blend: AUG-CC-PVTZ
  Basis Set: (AUG-CC-PVTZ AUX)
    Blend: AUG-CC-PVTZ-JKFIT

    Orbital Energies [Eh]
    ---------------------

    Doubly Occupied:

       1A    -20.544553     2A    -20.543427     3A    -15.640457
       4A    -15.628684     5A    -11.418263     6A    -11.381308
       7A    -11.332846     8A    -11.263259     9A    -11.239649
      10A     -1.427427    11A     -1.392268    12A     -1.304946
      13A     -1.240187    14A     -1.108110    15A     -0.969875
      16A     -0.914832    17A     -0.893481    18A     -0.770784
      19A     -0.765434    20A     -0.705746    21A     -0.674429
      22A     -0.665013    23A     -0.639811    24A     -0.615774
      25A     -0.591611    26A     -0.568806    27A     -0.558068
      28A     -0.551906    29A     -0.511043    30A     -0.479183
      31A     -0.448596    32A     -0.434901    33A     -0.354566

  @DF-RHF Final Energy:  -451.67100540912571

   => Energetics <=

    Nuclear Repulsion Energy =            438.1511404409901047
    One-Electron Energy =               -1484.4858099978216615
    Two-Electron Energy =                 594.6636641477059584
    Total Energy =                       -451.6710054091256552
  Basis Set: (AUG-CC-PVTZ AUX)
    Blend: AUG-CC-PVTZ-RI
    Molecular point group: c1

    Geometry (in Angstrom), charge = 0, multiplicity = 1:

       Center              X                  Y                   Z               Mass
    ------------   -----------------  -----------------  -----------------  -----------------
         N           -1.073983910321    -1.274555759798     0.001205170127    14.003074004430
         C            0.283429089679    -1.525149759798     0.001170170127    12.000000000000
         C            1.203849089679    -0.531692759798     0.001184170127    12.000000000000
         C            0.732805089679     0.852769240202     0.001060170127    12.000000000000
         N           -0.663347910321     0.989034240202     0.001186170127    14.003074004430
         C           -1.629534910321    -0.005492759798     0.001348170127    12.000000000000
         C            2.682580089679    -0.762065759798     0.001231170127    12.000000000000
         O            1.460538089679     1.844576240202     0.001243170127    15.994914619570
         O           -2.835895910321     0.206109240202     0.001165170127    15.994914619570
         H           -1.744604910321    -2.033865759798     0.001151170127     1.007825032230
         H           -1.017816910321     1.942332240202     0.001172170127     1.007825032230
         H            0.559743389679    -2.575750859798    -0.148857829873     1.007825032230
         H            3.142608089679    -0.302338759798    -0.877885829873     1.007825032230
         H            3.142583089679    -0.302207759798     0.880292170127     1.007825032230
         H            2.911931089679    -1.831017759798     0.001312170127     1.007825032230

  Basis Set: AUG-CC-PVTZ
    Blend: AUG-CC-PVTZ
  Basis Set: (AUG-CC-PVTZ AUX)
    Blend: AUG-CC-PVTZ-JKFIT
	 Reference Energy          =    -451.6710054091257120 [Eh]
	 Singles Energy            =      -0.0000000000000000 [Eh]
	 Same-Spin Energy          =      -0.4590661298519542 [Eh]
	 Opposite-Spin Energy      =      -1.3849583267648902 [Eh]
	 Correlation Energy        =      -1.8440244566168444 [Eh]
	 Total Energy              =    -453.5150298657425765 [Eh]

	 ================> DF-SCS-MP2 Energies <==================
	-----------------------------------------------------------
	 SCS Same-Spin Scale       =       0.3333333333333333 [-]
	 SCS Opposite-Spin Scale   =       1.2000000000000000 [-]
	 SCS Same-Spin Energy      =      -0.1530220432839847 [Eh]
	 SCS Opposite-Spin Energy  =      -1.6619499921178682 [Eh]
	 SCS Correlation Energy    =      -1.8149720354018530 [Eh]
	 SCS Total Energy          =    -453.4859774445275775 [Eh]
	-----------------------------------------------------------

  Dipole Moment: [D]
     X:     1.0423      Y:    -4.1701      Z:    -0.0953     Total:     4.2994

*** Psi4 exiting successfully. Buy a developer a beer!
