                               Psi4 1.3.2 release

  ==> Input File <==

--------------------------------------------------------------------------
#psi4
#
memory 32 gb

molecule  {
0 1
  N       -1.1265450    -1.2362860     0.0000060
  C        0.2308680    -1.4868800    -0.0000290
  C        1.1512880    -0.4934230    -0.0000150
  C        0.6802440     0.8910390    -0.0001390
  N       -0.7159090     1.0273040    -0.0000130
  C       -1.6820960     0.0327770     0.0001490
  C        2.6300190    -0.7237960     0.0000320
  O        1.4079770     1.8828460     0.0000440
  O       -2.8884570     0.2443790    -0.0000340
  H       -1.7971660    -1.9955960    -0.0000480
  H       -1.0704031     1.9805873    -0.2500270
  H        0.5071850    -2.5374850    -0.0000570
  H        3.0900470    -0.2640690    -0.8790850
  H        3.0900220    -0.2639380     0.8790930
  H        2.8593700    -1.7927480     0.0001130
units angstrom
no_reorient  #important for SAPT in psi4, default
symmetry c1  #important for SAPT in psi4, default
}

set PROPERTIES_ORIGIN ["COM"]
properties('MP2/aug-cc-pvtz', properties = ['dipole'])
--------------------------------------------------------------------------

    Molecular point group: c1
  Charge       = 0
  Multiplicity = 1
  Basis Set: AUG-CC-PVTZ
    Blend: AUG-CC-PVTZ
  Basis Set: (AUG-CC-PVTZ AUX)
    Blend: AUG-CC-PVTZ-JKFIT

    Orbital Energies [Eh]
    ---------------------

    Doubly Occupied:

       1A    -20.544729     2A    -20.543419     3A    -15.640481
       4A    -15.629945     5A    -11.417967     6A    -11.380763
       7A    -11.332071     8A    -11.262718     9A    -11.239444
      10A     -1.426953    11A     -1.391966    12A     -1.304853
      13A     -1.237377    14A     -1.107885    15A     -0.969992
      16A     -0.912902    17A     -0.892209    18A     -0.768444
      19A     -0.764965    20A     -0.704113    21A     -0.674794
      22A     -0.661908    23A     -0.640003    24A     -0.615654
      25A     -0.591460    26A     -0.568621    27A     -0.557783
      28A     -0.550768    29A     -0.510957    30A     -0.479373
      31A     -0.448521    32A     -0.434697    33A     -0.354405

  @DF-RHF Final Energy:  -451.66874909200669

   => Energetics <=

    Nuclear Repulsion Energy =            438.0384371550557603
    One-Electron Energy =               -1484.2900907096918672
    Two-Electron Energy =                 594.5829044626293580
    Total Energy =                       -451.6687490920066921
  Basis Set: (AUG-CC-PVTZ AUX)
    Blend: AUG-CC-PVTZ-RI
    Molecular point group: c1

    Geometry (in Angstrom), charge = 0, multiplicity = 1:

       Center              X                  Y                   Z               Mass
    ------------   -----------------  -----------------  -----------------  -----------------
         N           -1.073983731214    -1.274555611075     0.002004758848    14.003074004430
         C            0.283429268786    -1.525149611075     0.001969758848    12.000000000000
         C            1.203849268786    -0.531692611075     0.001983758848    12.000000000000
         C            0.732805268786     0.852769388925     0.001859758848    12.000000000000
         N           -0.663347731214     0.989034388925     0.001985758848    14.003074004430
         C           -1.629534731214    -0.005492611075     0.002147758848    12.000000000000
         C            2.682580268786    -0.762065611075     0.002030758848    12.000000000000
         O            1.460538268786     1.844576388925     0.002042758848    15.994914619570
         O           -2.835895731214     0.206109388925     0.001964758848    15.994914619570
         H           -1.744604731214    -2.033865611075     0.001950758848     1.007825032230
         H           -1.017841831214     1.942317688925    -0.248028241152     1.007825032230
         H            0.559746268786    -2.575754611075     0.001941758848     1.007825032230
         H            3.142608268786    -0.302338611075    -0.877086241152     1.007825032230
         H            3.142583268786    -0.302207611075     0.881091758848     1.007825032230
         H            2.911931268786    -1.831017611075     0.002111758848     1.007825032230

  Basis Set: AUG-CC-PVTZ
    Blend: AUG-CC-PVTZ
  Basis Set: (AUG-CC-PVTZ AUX)
    Blend: AUG-CC-PVTZ-JKFIT
	 Reference Energy          =    -451.6687490920066921 [Eh]
	 Singles Energy            =      -0.0000000000000000 [Eh]
	 Same-Spin Energy          =      -0.4592442250507136 [Eh]
	 Opposite-Spin Energy      =      -1.3853987382814130 [Eh]
	 Correlation Energy        =      -1.8446429633321266 [Eh]
	 Total Energy              =    -453.5133920553388407 [Eh]

	 ================> DF-SCS-MP2 Energies <==================
	-----------------------------------------------------------
	 SCS Same-Spin Scale       =       0.3333333333333333 [-]
	 SCS Opposite-Spin Scale   =       1.2000000000000000 [-]
	 SCS Same-Spin Energy      =      -0.1530814083502379 [Eh]
	 SCS Opposite-Spin Energy  =      -1.6624784859376955 [Eh]
	 SCS Correlation Energy    =      -1.8155598942879334 [Eh]
	 SCS Total Energy          =    -453.4843089862946499 [Eh]
	-----------------------------------------------------------

  Dipole Moment: [D]
     X:     1.0396      Y:    -4.1984      Z:    -0.3253     Total:     4.3374

*** Psi4 exiting successfully. Buy a developer a beer!
