                               Psi4 1.3.2 release

  ==> Input File <==

--------------------------------------------------------------------------
#psi4
#
memory 32 gb

molecule  {
0 1
  N       -1.1265450    -1.2362860     0.0000060
  C        0.2308680    -1.4868800    -0.0000290
  C        1.1512880    -0.4934230    -0.0000150
  C        0.6802440     0.8910390    -0.0001390
  N       -0.7159090     1.0273040    -0.0000130
  C       -1.6820960     0.0327770     0.0001490
  C        2.6300190    -0.7237960     0.0000320
  O        1.4079770     1.8828460     0.0000440
  O       -2.8884577     0.2443795     0.0499660
  H       -1.7971660    -1.9955960    -0.0000480
  H       -1.0703780     1.9806020    -0.0000270
  H        0.5071850    -2.5374850    -0.0000570
  H        3.0900470    -0.2640690    -0.8790850
  H        3.0900220    -0.2639380     0.8790930
  H        2.8593700    -1.7927480     0.0001130
units angstrom
no_reorient  #important for SAPT in psi4, default
symmetry c1  #important for SAPT in psi4, default
}

set PROPERTIES_ORIGIN ["COM"]
properties('MP2/aug-cc-pvtz', properties = ['dipole'])
--------------------------------------------------------------------------

    Molecular point group: c1
  Charge       = 0
  Multiplicity = 1
  Basis Set: AUG-CC-PVTZ
    Blend: AUG-CC-PVTZ
  Basis Set: (AUG-CC-PVTZ AUX)
    Blend: AUG-CC-PVTZ-JKFIT

    Orbital Energies [Eh]
    ---------------------

    Doubly Occupied:

       1A    -20.544545     2A    -20.543281     3A    -15.640722
       4A    -15.628708     5A    -11.418463     6A    -11.381188
       7A    -11.332120     8A    -11.262927     9A    -11.239578
      10A     -1.427046    11A     -1.392050    12A     -1.304904
      13A     -1.240239    14A     -1.108144    15A     -0.970185
      16A     -0.915453    17A     -0.893532    18A     -0.770885
      19A     -0.765446    20A     -0.707437    21A     -0.674425
      22A     -0.665092    23A     -0.639941    24A     -0.616475
      25A     -0.591497    26A     -0.568650    27A     -0.558135
      28A     -0.551899    29A     -0.511110    30A     -0.479340
      31A     -0.448523    32A     -0.434778    33A     -0.354539

  @DF-RHF Final Energy:  -451.67216504941001

   => Energetics <=

    Nuclear Repulsion Energy =            438.1667564608147245
    One-Electron Energy =               -1484.5153295241618707
    Two-Electron Energy =                 594.6764080139371345
    Total Energy =                       -451.6721650494100686
  Basis Set: (AUG-CC-PVTZ AUX)
    Blend: AUG-CC-PVTZ-RI
    Molecular point group: c1

    Geometry (in Angstrom), charge = 0, multiplicity = 1:

       Center              X                  Y                   Z               Mass
    ------------   -----------------  -----------------  -----------------  -----------------
         N           -1.073983843080    -1.274555792064    -0.006339239584    14.003074004430
         C            0.283429156920    -1.525149792064    -0.006374239584    12.000000000000
         C            1.203849156920    -0.531692792064    -0.006360239584    12.000000000000
         C            0.732805156920     0.852769207936    -0.006484239584    12.000000000000
         N           -0.663347843080     0.989034207936    -0.006358239584    14.003074004430
         C           -1.629534843080    -0.005492792064    -0.006196239584    12.000000000000
         C            2.682580156920    -0.762065792064    -0.006313239584    12.000000000000
         O            1.460538156920     1.844576207936    -0.006301239584    15.994914619570
         O           -2.835896543080     0.206109707936     0.043620760416    15.994914619570
         H           -1.744604843080    -2.033865792064    -0.006393239584     1.007825032230
         H           -1.017816843080     1.942332207936    -0.006372239584     1.007825032230
         H            0.559746156920    -2.575754792064    -0.006402239584     1.007825032230
         H            3.142608156920    -0.302338792064    -0.885430239584     1.007825032230
         H            3.142583156920    -0.302207792064     0.872747760416     1.007825032230
         H            2.911931156920    -1.831017792064    -0.006232239584     1.007825032230

  Basis Set: AUG-CC-PVTZ
    Blend: AUG-CC-PVTZ
  Basis Set: (AUG-CC-PVTZ AUX)
    Blend: AUG-CC-PVTZ-JKFIT
	 Reference Energy          =    -451.6721650494100118 [Eh]
	 Singles Energy            =      -0.0000000000000000 [Eh]
	 Same-Spin Energy          =      -0.4589980055938432 [Eh]
	 Opposite-Spin Energy      =      -1.3848316386838522 [Eh]
	 Correlation Energy        =      -1.8438296442776954 [Eh]
	 Total Energy              =    -453.5159946936877304 [Eh]

	 ================> DF-SCS-MP2 Energies <==================
	-----------------------------------------------------------
	 SCS Same-Spin Scale       =       0.3333333333333333 [-]
	 SCS Opposite-Spin Scale   =       1.2000000000000000 [-]
	 SCS Same-Spin Energy      =      -0.1529993351979477 [Eh]
	 SCS Opposite-Spin Energy  =      -1.6617979664206226 [Eh]
	 SCS Correlation Energy    =      -1.8147973016185703 [Eh]
	 SCS Total Energy          =    -453.4869623510285805 [Eh]
	-----------------------------------------------------------

  Dipole Moment: [D]
     X:     1.0418      Y:    -4.1885      Z:    -0.0918     Total:     4.3171

*** Psi4 exiting successfully. Buy a developer a beer!
