                               Psi4 1.3.2 release

  ==> Input File <==

--------------------------------------------------------------------------
#psi4
#
memory 32 gb

molecule  {
0 1
  N       -1.1265450    -1.2362860     0.0000060
  C        0.2308680    -1.4868800    -0.0000290
  C        1.1512880    -0.4934230    -0.0000150
  C        0.6802440     0.8910390    -0.0001390
  N       -0.7159090     1.0273040    -0.0000130
  C       -1.6820960     0.0327770     0.0001490
  C        2.6300190    -0.7237960     0.0000320
  O        1.4079770     1.8828460     0.0000440
  O       -2.8884604     0.2443817     0.2499660
  H       -1.7971660    -1.9955960    -0.0000480
  H       -1.0703780     1.9806020    -0.0000270
  H        0.5071850    -2.5374850    -0.0000570
  H        3.0900470    -0.2640690    -0.8790850
  H        3.0900220    -0.2639380     0.8790930
  H        2.8593700    -1.7927480     0.0001130
units angstrom
no_reorient  #important for SAPT in psi4, default
symmetry c1  #important for SAPT in psi4, default
}

set PROPERTIES_ORIGIN ["COM"]
properties('MP2/aug-cc-pvtz', properties = ['dipole'])
--------------------------------------------------------------------------

    Molecular point group: c1
  Charge       = 0
  Multiplicity = 1
  Basis Set: AUG-CC-PVTZ
    Blend: AUG-CC-PVTZ
  Basis Set: (AUG-CC-PVTZ AUX)
    Blend: AUG-CC-PVTZ-JKFIT

    Orbital Energies [Eh]
    ---------------------

    Doubly Occupied:

       1A    -20.544370     2A    -20.543644     3A    -15.643099
       4A    -15.631008     5A    -11.422330     6A    -11.382484
       7A    -11.333313     8A    -11.264395     9A    -11.240469
      10A     -1.419495    11A     -1.389231    12A     -1.301432
      13A     -1.241305    14A     -1.109306    15A     -0.971467
      16A     -0.916316    17A     -0.895123    18A     -0.772291
      19A     -0.765455    20A     -0.708496    21A     -0.674144
      22A     -0.663939    23A     -0.633501    24A     -0.616605
      25A     -0.590898    26A     -0.569397    27A     -0.558847
      28A     -0.552741    29A     -0.508283    30A     -0.476426
      31A     -0.449024    32A     -0.433319    33A     -0.355246

  @DF-RHF Final Energy:  -451.66412910404409

   => Energetics <=

    Nuclear Repulsion Energy =            437.5440669448632320
    One-Electron Energy =               -1483.2615953876925232
    Two-Electron Energy =                 594.0533993387850842
    Total Energy =                       -451.6641291040441502
  Basis Set: (AUG-CC-PVTZ AUX)
    Blend: AUG-CC-PVTZ-RI
    Molecular point group: c1

    Geometry (in Angstrom), charge = 0, multiplicity = 1:

       Center              X                  Y                   Z               Mass
    ------------   -----------------  -----------------  -----------------  -----------------
         N           -1.073983500448    -1.274556071246    -0.031719346099    14.003074004430
         C            0.283429499552    -1.525150071246    -0.031754346099    12.000000000000
         C            1.203849499552    -0.531693071246    -0.031740346099    12.000000000000
         C            0.732805499552     0.852768928754    -0.031864346099    12.000000000000
         N           -0.663347500448     0.989033928754    -0.031738346099    14.003074004430
         C           -1.629534500448    -0.005493071246    -0.031576346099    12.000000000000
         C            2.682580499552    -0.762066071246    -0.031693346099    12.000000000000
         O            1.460538499552     1.844575928754    -0.031681346099    15.994914619570
         O           -2.835898900448     0.206111628754     0.218240653901    15.994914619570
         H           -1.744604500448    -2.033866071246    -0.031773346099     1.007825032230
         H           -1.017816500448     1.942331928754    -0.031752346099     1.007825032230
         H            0.559746499552    -2.575755071246    -0.031782346099     1.007825032230
         H            3.142608499552    -0.302339071246    -0.910810346099     1.007825032230
         H            3.142583499552    -0.302208071246     0.847367653901     1.007825032230
         H            2.911931499552    -1.831018071246    -0.031612346099     1.007825032230

  Basis Set: AUG-CC-PVTZ
    Blend: AUG-CC-PVTZ
  Basis Set: (AUG-CC-PVTZ AUX)
    Blend: AUG-CC-PVTZ-JKFIT
	 Reference Energy          =    -451.6641291040440933 [Eh]
	 Singles Energy            =      -0.0000000000000000 [Eh]
	 Same-Spin Energy          =      -0.4597868114244514 [Eh]
	 Opposite-Spin Energy      =      -1.3865695922681534 [Eh]
	 Correlation Energy        =      -1.8463564036926048 [Eh]
	 Total Energy              =    -453.5104855077366892 [Eh]

	 ================> DF-SCS-MP2 Energies <==================
	-----------------------------------------------------------
	 SCS Same-Spin Scale       =       0.3333333333333333 [-]
	 SCS Opposite-Spin Scale   =       1.2000000000000000 [-]
	 SCS Same-Spin Energy      =      -0.1532622704748171 [Eh]
	 SCS Opposite-Spin Energy  =      -1.6638835107217840 [Eh]
	 SCS Correlation Energy    =      -1.8171457811966012 [Eh]
	 SCS Total Energy          =    -453.4812748852406799 [Eh]
	-----------------------------------------------------------

  Dipole Moment: [D]
     X:     1.1703      Y:    -4.2113      Z:    -0.4619     Total:     4.3953

*** Psi4 exiting successfully. Buy a developer a beer!
