                               Psi4 1.3.2 release

  ==> Input File <==

--------------------------------------------------------------------------
#psi4
#
memory 32 gb

molecule  {
0 1
  N       -1.1265450    -1.2362860     0.0000060
  C        0.2308680    -1.4868800    -0.0000290
  C        1.1512880    -0.4934230    -0.0000150
  C        0.6802440     0.8910390    -0.0001390
  N       -0.7159090     1.0273040    -0.0000130
  C       -1.6820960     0.0327770     0.0001490
  C        2.6300190    -0.7237960     0.0000320
  O        1.4079770     1.8828460     0.0000440
  O       -2.8884570     0.2443790    -0.0000340
  H       -1.7971660    -1.9955960    -0.0000480
  H       -1.0703780     1.9806020    -0.0000270
  H        0.5071815    -2.5374798    -0.2000570
  H        3.0900470    -0.2640690    -0.8790850
  H        3.0900220    -0.2639380     0.8790930
  H        2.8593700    -1.7927480     0.0001130
units angstrom
no_reorient  #important for SAPT in psi4, default
symmetry c1  #important for SAPT in psi4, default
}

set PROPERTIES_ORIGIN ["COM"]
properties('MP2/aug-cc-pvtz', properties = ['dipole'])
--------------------------------------------------------------------------

    Molecular point group: c1
  Charge       = 0
  Multiplicity = 1
  Basis Set: AUG-CC-PVTZ
    Blend: AUG-CC-PVTZ
  Basis Set: (AUG-CC-PVTZ AUX)
    Blend: AUG-CC-PVTZ-JKFIT

    Orbital Energies [Eh]
    ---------------------

    Doubly Occupied:

       1A    -20.544532     2A    -20.543574     3A    -15.640335
       4A    -15.628742     5A    -11.418241     6A    -11.381443
       7A    -11.333441     8A    -11.263562     9A    -11.239731
      10A     -1.427427    11A     -1.392371    12A     -1.304885
      13A     -1.240184    14A     -1.108124    15A     -0.969690
      16A     -0.914393    17A     -0.893495    18A     -0.770758
      19A     -0.765427    20A     -0.704523    21A     -0.674411
      22A     -0.664911    23A     -0.639521    24A     -0.615198
      25A     -0.591676    26A     -0.568950    27A     -0.558040
      28A     -0.551936    29A     -0.510902    30A     -0.478962
      31A     -0.448672    32A     -0.434951    33A     -0.354611

  @DF-RHF Final Energy:  -451.66980003086661

   => Energetics <=

    Nuclear Repulsion Energy =            438.1190120342261025
    One-Electron Energy =               -1484.4223884331786394
    Two-Electron Energy =                 594.6335763680857553
    Total Energy =                       -451.6698000308666678
  Basis Set: (AUG-CC-PVTZ AUX)
    Blend: AUG-CC-PVTZ-RI
    Molecular point group: c1

    Geometry (in Angstrom), charge = 0, multiplicity = 1:

       Center              X                  Y                   Z               Mass
    ------------   -----------------  -----------------  -----------------  -----------------
         N           -1.073983903925    -1.274555770193     0.001604964488    14.003074004430
         C            0.283429096075    -1.525149770193     0.001569964488    12.000000000000
         C            1.203849096075    -0.531692770193     0.001583964488    12.000000000000
         C            0.732805096075     0.852769229807     0.001459964488    12.000000000000
         N           -0.663347903925     0.989034229807     0.001585964488    14.003074004430
         C           -1.629534903925    -0.005492770193     0.001747964488    12.000000000000
         C            2.682580096075    -0.762065770193     0.001630964488    12.000000000000
         O            1.460538096075     1.844576229807     0.001642964488    15.994914619570
         O           -2.835895903925     0.206109229807     0.001564964488    15.994914619570
         H           -1.744604903925    -2.033865770193     0.001550964488     1.007825032230
         H           -1.017816903925     1.942332229807     0.001571964488     1.007825032230
         H            0.559742596075    -2.575749570193    -0.198458035512     1.007825032230
         H            3.142608096075    -0.302338770193    -0.877486035512     1.007825032230
         H            3.142583096075    -0.302207770193     0.880691964488     1.007825032230
         H            2.911931096075    -1.831017770193     0.001711964488     1.007825032230

  Basis Set: AUG-CC-PVTZ
    Blend: AUG-CC-PVTZ
  Basis Set: (AUG-CC-PVTZ AUX)
    Blend: AUG-CC-PVTZ-JKFIT
	 Reference Energy          =    -451.6698000308666110 [Eh]
	 Singles Energy            =      -0.0000000000000000 [Eh]
	 Same-Spin Energy          =      -0.4591443554272056 [Eh]
	 Opposite-Spin Energy      =      -1.3851232009024832 [Eh]
	 Correlation Energy        =      -1.8442675563296889 [Eh]
	 Total Energy              =    -453.5140675871962799 [Eh]

	 ================> DF-SCS-MP2 Energies <==================
	-----------------------------------------------------------
	 SCS Same-Spin Scale       =       0.3333333333333333 [-]
	 SCS Opposite-Spin Scale   =       1.2000000000000000 [-]
	 SCS Same-Spin Energy      =      -0.1530481184757352 [Eh]
	 SCS Opposite-Spin Energy  =      -1.6621478410829797 [Eh]
	 SCS Correlation Energy    =      -1.8151959595587148 [Eh]
	 SCS Total Energy          =    -453.4849959904253183 [Eh]
	-----------------------------------------------------------

  Dipole Moment: [D]
     X:     1.0466      Y:    -4.1567      Z:    -0.1266     Total:     4.2883

*** Psi4 exiting successfully. Buy a developer a beer!
