                               Psi4 1.3.2 release

  ==> Input File <==

--------------------------------------------------------------------------
#psi4
#
memory 32 gb

molecule  {
0 1
  N       -1.1265450    -1.2362860     0.0000060
  C        0.2308680    -1.4868800    -0.0000290
  C        1.1512880    -0.4934230    -0.0000150
  C        0.6802440     0.8910390    -0.0001390
  N       -0.7159090     1.0273040    -0.0000130
  C       -1.6820960     0.0327770     0.0001490
  C        2.6300190    -0.7237960     0.0000320
  O        1.4079770     1.8828460     0.0000440
  O       -2.8884570     0.2443790    -0.0000340
  H       -1.7971660    -1.9955960    -0.0000480
  H       -1.0703780     1.9806020    -0.0000270
  H        0.5071841    -2.5374837    -0.0500570
  H        3.0900470    -0.2640690    -0.8790850
  H        3.0900220    -0.2639380     0.8790930
  H        2.8593700    -1.7927480     0.0001130
units angstrom
no_reorient  #important for SAPT in psi4, default
symmetry c1  #important for SAPT in psi4, default
}

set PROPERTIES_ORIGIN ["COM"]
properties('MP2/aug-cc-pvtz', properties = ['dipole'])
--------------------------------------------------------------------------

    Molecular point group: c1
  Charge       = 0
  Multiplicity = 1
  Basis Set: AUG-CC-PVTZ
    Blend: AUG-CC-PVTZ
  Basis Set: (AUG-CC-PVTZ AUX)
    Blend: AUG-CC-PVTZ-JKFIT

    Orbital Energies [Eh]
    ---------------------

    Doubly Occupied:

       1A    -20.544579     2A    -20.543256     3A    -15.640603
       4A    -15.628618     5A    -11.418290     6A    -11.381153
       7A    -11.332156     8A    -11.262909     9A    -11.239553
      10A     -1.427430    11A     -1.392149    12A     -1.305019
      13A     -1.240191    14A     -1.108096    15A     -0.970102
      16A     -0.915351    17A     -0.893466    18A     -0.770822
      19A     -0.765445    20A     -0.707206    21A     -0.674444
      22A     -0.665135    23A     -0.640156    24A     -0.616396
      25A     -0.591535    26A     -0.568638    27A     -0.558101
      28A     -0.551868    29A     -0.511208    30A     -0.479434
      31A     -0.448507    32A     -0.434843    33A     -0.354515

  @DF-RHF Final Energy:  -451.67231782168977

   => Energetics <=

    Nuclear Repulsion Energy =            438.1884832980981059
    One-Electron Energy =               -1484.5592513726821835
    Two-Electron Energy =                 594.6984502528941903
    Total Energy =                       -451.6723178216898305
  Basis Set: (AUG-CC-PVTZ AUX)
    Blend: AUG-CC-PVTZ-RI
    Molecular point group: c1

    Geometry (in Angstrom), charge = 0, multiplicity = 1:

       Center              X                  Y                   Z               Mass
    ------------   -----------------  -----------------  -----------------  -----------------
         N           -1.073983924714    -1.274555739009     0.000405581405    14.003074004430
         C            0.283429075286    -1.525149739009     0.000370581405    12.000000000000
         C            1.203849075286    -0.531692739009     0.000384581405    12.000000000000
         C            0.732805075286     0.852769260991     0.000260581405    12.000000000000
         N           -0.663347924714     0.989034260991     0.000386581405    14.003074004430
         C           -1.629534924714    -0.005492739009     0.000548581405    12.000000000000
         C            2.682580075286    -0.762065739009     0.000431581405    12.000000000000
         O            1.460538075286     1.844576260991     0.000443581405    15.994914619570
         O           -2.835895924714     0.206109260991     0.000365581405    15.994914619570
         H           -1.744604924714    -2.033865739009     0.000351581405     1.007825032230
         H           -1.017816924714     1.942332260991     0.000372581405     1.007825032230
         H            0.559745175286    -2.575753439009    -0.049657418595     1.007825032230
         H            3.142608075286    -0.302338739009    -0.878685418595     1.007825032230
         H            3.142583075286    -0.302207739009     0.879492581405     1.007825032230
         H            2.911931075286    -1.831017739009     0.000512581405     1.007825032230

  Basis Set: AUG-CC-PVTZ
    Blend: AUG-CC-PVTZ
  Basis Set: (AUG-CC-PVTZ AUX)
    Blend: AUG-CC-PVTZ-JKFIT
	 Reference Energy          =    -451.6723178216897736 [Eh]
	 Singles Energy            =      -0.0000000000000000 [Eh]
	 Same-Spin Energy          =      -0.4589758985106490 [Eh]
	 Opposite-Spin Energy      =      -1.3847806811134513 [Eh]
	 Correlation Energy        =      -1.8437565796241002 [Eh]
	 Total Energy              =    -453.5160744013138583 [Eh]

	 ================> DF-SCS-MP2 Energies <==================
	-----------------------------------------------------------
	 SCS Same-Spin Scale       =       0.3333333333333333 [-]
	 SCS Opposite-Spin Scale   =       1.2000000000000000 [-]
	 SCS Same-Spin Energy      =      -0.1529919661702163 [Eh]
	 SCS Opposite-Spin Energy  =      -1.6617368173361415 [Eh]
	 SCS Correlation Energy    =      -1.8147287835063579 [Eh]
	 SCS Total Energy          =    -453.4870466051961557 [Eh]
	-----------------------------------------------------------

  Dipole Moment: [D]
     X:     1.0371      Y:    -4.1856      Z:    -0.0319     Total:     4.3123

*** Psi4 exiting successfully. Buy a developer a beer!
