                               Psi4 1.3.2 release

  ==> Input File <==

--------------------------------------------------------------------------
#psi4
#
memory 32 gb

molecule  {
0 1
  N       -1.1265450    -1.2362860     0.0000060
  C        0.2308680    -1.4868800    -0.0000290
  C        1.1512880    -0.4934230    -0.0000150
  C        0.6802440     0.8910390    -0.0001390
  N       -0.7159090     1.0273040    -0.0000130
  C       -1.6820960     0.0327770     0.0001490
  C        2.6300297    -0.7238096    -0.2499680
  O        1.4079770     1.8828460     0.0000440
  O       -2.8884570     0.2443790    -0.0000340
  H       -1.7971660    -1.9955960    -0.0000480
  H       -1.0703780     1.9806020    -0.0000270
  H        0.5071850    -2.5374850    -0.0000570
  H        3.0900470    -0.2640690    -0.8790850
  H        3.0900220    -0.2639380     0.8790930
  H        2.8593700    -1.7927480     0.0001130
units angstrom
no_reorient  #important for SAPT in psi4, default
symmetry c1  #important for SAPT in psi4, default
}

set PROPERTIES_ORIGIN ["COM"]
properties('MP2/aug-cc-pvtz', properties = ['dipole'])
--------------------------------------------------------------------------

    Molecular point group: c1
  Charge       = 0
  Multiplicity = 1
  Basis Set: AUG-CC-PVTZ
    Blend: AUG-CC-PVTZ
  Basis Set: (AUG-CC-PVTZ AUX)
    Blend: AUG-CC-PVTZ-JKFIT

    Orbital Energies [Eh]
    ---------------------

    Doubly Occupied:

       1A    -20.545211     2A    -20.543735     3A    -15.641623
       4A    -15.629184     5A    -11.418910     6A    -11.381678
       7A    -11.333118     8A    -11.267757     9A    -11.248888
      10A     -1.428051    11A     -1.392562    12A     -1.305815
      13A     -1.240819    14A     -1.108074    15A     -0.975952
      16A     -0.917535    17A     -0.895360    18A     -0.778390
      19A     -0.765563    20A     -0.708172    21A     -0.675428
      22A     -0.666411    23A     -0.650606    24A     -0.633093
      25A     -0.609815    26A     -0.571542    27A     -0.555551
      28A     -0.526835    29A     -0.485219    30A     -0.479513
      31A     -0.448941    32A     -0.435036    33A     -0.350056

  @DF-RHF Final Energy:  -451.60633096332100

   => Energetics <=

    Nuclear Repulsion Energy =            437.9343871638020573
    One-Electron Energy =               -1483.8525498238852833
    Two-Electron Energy =                 594.3118316967622832
    Total Energy =                       -451.6063309633209428
  Basis Set: (AUG-CC-PVTZ AUX)
    Blend: AUG-CC-PVTZ-RI
    Molecular point group: c1

    Geometry (in Angstrom), charge = 0, multiplicity = 1:

       Center              X                  Y                   Z               Mass
    ------------   -----------------  -----------------  -----------------  -----------------
         N           -1.073984950611    -1.274554433817     0.023807201855    14.003074004430
         C            0.283428049389    -1.525148433817     0.023772201855    12.000000000000
         C            1.203848049389    -0.531691433817     0.023786201855    12.000000000000
         C            0.732804049389     0.852770566183     0.023662201855    12.000000000000
         N           -0.663348950611     0.989035566183     0.023788201855    14.003074004430
         C           -1.629535950611    -0.005491433817     0.023950201855    12.000000000000
         C            2.682589749389    -0.762078033817    -0.226166798145    12.000000000000
         O            1.460537049389     1.844577566183     0.023845201855    15.994914619570
         O           -2.835896950611     0.206110566183     0.023767201855    15.994914619570
         H           -1.744605950611    -2.033864433817     0.023753201855     1.007825032230
         H           -1.017817950611     1.942333566183     0.023774201855     1.007825032230
         H            0.559745049389    -2.575753433817     0.023744201855     1.007825032230
         H            3.142607049389    -0.302337433817    -0.855283798145     1.007825032230
         H            3.142582049389    -0.302206433817     0.902894201855     1.007825032230
         H            2.911930049389    -1.831016433817     0.023914201855     1.007825032230

  Basis Set: AUG-CC-PVTZ
    Blend: AUG-CC-PVTZ
  Basis Set: (AUG-CC-PVTZ AUX)
    Blend: AUG-CC-PVTZ-JKFIT
	 Reference Energy          =    -451.6063309633209997 [Eh]
	 Singles Energy            =      -0.0000000000000000 [Eh]
	 Same-Spin Energy          =      -0.4598013443592638 [Eh]
	 Opposite-Spin Energy      =      -1.3877400320166919 [Eh]
	 Correlation Energy        =      -1.8475413763759558 [Eh]
	 Total Energy              =    -453.4538723396969431 [Eh]

	 ================> DF-SCS-MP2 Energies <==================
	-----------------------------------------------------------
	 SCS Same-Spin Scale       =       0.3333333333333333 [-]
	 SCS Opposite-Spin Scale   =       1.2000000000000000 [-]
	 SCS Same-Spin Energy      =      -0.1532671147864212 [Eh]
	 SCS Opposite-Spin Energy  =      -1.6652880384200304 [Eh]
	 SCS Correlation Energy    =      -1.8185551532064517 [Eh]
	 SCS Total Energy          =    -453.4248861165274320 [Eh]
	-----------------------------------------------------------

  Dipole Moment: [D]
     X:     0.9532      Y:    -4.1910      Z:    -0.0836     Total:     4.2988

*** Psi4 exiting successfully. Buy a developer a beer!
