                               Psi4 1.3.2 release

  ==> Input File <==

--------------------------------------------------------------------------
#psi4
#
memory 32 gb

molecule  {
0 1
  N       -1.1265450    -1.2362860     0.0000060
  C        0.2308680    -1.4868800    -0.0000290
  C        1.1512880    -0.4934230    -0.0000150
  C        0.6802440     0.8910390    -0.0001390
  N       -0.7159090     1.0273040    -0.0000130
  C       -1.6820960     0.0327770     0.0001490
  C        2.6300190    -0.7237960     0.0000320
  O        1.4079770     1.8828460     0.0000440
  O       -2.8884584     0.2443801     0.0999660
  H       -1.7971660    -1.9955960    -0.0000480
  H       -1.0703780     1.9806020    -0.0000270
  H        0.5071850    -2.5374850    -0.0000570
  H        3.0900470    -0.2640690    -0.8790850
  H        3.0900220    -0.2639380     0.8790930
  H        2.8593700    -1.7927480     0.0001130
units angstrom
no_reorient  #important for SAPT in psi4, default
symmetry c1  #important for SAPT in psi4, default
}

set PROPERTIES_ORIGIN ["COM"]
properties('MP2/aug-cc-pvtz', properties = ['dipole'])
--------------------------------------------------------------------------

    Molecular point group: c1
  Charge       = 0
  Multiplicity = 1
  Basis Set: AUG-CC-PVTZ
    Blend: AUG-CC-PVTZ
  Basis Set: (AUG-CC-PVTZ AUX)
    Blend: AUG-CC-PVTZ-JKFIT

    Orbital Energies [Eh]
    ---------------------

    Doubly Occupied:

       1A    -20.544433     2A    -20.543420     3A    -15.641025
       4A    -15.629001     5A    -11.418968     6A    -11.381354
       7A    -11.332273     8A    -11.263113     9A    -11.239691
      10A     -1.425923    11A     -1.391780    12A     -1.304519
      13A     -1.240378    14A     -1.108292    15A     -0.970347
      16A     -0.915561    17A     -0.893735    18A     -0.771060
      19A     -0.765443    20A     -0.707568    21A     -0.674369
      22A     -0.664921    23A     -0.639154    24A     -0.616486
      25A     -0.591413    26A     -0.568749    27A     -0.558224
      28A     -0.552005    29A     -0.510750    30A     -0.478965
      31A     -0.448600    32A     -0.434601    33A     -0.354630

  @DF-RHF Final Energy:  -451.67121165418138

   => Energetics <=

    Nuclear Repulsion Energy =            438.0875038811302034
    One-Electron Energy =               -1484.3559281610514518
    Two-Electron Energy =                 594.5972126257397576
    Total Energy =                       -451.6712116541814339
  Basis Set: (AUG-CC-PVTZ AUX)
    Blend: AUG-CC-PVTZ-RI
    Molecular point group: c1

    Geometry (in Angstrom), charge = 0, multiplicity = 1:

       Center              X                  Y                   Z               Mass
    ------------   -----------------  -----------------  -----------------  -----------------
         N           -1.073983754250    -1.274555868205    -0.012684266213    14.003074004430
         C            0.283429245750    -1.525149868205    -0.012719266213    12.000000000000
         C            1.203849245750    -0.531692868205    -0.012705266213    12.000000000000
         C            0.732805245750     0.852769131795    -0.012829266213    12.000000000000
         N           -0.663347754250     0.989034131795    -0.012703266213    14.003074004430
         C           -1.629534754250    -0.005492868205    -0.012541266213    12.000000000000
         C            2.682580245750    -0.762065868205    -0.012658266213    12.000000000000
         O            1.460538245750     1.844576131795    -0.012646266213    15.994914619570
         O           -2.835897154250     0.206110231795     0.087275733787    15.994914619570
         H           -1.744604754250    -2.033865868205    -0.012738266213     1.007825032230
         H           -1.017816754250     1.942332131795    -0.012717266213     1.007825032230
         H            0.559746245750    -2.575754868205    -0.012747266213     1.007825032230
         H            3.142608245750    -0.302338868205    -0.891775266213     1.007825032230
         H            3.142583245750    -0.302207868205     0.866402733787     1.007825032230
         H            2.911931245750    -1.831017868205    -0.012577266213     1.007825032230

  Basis Set: AUG-CC-PVTZ
    Blend: AUG-CC-PVTZ
  Basis Set: (AUG-CC-PVTZ AUX)
    Blend: AUG-CC-PVTZ-JKFIT
	 Reference Energy          =    -451.6712116541813771 [Eh]
	 Singles Energy            =      -0.0000000000000000 [Eh]
	 Same-Spin Energy          =      -0.4590985500237994 [Eh]
	 Opposite-Spin Energy      =      -1.3850490266956990 [Eh]
	 Correlation Energy        =      -1.8441475767194984 [Eh]
	 Total Energy              =    -453.5153592309008559 [Eh]

	 ================> DF-SCS-MP2 Energies <==================
	-----------------------------------------------------------
	 SCS Same-Spin Scale       =       0.3333333333333333 [-]
	 SCS Opposite-Spin Scale   =       1.2000000000000000 [-]
	 SCS Same-Spin Energy      =      -0.1530328500079331 [Eh]
	 SCS Opposite-Spin Energy  =      -1.6620588320348386 [Eh]
	 SCS Correlation Energy    =      -1.8150916820427718 [Eh]
	 SCS Total Energy          =    -453.4863033362241254 [Eh]
	-----------------------------------------------------------

  Dipole Moment: [D]
     X:     1.0582      Y:    -4.1914      Z:    -0.1837     Total:     4.3268

*** Psi4 exiting successfully. Buy a developer a beer!
