                               Psi4 1.3.2 release

  ==> Input File <==

--------------------------------------------------------------------------
#psi4
#
memory 32 gb

molecule  {
0 1
  N       -1.1265450    -1.2362860     0.0000060
  C        0.2308680    -1.4868800    -0.0000290
  C        1.1512880    -0.4934230    -0.0000150
  C        0.6802440     0.8910390    -0.0001390
  N       -0.7159090     1.0273040    -0.0000130
  C       -1.6820960     0.0327770     0.0001490
  C        2.6300211    -0.7237987    -0.0499680
  O        1.4079770     1.8828460     0.0000440
  O       -2.8884570     0.2443790    -0.0000340
  H       -1.7971660    -1.9955960    -0.0000480
  H       -1.0703780     1.9806020    -0.0000270
  H        0.5071850    -2.5374850    -0.0000570
  H        3.0900470    -0.2640690    -0.8790850
  H        3.0900220    -0.2639380     0.8790930
  H        2.8593700    -1.7927480     0.0001130
units angstrom
no_reorient  #important for SAPT in psi4, default
symmetry c1  #important for SAPT in psi4, default
}

set PROPERTIES_ORIGIN ["COM"]
properties('MP2/aug-cc-pvtz', properties = ['dipole'])
--------------------------------------------------------------------------

    Molecular point group: c1
  Charge       = 0
  Multiplicity = 1
  Basis Set: AUG-CC-PVTZ
    Blend: AUG-CC-PVTZ
  Basis Set: (AUG-CC-PVTZ AUX)
    Blend: AUG-CC-PVTZ-JKFIT

    Orbital Energies [Eh]
    ---------------------

    Doubly Occupied:

       1A    -20.544608     2A    -20.543255     3A    -15.640662
       4A    -15.628634     5A    -11.418319     6A    -11.381155
       7A    -11.332113     8A    -11.263067     9A    -11.239917
      10A     -1.427456    11A     -1.392151    12A     -1.305060
      13A     -1.240218    14A     -1.108094    15A     -0.970342
      16A     -0.915498    17A     -0.893544    18A     -0.771123
      19A     -0.765450    20A     -0.707426    21A     -0.674479
      22A     -0.665197    23A     -0.640341    24A     -0.617011
      25A     -0.594412    26A     -0.569102    27A     -0.559564
      28A     -0.547095    29A     -0.510348    30A     -0.479483
      31A     -0.448514    32A     -0.434846    33A     -0.354337

  @DF-RHF Final Energy:  -451.66988951831485

   => Energetics <=

    Nuclear Repulsion Energy =            438.1826914649406604
    One-Electron Energy =               -1484.5395181299209071
    Two-Electron Energy =                 594.6869371466652865
    Total Energy =                       -451.6698895183149034
  Basis Set: (AUG-CC-PVTZ AUX)
    Blend: AUG-CC-PVTZ-RI
    Molecular point group: c1

    Geometry (in Angstrom), charge = 0, multiplicity = 1:

       Center              X                  Y                   Z               Mass
    ------------   -----------------  -----------------  -----------------  -----------------
         N           -1.073984131842    -1.274555471559     0.004766070007    14.003074004430
         C            0.283428868158    -1.525149471559     0.004731070007    12.000000000000
         C            1.203848868158    -0.531692471559     0.004745070007    12.000000000000
         C            0.732804868158     0.852769528441     0.004621070007    12.000000000000
         N           -0.663348131842     0.989034528441     0.004747070007    14.003074004430
         C           -1.629535131842    -0.005492471559     0.004909070007    12.000000000000
         C            2.682581968158    -0.762068171559    -0.045207929993    12.000000000000
         O            1.460537868158     1.844576528441     0.004804070007    15.994914619570
         O           -2.835896131842     0.206109528441     0.004726070007    15.994914619570
         H           -1.744605131842    -2.033865471559     0.004712070007     1.007825032230
         H           -1.017817131842     1.942332528441     0.004733070007     1.007825032230
         H            0.559745868158    -2.575754471559     0.004703070007     1.007825032230
         H            3.142607868158    -0.302338471559    -0.874324929993     1.007825032230
         H            3.142582868158    -0.302207471559     0.883853070007     1.007825032230
         H            2.911930868158    -1.831017471559     0.004873070007     1.007825032230

  Basis Set: AUG-CC-PVTZ
    Blend: AUG-CC-PVTZ
  Basis Set: (AUG-CC-PVTZ AUX)
    Blend: AUG-CC-PVTZ-JKFIT
	 Reference Energy          =    -451.6698895183148466 [Eh]
	 Singles Energy            =      -0.0000000000000000 [Eh]
	 Same-Spin Energy          =      -0.4589971305731722 [Eh]
	 Opposite-Spin Energy      =      -1.3848715627856385 [Eh]
	 Correlation Energy        =      -1.8438686933588107 [Eh]
	 Total Energy              =    -453.5137582116736326 [Eh]

	 ================> DF-SCS-MP2 Energies <==================
	-----------------------------------------------------------
	 SCS Same-Spin Scale       =       0.3333333333333333 [-]
	 SCS Opposite-Spin Scale   =       1.2000000000000000 [-]
	 SCS Same-Spin Energy      =      -0.1529990435243907 [Eh]
	 SCS Opposite-Spin Energy  =      -1.6618458753427661 [Eh]
	 SCS Correlation Energy    =      -1.8148449188671567 [Eh]
	 SCS Total Energy          =    -453.4847344371819986 [Eh]
	-----------------------------------------------------------

  Dipole Moment: [D]
     X:     1.0328      Y:    -4.1879      Z:    -0.0200     Total:     4.3134

*** Psi4 exiting successfully. Buy a developer a beer!
