                               Psi4 1.3.2 release

  ==> Input File <==

--------------------------------------------------------------------------
#psi4
#
memory 32 gb

molecule  {
0 1
  N       -1.1265450    -1.2362860     0.0000060
  C        0.2308680    -1.4868800    -0.0000290
  C        1.1512880    -0.4934230    -0.0000150
  C        0.6802440     0.8910390    -0.0001390
  N       -0.7159090     1.0273040    -0.0000130
  C       -1.6820960     0.0327770     0.0001490
  C        2.6300190    -0.7237960     0.0000320
  O        1.4079805     1.8828506    -0.1999560
  O       -2.8884570     0.2443790    -0.0000340
  H       -1.7971660    -1.9955960    -0.0000480
  H       -1.0703780     1.9806020    -0.0000270
  H        0.5071850    -2.5374850    -0.0000570
  H        3.0900470    -0.2640690    -0.8790850
  H        3.0900220    -0.2639380     0.8790930
  H        2.8593700    -1.7927480     0.0001130
units angstrom
no_reorient  #important for SAPT in psi4, default
symmetry c1  #important for SAPT in psi4, default
}

set PROPERTIES_ORIGIN ["COM"]
properties('MP2/aug-cc-pvtz', properties = ['dipole'])
--------------------------------------------------------------------------

    Molecular point group: c1
  Charge       = 0
  Multiplicity = 1
  Basis Set: AUG-CC-PVTZ
    Blend: AUG-CC-PVTZ
  Basis Set: (AUG-CC-PVTZ AUX)
    Blend: AUG-CC-PVTZ-JKFIT

    Orbital Energies [Eh]
    ---------------------

    Doubly Occupied:

       1A    -20.545265     2A    -20.543117     3A    -15.641420
       4A    -15.630145     5A    -11.419121     6A    -11.383884
       7A    -11.332848     8A    -11.264218     9A    -11.239735
      10A     -1.427316    11A     -1.383821    12A     -1.305093
      13A     -1.240309    14A     -1.108727    15A     -0.970576
      16A     -0.916414    17A     -0.894421    18A     -0.771536
      19A     -0.765037    20A     -0.708135    21A     -0.673395
      22A     -0.665269    23A     -0.639962    24A     -0.614006
      25A     -0.591112    26A     -0.568478    27A     -0.555561
      28A     -0.551149    29A     -0.511650    30A     -0.479623
      31A     -0.448222    32A     -0.433461    33A     -0.354732

  @DF-RHF Final Energy:  -451.66751654423865

   => Energetics <=

    Nuclear Repulsion Energy =            437.7669238503597740
    One-Electron Energy =               -1483.7133677390784214
    Two-Electron Energy =                 594.2789273444800529
    Total Energy =                       -451.6675165442386515
  Basis Set: (AUG-CC-PVTZ AUX)
    Blend: AUG-CC-PVTZ-RI
    Molecular point group: c1

    Geometry (in Angstrom), charge = 0, multiplicity = 1:

       Center              X                  Y                   Z               Mass
    ------------   -----------------  -----------------  -----------------  -----------------
         N           -1.073984376062    -1.274556312357     0.025385893559    14.003074004430
         C            0.283428623938    -1.525150312357     0.025350893559    12.000000000000
         C            1.203848623938    -0.531693312357     0.025364893559    12.000000000000
         C            0.732804623938     0.852768687643     0.025240893559    12.000000000000
         N           -0.663348376062     0.989033687643     0.025366893559    14.003074004430
         C           -1.629535376062    -0.005493312357     0.025528893559    12.000000000000
         C            2.682579623938    -0.762066312357     0.025411893559    12.000000000000
         O            1.460541123938     1.844580287643    -0.174576106441    15.994914619570
         O           -2.835896376062     0.206108687643     0.025345893559    15.994914619570
         H           -1.744605376062    -2.033866312357     0.025331893559     1.007825032230
         H           -1.017817376062     1.942331687643     0.025352893559     1.007825032230
         H            0.559745623938    -2.575755312357     0.025322893559     1.007825032230
         H            3.142607623938    -0.302339312357    -0.853705106441     1.007825032230
         H            3.142582623938    -0.302208312357     0.904472893559     1.007825032230
         H            2.911930623938    -1.831018312357     0.025492893559     1.007825032230

  Basis Set: AUG-CC-PVTZ
    Blend: AUG-CC-PVTZ
  Basis Set: (AUG-CC-PVTZ AUX)
    Blend: AUG-CC-PVTZ-JKFIT
	 Reference Energy          =    -451.6675165442386515 [Eh]
	 Singles Energy            =      -0.0000000000000000 [Eh]
	 Same-Spin Energy          =      -0.4595098777914816 [Eh]
	 Opposite-Spin Energy      =      -1.3859644263340885 [Eh]
	 Correlation Energy        =      -1.8454743041255701 [Eh]
	 Total Energy              =    -453.5129908483642112 [Eh]

	 ================> DF-SCS-MP2 Energies <==================
	-----------------------------------------------------------
	 SCS Same-Spin Scale       =       0.3333333333333333 [-]
	 SCS Opposite-Spin Scale   =       1.2000000000000000 [-]
	 SCS Same-Spin Energy      =      -0.1531699592638272 [Eh]
	 SCS Opposite-Spin Energy  =      -1.6631573116009062 [Eh]
	 SCS Correlation Energy    =      -1.8163272708647333 [Eh]
	 SCS Total Energy          =    -453.4838438151033984 [Eh]
	-----------------------------------------------------------

  Dipole Moment: [D]
     X:     1.0020      Y:    -4.2266      Z:     0.3424     Total:     4.3572

*** Psi4 exiting successfully. Buy a developer a beer!
