                               Psi4 1.3.2 release

  ==> Input File <==

--------------------------------------------------------------------------
#psi4
#
memory 32 gb

molecule  {
0 1
  N       -1.1265450    -1.2362860     0.0000060
  C        0.2308680    -1.4868800    -0.0000290
  C        1.1512880    -0.4934230    -0.0000150
  C        0.6802440     0.8910390    -0.0001390
  N       -0.7159090     1.0273040    -0.0000130
  C       -1.6820960     0.0327770     0.0001490
  C        2.6300190    -0.7237960     0.0000320
  O        1.4079770     1.8828460     0.0000440
  O       -2.8884570     0.2443790    -0.0000340
  H       -1.7971652    -1.9956009     0.0499520
  H       -1.0703780     1.9806020    -0.0000270
  H        0.5071850    -2.5374850    -0.0000570
  H        3.0900470    -0.2640690    -0.8790850
  H        3.0900220    -0.2639380     0.8790930
  H        2.8593700    -1.7927480     0.0001130
units angstrom
no_reorient  #important for SAPT in psi4, default
symmetry c1  #important for SAPT in psi4, default
}

set PROPERTIES_ORIGIN ["COM"]
properties('MP2/aug-cc-pvtz', properties = ['dipole'])
--------------------------------------------------------------------------

    Molecular point group: c1
  Charge       = 0
  Multiplicity = 1
  Basis Set: AUG-CC-PVTZ
    Blend: AUG-CC-PVTZ
  Basis Set: (AUG-CC-PVTZ AUX)
    Blend: AUG-CC-PVTZ-JKFIT

    Orbital Energies [Eh]
    ---------------------

    Doubly Occupied:

       1A    -20.544592     2A    -20.543253     3A    -15.640673
       4A    -15.628611     5A    -11.418284     6A    -11.381144
       7A    -11.332036     8A    -11.262877     9A    -11.239544
      10A     -1.427417    11A     -1.392144    12A     -1.304965
      13A     -1.240136    14A     -1.108066    15A     -0.970116
      16A     -0.915412    17A     -0.893304    18A     -0.770673
      19A     -0.765392    20A     -0.707353    21A     -0.674572
      22A     -0.664934    23A     -0.640198    24A     -0.616441
      25A     -0.591520    26A     -0.568625    27A     -0.558091
      28A     -0.551841    29A     -0.511205    30A     -0.479464
      31A     -0.448508    32A     -0.434837    33A     -0.354534

  @DF-RHF Final Energy:  -451.67237777225819

   => Energetics <=

    Nuclear Repulsion Energy =            438.1870183611723064
    One-Electron Energy =               -1484.5572740619145407
    Two-Electron Energy =                 594.6978779284841039
    Total Energy =                       -451.6723777722581872
  Basis Set: (AUG-CC-PVTZ AUX)
    Blend: AUG-CC-PVTZ-RI
    Molecular point group: c1

    Geometry (in Angstrom), charge = 0, multiplicity = 1:

       Center              X                  Y                   Z               Mass
    ------------   -----------------  -----------------  -----------------  -----------------
         N           -1.073983938307    -1.274555689434    -0.000394007316    14.003074004430
         C            0.283429061693    -1.525149689434    -0.000429007316    12.000000000000
         C            1.203849061693    -0.531692689434    -0.000415007316    12.000000000000
         C            0.732805061693     0.852769310566    -0.000539007316    12.000000000000
         N           -0.663347938307     0.989034310566    -0.000413007316    14.003074004430
         C           -1.629534938307    -0.005492689434    -0.000251007316    12.000000000000
         C            2.682580061693    -0.762065689434    -0.000368007316    12.000000000000
         O            1.460538061693     1.844576310566    -0.000356007316    15.994914619570
         O           -2.835895938307     0.206109310566    -0.000434007316    15.994914619570
         H           -1.744604138307    -2.033870589434     0.049551992684     1.007825032230
         H           -1.017816938307     1.942332310566    -0.000427007316     1.007825032230
         H            0.559746061693    -2.575754689434    -0.000457007316     1.007825032230
         H            3.142608061693    -0.302338689434    -0.879485007316     1.007825032230
         H            3.142583061693    -0.302207689434     0.878692992684     1.007825032230
         H            2.911931061693    -1.831017689434    -0.000287007316     1.007825032230

  Basis Set: AUG-CC-PVTZ
    Blend: AUG-CC-PVTZ
  Basis Set: (AUG-CC-PVTZ AUX)
    Blend: AUG-CC-PVTZ-JKFIT
	 Reference Energy          =    -451.6723777722581872 [Eh]
	 Singles Energy            =      -0.0000000000000000 [Eh]
	 Same-Spin Energy          =      -0.4589722205166565 [Eh]
	 Opposite-Spin Energy      =      -1.3847796970130812 [Eh]
	 Correlation Energy        =      -1.8437519175297377 [Eh]
	 Total Energy              =    -453.5161296897879311 [Eh]

	 ================> DF-SCS-MP2 Energies <==================
	-----------------------------------------------------------
	 SCS Same-Spin Scale       =       0.3333333333333333 [-]
	 SCS Opposite-Spin Scale   =       1.2000000000000000 [-]
	 SCS Same-Spin Energy      =      -0.1529907401722188 [Eh]
	 SCS Opposite-Spin Energy  =      -1.6617356364156974 [Eh]
	 SCS Correlation Energy    =      -1.8147263765879162 [Eh]
	 SCS Total Energy          =    -453.4871041488461287 [Eh]
	-----------------------------------------------------------

  Dipole Moment: [D]
     X:     1.0371      Y:    -4.1859      Z:     0.0702     Total:     4.3131

*** Psi4 exiting successfully. Buy a developer a beer!
