                               Psi4 1.3.2 release

  ==> Input File <==

--------------------------------------------------------------------------
#psi4
#
memory 32 gb

molecule  {
0 1
  N       -1.1265450    -1.2362860     0.0000060
  C        0.2308680    -1.4868800    -0.0000290
  C        1.1512880    -0.4934230    -0.0000150
  C        0.6802440     0.8910390    -0.0001390
  N       -0.7159090     1.0273040    -0.0000130
  C       -1.6820960     0.0327770     0.0001490
  C        2.6300190    -0.7237960     0.0000320
  O        1.4079796     1.8828494    -0.1499560
  O       -2.8884570     0.2443790    -0.0000340
  H       -1.7971660    -1.9955960    -0.0000480
  H       -1.0703780     1.9806020    -0.0000270
  H        0.5071850    -2.5374850    -0.0000570
  H        3.0900470    -0.2640690    -0.8790850
  H        3.0900220    -0.2639380     0.8790930
  H        2.8593700    -1.7927480     0.0001130
units angstrom
no_reorient  #important for SAPT in psi4, default
symmetry c1  #important for SAPT in psi4, default
}

set PROPERTIES_ORIGIN ["COM"]
properties('MP2/aug-cc-pvtz', properties = ['dipole'])
--------------------------------------------------------------------------

    Molecular point group: c1
  Charge       = 0
  Multiplicity = 1
  Basis Set: AUG-CC-PVTZ
    Blend: AUG-CC-PVTZ
  Basis Set: (AUG-CC-PVTZ AUX)
    Blend: AUG-CC-PVTZ-JKFIT

    Orbital Energies [Eh]
    ---------------------

    Doubly Occupied:

       1A    -20.544969     2A    -20.543172     3A    -15.641071
       4A    -15.629479     5A    -11.418762     6A    -11.382698
       7A    -11.332509     8A    -11.263634     9A    -11.239650
      10A     -1.427316    11A     -1.387437    12A     -1.305081
      13A     -1.240271    14A     -1.108453    15A     -0.970382
      16A     -0.915979    17A     -0.894006    18A     -0.771227
      19A     -0.765206    20A     -0.707811    21A     -0.673824
      22A     -0.665208    23A     -0.640060    24A     -0.615112
      25A     -0.591274    26A     -0.568532    27A     -0.556617
      28A     -0.551509    29A     -0.511470    30A     -0.479556
      31A     -0.448357    32A     -0.434064    33A     -0.354637

  @DF-RHF Final Energy:  -451.66974192805077

   => Energetics <=

    Nuclear Repulsion Energy =            437.9520402535507060
    One-Electron Energy =               -1484.0848988671166353
    Two-Electron Energy =                 594.4631166855151605
    Total Energy =                       -451.6697419280508257
  Basis Set: (AUG-CC-PVTZ AUX)
    Blend: AUG-CC-PVTZ-RI
    Molecular point group: c1

    Geometry (in Angstrom), charge = 0, multiplicity = 1:

       Center              X                  Y                   Z               Mass
    ------------   -----------------  -----------------  -----------------  -----------------
         N           -1.073984261852    -1.274556160076     0.019040866931    14.003074004430
         C            0.283428738148    -1.525150160076     0.019005866931    12.000000000000
         C            1.203848738148    -0.531693160076     0.019019866931    12.000000000000
         C            0.732804738148     0.852768839924     0.018895866931    12.000000000000
         N           -0.663348261852     0.989033839924     0.019021866931    14.003074004430
         C           -1.629535261852    -0.005493160076     0.019183866931    12.000000000000
         C            2.682579738148    -0.762066160076     0.019066866931    12.000000000000
         O            1.460540338148     1.844579239924    -0.130921133069    15.994914619570
         O           -2.835896261852     0.206108839924     0.019000866931    15.994914619570
         H           -1.744605261852    -2.033866160076     0.018986866931     1.007825032230
         H           -1.017817261852     1.942331839924     0.019007866931     1.007825032230
         H            0.559745738148    -2.575755160076     0.018977866931     1.007825032230
         H            3.142607738148    -0.302339160076    -0.860050133069     1.007825032230
         H            3.142582738148    -0.302208160076     0.898127866931     1.007825032230
         H            2.911930738148    -1.831018160076     0.019147866931     1.007825032230

  Basis Set: AUG-CC-PVTZ
    Blend: AUG-CC-PVTZ
  Basis Set: (AUG-CC-PVTZ AUX)
    Blend: AUG-CC-PVTZ-JKFIT
	 Reference Energy          =    -451.6697419280507688 [Eh]
	 Singles Energy            =      -0.0000000000000000 [Eh]
	 Same-Spin Energy          =      -0.4592721458695286 [Eh]
	 Opposite-Spin Energy      =      -1.3854342082198854 [Eh]
	 Correlation Energy        =      -1.8447063540894140 [Eh]
	 Total Energy              =    -453.5144482821401652 [Eh]

	 ================> DF-SCS-MP2 Energies <==================
	-----------------------------------------------------------
	 SCS Same-Spin Scale       =       0.3333333333333333 [-]
	 SCS Opposite-Spin Scale   =       1.2000000000000000 [-]
	 SCS Same-Spin Energy      =      -0.1530907152898429 [Eh]
	 SCS Opposite-Spin Energy  =      -1.6625210498638625 [Eh]
	 SCS Correlation Energy    =      -1.8156117651537054 [Eh]
	 SCS Total Energy          =    -453.4853536932045017 [Eh]
	-----------------------------------------------------------

  Dipole Moment: [D]
     X:     1.0168      Y:    -4.2098      Z:     0.2566     Total:     4.3384

*** Psi4 exiting successfully. Buy a developer a beer!
