                               Psi4 1.3.2 release

  ==> Input File <==

--------------------------------------------------------------------------
#psi4
#
memory 32 gb

molecule  {
0 1
  N       -1.1265450    -1.2362860     0.0000060
  C        0.2308680    -1.4868800    -0.0000290
  C        1.1512880    -0.4934230    -0.0000150
  C        0.6802440     0.8910390    -0.0001390
  N       -0.7159090     1.0273040    -0.0000130
  C       -1.6820960     0.0327770     0.0001490
  C        2.6300190    -0.7237960     0.0000320
  O        1.4079770     1.8828460     0.0000440
  O       -2.8884570     0.2443790    -0.0000340
  H       -1.7971660    -1.9955960    -0.0000480
  H       -1.0704082     1.9805844    -0.3000270
  H        0.5071850    -2.5374850    -0.0000570
  H        3.0900470    -0.2640690    -0.8790850
  H        3.0900220    -0.2639380     0.8790930
  H        2.8593700    -1.7927480     0.0001130
units angstrom
no_reorient  #important for SAPT in psi4, default
symmetry c1  #important for SAPT in psi4, default
}

set PROPERTIES_ORIGIN ["COM"]
properties('MP2/aug-cc-pvtz', properties = ['dipole'])
--------------------------------------------------------------------------

    Molecular point group: c1
  Charge       = 0
  Multiplicity = 1
  Basis Set: AUG-CC-PVTZ
    Blend: AUG-CC-PVTZ
  Basis Set: (AUG-CC-PVTZ AUX)
    Blend: AUG-CC-PVTZ-JKFIT

    Orbital Energies [Eh]
    ---------------------

    Doubly Occupied:

       1A    -20.544779     2A    -20.543485     3A    -15.640423
       4A    -15.630497     5A    -11.417831     6A    -11.380610
       7A    -11.332071     8A    -11.262658     9A    -11.239405
      10A     -1.426754    11A     -1.391890    12A     -1.304779
      13A     -1.236231    14A     -1.107798    15A     -0.969935
      16A     -0.911964    17A     -0.891659    18A     -0.767575
      19A     -0.764713    20A     -0.702702    21A     -0.674843
      22A     -0.660596    23A     -0.639897    24A     -0.615251
      25A     -0.591431    26A     -0.568603    27A     -0.557667
      28A     -0.550275    29A     -0.510839    30A     -0.479322
      31A     -0.448524    32A     -0.434632    33A     -0.354361

  @DF-RHF Final Energy:  -451.66679455843854

   => Energetics <=

    Nuclear Repulsion Energy =            437.9734065111172754
    One-Electron Energy =               -1484.1724024605073282
    Two-Electron Energy =                 594.5322013909516272
    Total Energy =                       -451.6667945584384825
  Basis Set: (AUG-CC-PVTZ AUX)
    Blend: AUG-CC-PVTZ-RI
    Molecular point group: c1

    Geometry (in Angstrom), charge = 0, multiplicity = 1:

       Center              X                  Y                   Z               Mass
    ------------   -----------------  -----------------  -----------------  -----------------
         N           -1.073983690434    -1.274555587886     0.002404553209    14.003074004430
         C            0.283429309566    -1.525149587886     0.002369553209    12.000000000000
         C            1.203849309566    -0.531692587886     0.002383553209    12.000000000000
         C            0.732805309566     0.852769412114     0.002259553209    12.000000000000
         N           -0.663347690434     0.989034412114     0.002385553209    14.003074004430
         C           -1.629534690434    -0.005492587886     0.002547553209    12.000000000000
         C            2.682580309566    -0.762065587886     0.002430553209    12.000000000000
         O            1.460538309566     1.844576412114     0.002442553209    15.994914619570
         O           -2.835895690434     0.206109412114     0.002364553209    15.994914619570
         H           -1.744604690434    -2.033865587886     0.002350553209     1.007825032230
         H           -1.017846890434     1.942314812114    -0.297628446791     1.007825032230
         H            0.559746309566    -2.575754587886     0.002341553209     1.007825032230
         H            3.142608309566    -0.302338587886    -0.876686446791     1.007825032230
         H            3.142583309566    -0.302207587886     0.881491553209     1.007825032230
         H            2.911931309566    -1.831017587886     0.002511553209     1.007825032230

  Basis Set: AUG-CC-PVTZ
    Blend: AUG-CC-PVTZ
  Basis Set: (AUG-CC-PVTZ AUX)
    Blend: AUG-CC-PVTZ-JKFIT
	 Reference Energy          =    -451.6667945584385393 [Eh]
	 Singles Energy            =      -0.0000000000000000 [Eh]
	 Same-Spin Energy          =      -0.4593647267207265 [Eh]
	 Opposite-Spin Energy      =      -1.3856869071004099 [Eh]
	 Correlation Energy        =      -1.8450516338211365 [Eh]
	 Total Energy              =    -453.5118461922596680 [Eh]

	 ================> DF-SCS-MP2 Energies <==================
	-----------------------------------------------------------
	 SCS Same-Spin Scale       =       0.3333333333333333 [-]
	 SCS Opposite-Spin Scale   =       1.2000000000000000 [-]
	 SCS Same-Spin Energy      =      -0.1531215755735755 [Eh]
	 SCS Opposite-Spin Energy  =      -1.6628242885204918 [Eh]
	 SCS Correlation Energy    =      -1.8159458640940673 [Eh]
	 SCS Total Energy          =    -453.4827404225326291 [Eh]
	-----------------------------------------------------------

  Dipole Moment: [D]
     X:     1.0410      Y:    -4.2030      Z:    -0.3897     Total:     4.3474

*** Psi4 exiting successfully. Buy a developer a beer!
