                               Psi4 1.3.2 release

  ==> Input File <==

--------------------------------------------------------------------------
#psi4
#
memory 32 gb

molecule  {
0 1
  N       -1.1265450    -1.2362860     0.0000060
  C        0.2308680    -1.4868800    -0.0000290
  C        1.1512880    -0.4934230    -0.0000150
  C        0.6802440     0.8910390    -0.0001390
  N       -0.7159090     1.0273040    -0.0000130
  C       -1.6820960     0.0327770     0.0001490
  C        2.6300190    -0.7237960     0.0000320
  O        1.4079770     1.8828460     0.0000440
  O       -2.8884611     0.2443823     0.2999660
  H       -1.7971660    -1.9955960    -0.0000480
  H       -1.0703780     1.9806020    -0.0000270
  H        0.5071850    -2.5374850    -0.0000570
  H        3.0900470    -0.2640690    -0.8790850
  H        3.0900220    -0.2639380     0.8790930
  H        2.8593700    -1.7927480     0.0001130
units angstrom
no_reorient  #important for SAPT in psi4, default
symmetry c1  #important for SAPT in psi4, default
}

set PROPERTIES_ORIGIN ["COM"]
properties('MP2/aug-cc-pvtz', properties = ['dipole'])
--------------------------------------------------------------------------

    Molecular point group: c1
  Charge       = 0
  Multiplicity = 1
  Basis Set: AUG-CC-PVTZ
    Blend: AUG-CC-PVTZ
  Basis Set: (AUG-CC-PVTZ AUX)
    Blend: AUG-CC-PVTZ-JKFIT

    Orbital Energies [Eh]
    ---------------------

    Doubly Occupied:

       1A    -20.544851     2A    -20.543233     3A    -15.644153
       4A    -15.632025     5A    -11.423969     6A    -11.383052
       7A    -11.333837     8A    -11.265054     9A    -11.240866
      10A     -1.417107    11A     -1.387467    12A     -1.299540
      13A     -1.241753    14A     -1.109822    15A     -0.972042
      16A     -0.916711    17A     -0.895828    18A     -0.772933
      19A     -0.765486    20A     -0.708984    21A     -0.674130
      22A     -0.663537    23A     -0.630491    24A     -0.616693
      25A     -0.590673    26A     -0.569699    27A     -0.559171
      28A     -0.553119    29A     -0.507038    30A     -0.475166
      31A     -0.449157    32A     -0.432618    33A     -0.355558

  @DF-RHF Final Energy:  -451.66018286221720

   => Energetics <=

    Nuclear Repulsion Energy =            437.2672106011791584
    One-Electron Energy =               -1482.7032622831015942
    Two-Electron Energy =                 593.7758688197052379
    Total Energy =                       -451.6601828622171979
  Basis Set: (AUG-CC-PVTZ AUX)
    Blend: AUG-CC-PVTZ-RI
    Molecular point group: c1

    Geometry (in Angstrom), charge = 0, multiplicity = 1:

       Center              X                  Y                   Z               Mass
    ------------   -----------------  -----------------  -----------------  -----------------
         N           -1.073983411618    -1.274556147386    -0.038064372728    14.003074004430
         C            0.283429588382    -1.525150147386    -0.038099372728    12.000000000000
         C            1.203849588382    -0.531693147386    -0.038085372728    12.000000000000
         C            0.732805588382     0.852768852614    -0.038209372728    12.000000000000
         N           -0.663347411618     0.989033852614    -0.038083372728    14.003074004430
         C           -1.629534411618    -0.005493147386    -0.037921372728    12.000000000000
         C            2.682580588382    -0.762066147386    -0.038038372728    12.000000000000
         O            1.460538588382     1.844575852614    -0.038026372728    15.994914619570
         O           -2.835899511618     0.206112152614     0.261895627272    15.994914619570
         H           -1.744604411618    -2.033866147386    -0.038118372728     1.007825032230
         H           -1.017816411618     1.942331852614    -0.038097372728     1.007825032230
         H            0.559746588382    -2.575755147386    -0.038127372728     1.007825032230
         H            3.142608588382    -0.302339147386    -0.917155372728     1.007825032230
         H            3.142583588382    -0.302208147386     0.841022627272     1.007825032230
         H            2.911931588382    -1.831018147386    -0.037957372728     1.007825032230

  Basis Set: AUG-CC-PVTZ
    Blend: AUG-CC-PVTZ
  Basis Set: (AUG-CC-PVTZ AUX)
    Blend: AUG-CC-PVTZ-JKFIT
	 Reference Energy          =    -451.6601828622171979 [Eh]
	 Singles Energy            =      -0.0000000000000000 [Eh]
	 Same-Spin Energy          =      -0.4601347901766448 [Eh]
	 Opposite-Spin Energy      =      -1.3873582531063562 [Eh]
	 Correlation Energy        =      -1.8474930432830010 [Eh]
	 Total Energy              =    -453.5076759055002071 [Eh]

	 ================> DF-SCS-MP2 Energies <==================
	-----------------------------------------------------------
	 SCS Same-Spin Scale       =       0.3333333333333333 [-]
	 SCS Opposite-Spin Scale   =       1.2000000000000000 [-]
	 SCS Same-Spin Energy      =      -0.1533782633922149 [Eh]
	 SCS Opposite-Spin Energy  =      -1.6648299037276273 [Eh]
	 SCS Correlation Energy    =      -1.8182081671198422 [Eh]
	 SCS Total Energy          =    -453.4783910293370468 [Eh]
	-----------------------------------------------------------

  Dipole Moment: [D]
     X:     1.2274      Y:    -4.2215      Z:    -0.5559     Total:     4.4314

*** Psi4 exiting successfully. Buy a developer a beer!
