                               Psi4 1.3.2 release

  ==> Input File <==

--------------------------------------------------------------------------
#psi4
#
memory 32 gb

molecule  {
0 1
  N       -1.1265450    -1.2362860     0.0000060
  C        0.2308680    -1.4868800    -0.0000290
  C        1.1512880    -0.4934230    -0.0000150
  C        0.6802440     0.8910390    -0.0001390
  N       -0.7159090     1.0273040    -0.0000130
  C       -1.6820960     0.0327770     0.0001490
  C        2.6300190    -0.7237960     0.0000320
  O        1.4079814     1.8828517    -0.2499560
  O       -2.8884570     0.2443790    -0.0000340
  H       -1.7971660    -1.9955960    -0.0000480
  H       -1.0703780     1.9806020    -0.0000270
  H        0.5071850    -2.5374850    -0.0000570
  H        3.0900470    -0.2640690    -0.8790850
  H        3.0900220    -0.2639380     0.8790930
  H        2.8593700    -1.7927480     0.0001130
units angstrom
no_reorient  #important for SAPT in psi4, default
symmetry c1  #important for SAPT in psi4, default
}

set PROPERTIES_ORIGIN ["COM"]
properties('MP2/aug-cc-pvtz', properties = ['dipole'])
--------------------------------------------------------------------------

    Molecular point group: c1
  Charge       = 0
  Multiplicity = 1
  Basis Set: AUG-CC-PVTZ
    Blend: AUG-CC-PVTZ
  Basis Set: (AUG-CC-PVTZ AUX)
    Blend: AUG-CC-PVTZ-JKFIT

    Orbital Energies [Eh]
    ---------------------

    Doubly Occupied:

       1A    -20.545642     2A    -20.543037     3A    -15.641866
       4A    -15.630990     5A    -11.419574     6A    -11.385366
       7A    -11.333282     8A    -11.264951     9A    -11.239841
      10A     -1.427393    11A     -1.379265    12A     -1.305067
      13A     -1.240328    14A     -1.109073    15A     -0.970822
      16A     -0.916971    17A     -0.894948    18A     -0.771929
      19A     -0.764841    20A     -0.708549    21A     -0.672910
      22A     -0.665364    23A     -0.639851    24A     -0.612527
      25A     -0.590939    26A     -0.568421    27A     -0.554403
      28A     -0.550520    29A     -0.511872    30A     -0.479708
      31A     -0.448016    32A     -0.432682    33A     -0.354849

  @DF-RHF Final Energy:  -451.66454563224619

   => Energetics <=

    Nuclear Repulsion Energy =            437.5321061131717215
    One-Electron Energy =               -1483.2417111741956433
    Two-Electron Energy =                 594.0450594287777903
    Total Energy =                       -451.6645456322461314
  Basis Set: (AUG-CC-PVTZ AUX)
    Blend: AUG-CC-PVTZ-RI
    Molecular point group: c1

    Geometry (in Angstrom), charge = 0, multiplicity = 1:

       Center              X                  Y                   Z               Mass
    ------------   -----------------  -----------------  -----------------  -----------------
         N           -1.073984490273    -1.274556451947     0.031730920188    14.003074004430
         C            0.283428509727    -1.525150451947     0.031695920188    12.000000000000
         C            1.203848509727    -0.531693451947     0.031709920188    12.000000000000
         C            0.732804509727     0.852768548053     0.031585920188    12.000000000000
         N           -0.663348490273     0.989033548053     0.031711920188    14.003074004430
         C           -1.629535490273    -0.005493451947     0.031873920188    12.000000000000
         C            2.682579509727    -0.762066451947     0.031756920188    12.000000000000
         O            1.460541909727     1.844581248053    -0.218231079812    15.994914619570
         O           -2.835896490273     0.206108548053     0.031690920188    15.994914619570
         H           -1.744605490273    -2.033866451947     0.031676920188     1.007825032230
         H           -1.017817490273     1.942331548053     0.031697920188     1.007825032230
         H            0.559745509727    -2.575755451947     0.031667920188     1.007825032230
         H            3.142607509727    -0.302339451947    -0.847360079812     1.007825032230
         H            3.142582509727    -0.302208451947     0.910817920188     1.007825032230
         H            2.911930509727    -1.831018451947     0.031837920188     1.007825032230

  Basis Set: AUG-CC-PVTZ
    Blend: AUG-CC-PVTZ
  Basis Set: (AUG-CC-PVTZ AUX)
    Blend: AUG-CC-PVTZ-JKFIT
	 Reference Energy          =    -451.6645456322461882 [Eh]
	 Singles Energy            =      -0.0000000000000000 [Eh]
	 Same-Spin Energy          =      -0.4598129727433418 [Eh]
	 Opposite-Spin Energy      =      -1.3866485213399122 [Eh]
	 Correlation Energy        =      -1.8464614940832540 [Eh]
	 Total Energy              =    -453.5110071263294458 [Eh]

	 ================> DF-SCS-MP2 Energies <==================
	-----------------------------------------------------------
	 SCS Same-Spin Scale       =       0.3333333333333333 [-]
	 SCS Opposite-Spin Scale   =       1.2000000000000000 [-]
	 SCS Same-Spin Energy      =      -0.1532709909144472 [Eh]
	 SCS Opposite-Spin Energy  =      -1.6639782256078945 [Eh]
	 SCS Correlation Energy    =      -1.8172492165223417 [Eh]
	 SCS Total Energy          =    -453.4817948487685157 [Eh]
	-----------------------------------------------------------

  Dipole Moment: [D]
     X:     0.9834      Y:    -4.2476      Z:     0.4283     Total:     4.3809

*** Psi4 exiting successfully. Buy a developer a beer!
