                               Psi4 1.3.2 release

  ==> Input File <==

--------------------------------------------------------------------------
#psi4
#
memory 32 gb

molecule  {
0 1
  N       -1.1265450    -1.2362860     0.0000060
  C        0.2308680    -1.4868800    -0.0000290
  C        1.1512880    -0.4934230    -0.0000150
  C        0.6802440     0.8910390    -0.0001390
  N       -0.7159090     1.0273040    -0.0000130
  C       -1.6820960     0.0327770     0.0001490
  C        2.6300190    -0.7237960     0.0000320
  O        1.4079770     1.8828460     0.0000440
  O       -2.8884597     0.2443812     0.1999660
  H       -1.7971660    -1.9955960    -0.0000480
  H       -1.0703780     1.9806020    -0.0000270
  H        0.5071850    -2.5374850    -0.0000570
  H        3.0900470    -0.2640690    -0.8790850
  H        3.0900220    -0.2639380     0.8790930
  H        2.8593700    -1.7927480     0.0001130
units angstrom
no_reorient  #important for SAPT in psi4, default
symmetry c1  #important for SAPT in psi4, default
}

set PROPERTIES_ORIGIN ["COM"]
properties('MP2/aug-cc-pvtz', properties = ['dipole'])
--------------------------------------------------------------------------

    Molecular point group: c1
  Charge       = 0
  Multiplicity = 1
  Basis Set: AUG-CC-PVTZ
    Blend: AUG-CC-PVTZ
  Basis Set: (AUG-CC-PVTZ AUX)
    Blend: AUG-CC-PVTZ-JKFIT

    Orbital Energies [Eh]
    ---------------------

    Doubly Occupied:

       1A    -20.543982     2A    -20.543968     3A    -15.642220
       4A    -15.630158     5A    -11.420926     6A    -11.382007
       7A    -11.332874     8A    -11.263850     9A    -11.240138
      10A     -1.421940    11A     -1.390464    12A     -1.302840
      13A     -1.240918    14A     -1.108876    15A     -0.970991
      16A     -0.915993    17A     -0.894535    18A     -0.771764
      19A     -0.765443    20A     -0.708097    21A     -0.674206
      22A     -0.664320    23A     -0.635946    24A     -0.616546
      25A     -0.591104    26A     -0.569130    27A     -0.558581
      28A     -0.552428    29A     -0.509327    30A     -0.477494
      31A     -0.448869    32A     -0.433878    33A     -0.354986

  @DF-RHF Final Energy:  -451.66724435888267

   => Energetics <=

    Nuclear Repulsion Energy =            437.7745281866659184
    One-Electron Energy =               -1483.7259537632905904
    Two-Electron Energy =                 594.2841812177418888
    Total Energy =                       -451.6672443588827264
  Basis Set: (AUG-CC-PVTZ AUX)
    Blend: AUG-CC-PVTZ-RI
    Molecular point group: c1

    Geometry (in Angstrom), charge = 0, multiplicity = 1:

       Center              X                  Y                   Z               Mass
    ------------   -----------------  -----------------  -----------------  -----------------
         N           -1.073983589279    -1.274556007795    -0.025374319471    14.003074004430
         C            0.283429410721    -1.525150007795    -0.025409319471    12.000000000000
         C            1.203849410721    -0.531693007795    -0.025395319471    12.000000000000
         C            0.732805410721     0.852768992205    -0.025519319471    12.000000000000
         N           -0.663347589279     0.989033992205    -0.025393319471    14.003074004430
         C           -1.629534589279    -0.005493007795    -0.025231319471    12.000000000000
         C            2.682580410721    -0.762066007795    -0.025348319471    12.000000000000
         O            1.460538410721     1.844575992205    -0.025336319471    15.994914619570
         O           -2.835898289279     0.206111192205     0.174585680529    15.994914619570
         H           -1.744604589279    -2.033866007795    -0.025428319471     1.007825032230
         H           -1.017816589279     1.942331992205    -0.025407319471     1.007825032230
         H            0.559746410721    -2.575755007795    -0.025437319471     1.007825032230
         H            3.142608410721    -0.302339007795    -0.904465319471     1.007825032230
         H            3.142583410721    -0.302208007795     0.853712680529     1.007825032230
         H            2.911931410721    -1.831018007795    -0.025267319471     1.007825032230

  Basis Set: AUG-CC-PVTZ
    Blend: AUG-CC-PVTZ
  Basis Set: (AUG-CC-PVTZ AUX)
    Blend: AUG-CC-PVTZ-JKFIT
	 Reference Energy          =    -451.6672443588826695 [Eh]
	 Singles Energy            =      -0.0000000000000000 [Eh]
	 Same-Spin Energy          =      -0.4594954713727698 [Eh]
	 Opposite-Spin Energy      =      -1.3859193111465642 [Eh]
	 Correlation Energy        =      -1.8454147825193341 [Eh]
	 Total Energy              =    -453.5126591414020254 [Eh]

	 ================> DF-SCS-MP2 Energies <==================
	-----------------------------------------------------------
	 SCS Same-Spin Scale       =       0.3333333333333333 [-]
	 SCS Opposite-Spin Scale   =       1.2000000000000000 [-]
	 SCS Same-Spin Energy      =      -0.1531651571242566 [Eh]
	 SCS Opposite-Spin Energy  =      -1.6631031733758770 [Eh]
	 SCS Correlation Energy    =      -1.8162683305001335 [Eh]
	 SCS Total Energy          =    -453.4835126893827919 [Eh]
	-----------------------------------------------------------

  Dipole Moment: [D]
     X:     1.1228      Y:    -4.2029      Z:    -0.3686     Total:     4.3659

*** Psi4 exiting successfully. Buy a developer a beer!
