                               Psi4 1.3.2 release

  ==> Input File <==

--------------------------------------------------------------------------
#psi4
#
memory 32 gb

molecule  {
0 1
  N       -1.1265450    -1.2362860     0.0000060
  C        0.2308680    -1.4868800    -0.0000290
  C        1.1512880    -0.4934230    -0.0000150
  C        0.6802440     0.8910390    -0.0001390
  N       -0.7159090     1.0273040    -0.0000130
  C       -1.6820960     0.0327770     0.0001490
  C        2.6300190    -0.7237960     0.0000320
  O        1.4079770     1.8828460     0.0000440
  O       -2.8884570     0.2443790    -0.0000340
  H       -1.7971660    -1.9955960    -0.0000480
  H       -1.0703780     1.9806020    -0.0000270
  H        0.5071806    -2.5374785    -0.2500570
  H        3.0900470    -0.2640690    -0.8790850
  H        3.0900220    -0.2639380     0.8790930
  H        2.8593700    -1.7927480     0.0001130
units angstrom
no_reorient  #important for SAPT in psi4, default
symmetry c1  #important for SAPT in psi4, default
}

set PROPERTIES_ORIGIN ["COM"]
properties('MP2/aug-cc-pvtz', properties = ['dipole'])
--------------------------------------------------------------------------

    Molecular point group: c1
  Charge       = 0
  Multiplicity = 1
  Basis Set: AUG-CC-PVTZ
    Blend: AUG-CC-PVTZ
  Basis Set: (AUG-CC-PVTZ AUX)
    Blend: AUG-CC-PVTZ-JKFIT

    Orbital Energies [Eh]
    ---------------------

    Doubly Occupied:

       1A    -20.544507     2A    -20.543762     3A    -15.640185
       4A    -15.628817     5A    -11.418215     6A    -11.381615
       7A    -11.334195     8A    -11.263944     9A    -11.239834
      10A     -1.427428    11A     -1.392502    12A     -1.304811
      13A     -1.240182    14A     -1.108146    15A     -0.969470
      16A     -0.913849    17A     -0.893514    18A     -0.770730
      19A     -0.765423    20A     -0.703027    21A     -0.674381
      22A     -0.664786    23A     -0.639168    24A     -0.614413
      25A     -0.591757    26A     -0.569128    27A     -0.558006
      28A     -0.551971    29A     -0.510728    30A     -0.478675
      31A     -0.448769    32A     -0.435016    33A     -0.354670

  @DF-RHF Final Energy:  -451.66817886354363

   => Energetics <=

    Nuclear Repulsion Energy =            438.0784262996642155
    One-Electron Energy =               -1484.3419656992075488
    Two-Electron Energy =                 594.5953605359997027
    Total Energy =                       -451.6681788635436305
  Basis Set: (AUG-CC-PVTZ AUX)
    Blend: AUG-CC-PVTZ-RI
    Molecular point group: c1

    Geometry (in Angstrom), charge = 0, multiplicity = 1:

       Center              X                  Y                   Z               Mass
    ------------   -----------------  -----------------  -----------------  -----------------
         N           -1.073983896728    -1.274555780587     0.002004758848    14.003074004430
         C            0.283429103272    -1.525149780587     0.001969758848    12.000000000000
         C            1.203849103272    -0.531692780587     0.001983758848    12.000000000000
         C            0.732805103272     0.852769219413     0.001859758848    12.000000000000
         N           -0.663347896728     0.989034219413     0.001985758848    14.003074004430
         C           -1.629534896728    -0.005492780587     0.002147758848    12.000000000000
         C            2.682580103272    -0.762065780587     0.002030758848    12.000000000000
         O            1.460538103272     1.844576219413     0.002042758848    15.994914619570
         O           -2.835895896728     0.206109219413     0.001964758848    15.994914619570
         H           -1.744604896728    -2.033865780587     0.001950758848     1.007825032230
         H           -1.017816896728     1.942332219413     0.001971758848     1.007825032230
         H            0.559741703272    -2.575748280587    -0.248058241152     1.007825032230
         H            3.142608103272    -0.302338780587    -0.877086241152     1.007825032230
         H            3.142583103272    -0.302207780587     0.881091758848     1.007825032230
         H            2.911931103272    -1.831017780587     0.002111758848     1.007825032230

  Basis Set: AUG-CC-PVTZ
    Blend: AUG-CC-PVTZ
  Basis Set: (AUG-CC-PVTZ AUX)
    Blend: AUG-CC-PVTZ-JKFIT
	 Reference Energy          =    -451.6681788635436305 [Eh]
	 Singles Energy            =      -0.0000000000000000 [Eh]
	 Same-Spin Energy          =      -0.4592438393890624 [Eh]
	 Opposite-Spin Energy      =      -1.3853434793754991 [Eh]
	 Correlation Energy        =      -1.8445873187645616 [Eh]
	 Total Energy              =    -453.5127661823082121 [Eh]

	 ================> DF-SCS-MP2 Energies <==================
	-----------------------------------------------------------
	 SCS Same-Spin Scale       =       0.3333333333333333 [-]
	 SCS Opposite-Spin Scale   =       1.2000000000000000 [-]
	 SCS Same-Spin Energy      =      -0.1530812797963541 [Eh]
	 SCS Opposite-Spin Energy  =      -1.6624121752505989 [Eh]
	 SCS Correlation Energy    =      -1.8154934550469530 [Eh]
	 SCS Total Energy          =    -453.4836723185906067 [Eh]
	-----------------------------------------------------------

  Dipole Moment: [D]
     X:     1.0519      Y:    -4.1397      Z:    -0.1576     Total:     4.2742

*** Psi4 exiting successfully. Buy a developer a beer!
