                               Psi4 1.3.2 release

  ==> Input File <==

--------------------------------------------------------------------------
#psi4
#
memory 32 gb

molecule  {
0 1
  N       -1.1265450    -1.2362860     0.0000060
  C        0.2308680    -1.4868800    -0.0000290
  C        1.1512880    -0.4934230    -0.0000150
  C        0.6802440     0.8910390    -0.0001390
  N       -0.7159090     1.0273040    -0.0000130
  C       -1.6820960     0.0327770     0.0001490
  C        2.6300190    -0.7237960     0.0000320
  O        1.4079770     1.8828460     0.0000440
  O       -2.8884570     0.2443790    -0.0000340
  H       -1.7971622    -1.9956205     0.2499520
  H       -1.0703780     1.9806020    -0.0000270
  H        0.5071850    -2.5374850    -0.0000570
  H        3.0900470    -0.2640690    -0.8790850
  H        3.0900220    -0.2639380     0.8790930
  H        2.8593700    -1.7927480     0.0001130
units angstrom
no_reorient  #important for SAPT in psi4, default
symmetry c1  #important for SAPT in psi4, default
}

set PROPERTIES_ORIGIN ["COM"]
properties('MP2/aug-cc-pvtz', properties = ['dipole'])
--------------------------------------------------------------------------

    Molecular point group: c1
  Charge       = 0
  Multiplicity = 1
  Basis Set: AUG-CC-PVTZ
    Blend: AUG-CC-PVTZ
  Basis Set: (AUG-CC-PVTZ AUX)
    Blend: AUG-CC-PVTZ-JKFIT

    Orbital Energies [Eh]
    ---------------------

    Doubly Occupied:

       1A    -20.544800     2A    -20.543684     3A    -15.641891
       4A    -15.628625     5A    -11.418052     6A    -11.381384
       7A    -11.331275     8A    -11.263143     9A    -11.239619
      10A     -1.427114    11A     -1.392366    12A     -1.303558
      13A     -1.238850    14A     -1.107414    15A     -0.969775
      16A     -0.915276    17A     -0.889758    18A     -0.767957
      19A     -0.763294    20A     -0.706379    21A     -0.676405
      22A     -0.660959    23A     -0.640128    24A     -0.615636
      25A     -0.591373    26A     -0.568802    27A     -0.557795
      28A     -0.551262    29A     -0.510612    30A     -0.479438
      31A     -0.448767    32A     -0.434848    33A     -0.355105

  @DF-RHF Final Energy:  -451.66940440154741

   => Energetics <=

    Nuclear Repulsion Energy =            438.0438222060628846
    One-Electron Energy =               -1484.2957648444757979
    Two-Electron Energy =                 594.5825382368655028
    Total Energy =                       -451.6694044015473537
  Basis Set: (AUG-CC-PVTZ AUX)
    Blend: AUG-CC-PVTZ-RI
    Molecular point group: c1

    Geometry (in Angstrom), charge = 0, multiplicity = 1:

       Center              X                  Y                   Z               Mass
    ------------   -----------------  -----------------  -----------------  -----------------
         N           -1.073983962295    -1.274555532715    -0.001993184760    14.003074004430
         C            0.283429037705    -1.525149532715    -0.002028184760    12.000000000000
         C            1.203849037705    -0.531692532715    -0.002014184760    12.000000000000
         C            0.732805037705     0.852769467285    -0.002138184760    12.000000000000
         N           -0.663347962295     0.989034467285    -0.002012184760    14.003074004430
         C           -1.629534962295    -0.005492532715    -0.001850184760    12.000000000000
         C            2.682580037705    -0.762065532715    -0.001967184760    12.000000000000
         O            1.460538037705     1.844576467285    -0.001955184760    15.994914619570
         O           -2.835895962295     0.206109467285    -0.002033184760    15.994914619570
         H           -1.744601162295    -2.033890032715     0.247952815240     1.007825032230
         H           -1.017816962295     1.942332467285    -0.002026184760     1.007825032230
         H            0.559746037705    -2.575754532715    -0.002056184760     1.007825032230
         H            3.142608037705    -0.302338532715    -0.881084184760     1.007825032230
         H            3.142583037705    -0.302207532715     0.877093815240     1.007825032230
         H            2.911931037705    -1.831017532715    -0.001886184760     1.007825032230

  Basis Set: AUG-CC-PVTZ
    Blend: AUG-CC-PVTZ
  Basis Set: (AUG-CC-PVTZ AUX)
    Blend: AUG-CC-PVTZ-JKFIT
	 Reference Energy          =    -451.6694044015474105 [Eh]
	 Singles Energy            =      -0.0000000000000000 [Eh]
	 Same-Spin Energy          =      -0.4591564177343797 [Eh]
	 Opposite-Spin Energy      =      -1.3852907059628403 [Eh]
	 Correlation Energy        =      -1.8444471236972200 [Eh]
	 Total Energy              =    -453.5138515252446041 [Eh]

	 ================> DF-SCS-MP2 Energies <==================
	-----------------------------------------------------------
	 SCS Same-Spin Scale       =       0.3333333333333333 [-]
	 SCS Opposite-Spin Scale   =       1.2000000000000000 [-]
	 SCS Same-Spin Energy      =      -0.1530521392447932 [Eh]
	 SCS Opposite-Spin Energy  =      -1.6623488471554084 [Eh]
	 SCS Correlation Energy    =      -1.8154009864002016 [Eh]
	 SCS Total Energy          =    -453.4848053879476311 [Eh]
	-----------------------------------------------------------

  Dipole Moment: [D]
     X:     1.0542      Y:    -4.1478      Z:     0.3484     Total:     4.2938

*** Psi4 exiting successfully. Buy a developer a beer!
