                               Psi4 1.3.2 release

  ==> Input File <==

--------------------------------------------------------------------------
#psi4
#
memory 32 gb

molecule  {
0 1
  N       -1.1265450    -1.2362860     0.0000060
  C        0.2308680    -1.4868800    -0.0000290
  C        1.1512880    -0.4934230    -0.0000150
  C        0.6802440     0.8910390    -0.0001390
  N       -0.7159090     1.0273040    -0.0000130
  C       -1.6820960     0.0327770     0.0001490
  C        2.6300190    -0.7237960     0.0000320
  O        1.4079770     1.8828460     0.0000440
  O       -2.8884570     0.2443790    -0.0000340
  H       -1.7971660    -1.9955960    -0.0000480
  H       -1.0703780     1.9806020    -0.0000270
  H        0.5071832    -2.5374824    -0.1000570
  H        3.0900470    -0.2640690    -0.8790850
  H        3.0900220    -0.2639380     0.8790930
  H        2.8593700    -1.7927480     0.0001130
units angstrom
no_reorient  #important for SAPT in psi4, default
symmetry c1  #important for SAPT in psi4, default
}

set PROPERTIES_ORIGIN ["COM"]
properties('MP2/aug-cc-pvtz', properties = ['dipole'])
--------------------------------------------------------------------------

    Molecular point group: c1
  Charge       = 0
  Multiplicity = 1
  Basis Set: AUG-CC-PVTZ
    Blend: AUG-CC-PVTZ
  Basis Set: (AUG-CC-PVTZ AUX)
    Blend: AUG-CC-PVTZ-JKFIT

    Orbital Energies [Eh]
    ---------------------

    Doubly Occupied:

       1A    -20.544569     2A    -20.543320     3A    -15.640547
       4A    -15.628643     5A    -11.418280     6A    -11.381211
       7A    -11.332416     8A    -11.263041     9A    -11.239589
      10A     -1.427429    11A     -1.392194    12A     -1.304991
      13A     -1.240189    14A     -1.108101    15A     -0.970015
      16A     -0.915154    17A     -0.893472    18A     -0.770807
      19A     -0.765440    20A     -0.706650    21A     -0.674439
      22A     -0.665088    23A     -0.640025    24A     -0.616168
      25A     -0.591564    26A     -0.568702    27A     -0.558088
      28A     -0.551883    29A     -0.511146    30A     -0.479340
      31A     -0.448541    32A     -0.434865    33A     -0.354534

  @DF-RHF Final Energy:  -451.67183414204936

   => Energetics <=

    Nuclear Repulsion Energy =            438.1744001779731548
    One-Electron Energy =               -1484.5315892214377982
    Two-Electron Energy =                 594.6853549014152804
    Total Energy =                       -451.6718341420493061
  Basis Set: (AUG-CC-PVTZ AUX)
    Blend: AUG-CC-PVTZ-RI
    Molecular point group: c1

    Geometry (in Angstrom), charge = 0, multiplicity = 1:

       Center              X                  Y                   Z               Mass
    ------------   -----------------  -----------------  -----------------  -----------------
         N           -1.073983917518    -1.274555749403     0.000805375766    14.003074004430
         C            0.283429082482    -1.525149749403     0.000770375766    12.000000000000
         C            1.203849082482    -0.531692749403     0.000784375766    12.000000000000
         C            0.732805082482     0.852769250597     0.000660375766    12.000000000000
         N           -0.663347917518     0.989034250597     0.000786375766    14.003074004430
         C           -1.629534917518    -0.005492749403     0.000948375766    12.000000000000
         C            2.682580082482    -0.762065749403     0.000831375766    12.000000000000
         O            1.460538082482     1.844576250597     0.000843375766    15.994914619570
         O           -2.835895917518     0.206109250597     0.000765375766    15.994914619570
         H           -1.744604917518    -2.033865749403     0.000751375766     1.007825032230
         H           -1.017816917518     1.942332250597     0.000772375766     1.007825032230
         H            0.559744282482    -2.575752149403    -0.099257624234     1.007825032230
         H            3.142608082482    -0.302338749403    -0.878285624234     1.007825032230
         H            3.142583082482    -0.302207749403     0.879892375766     1.007825032230
         H            2.911931082482    -1.831017749403     0.000912375766     1.007825032230

  Basis Set: AUG-CC-PVTZ
    Blend: AUG-CC-PVTZ
  Basis Set: (AUG-CC-PVTZ AUX)
    Blend: AUG-CC-PVTZ-JKFIT
	 Reference Energy          =    -451.6718341420493630 [Eh]
	 Singles Energy            =      -0.0000000000000000 [Eh]
	 Same-Spin Energy          =      -0.4590098323404244 [Eh]
	 Opposite-Spin Energy      =      -1.3848455994722482 [Eh]
	 Correlation Energy        =      -1.8438554318126725 [Eh]
	 Total Energy              =    -453.5156895738620619 [Eh]

	 ================> DF-SCS-MP2 Energies <==================
	-----------------------------------------------------------
	 SCS Same-Spin Scale       =       0.3333333333333333 [-]
	 SCS Opposite-Spin Scale   =       1.2000000000000000 [-]
	 SCS Same-Spin Energy      =      -0.1530032774468081 [Eh]
	 SCS Opposite-Spin Energy  =      -1.6618147193666977 [Eh]
	 SCS Correlation Energy    =      -1.8148179968135059 [Eh]
	 SCS Total Energy          =    -453.4866521388628939 [Eh]
	-----------------------------------------------------------

  Dipole Moment: [D]
     X:     1.0390      Y:    -4.1798      Z:    -0.0637     Total:     4.3075

*** Psi4 exiting successfully. Buy a developer a beer!
