                               Psi4 1.3.2 release

  ==> Input File <==

--------------------------------------------------------------------------
#psi4
#
memory 32 gb

molecule  {
0 1
  N       -1.1265450    -1.2362860     0.0000060
  C        0.2308680    -1.4868800    -0.0000290
  C        1.1512880    -0.4934230    -0.0000150
  C        0.6802440     0.8910390    -0.0001390
  N       -0.7159090     1.0273040    -0.0000130
  C       -1.6820960     0.0327770     0.0001490
  C        2.6300318    -0.7238123    -0.2999680
  O        1.4079770     1.8828460     0.0000440
  O       -2.8884570     0.2443790    -0.0000340
  H       -1.7971660    -1.9955960    -0.0000480
  H       -1.0703780     1.9806020    -0.0000270
  H        0.5071850    -2.5374850    -0.0000570
  H        3.0900470    -0.2640690    -0.8790850
  H        3.0900220    -0.2639380     0.8790930
  H        2.8593700    -1.7927480     0.0001130
units angstrom
no_reorient  #important for SAPT in psi4, default
symmetry c1  #important for SAPT in psi4, default
}

set PROPERTIES_ORIGIN ["COM"]
properties('MP2/aug-cc-pvtz', properties = ['dipole'])
--------------------------------------------------------------------------

    Molecular point group: c1
  Charge       = 0
  Multiplicity = 1
  Basis Set: AUG-CC-PVTZ
    Blend: AUG-CC-PVTZ
  Basis Set: (AUG-CC-PVTZ AUX)
    Blend: AUG-CC-PVTZ-JKFIT

    Orbital Energies [Eh]
    ---------------------

    Doubly Occupied:

       1A    -20.545473     2A    -20.543950     3A    -15.642044
       4A    -15.629426     5A    -11.419168     6A    -11.381913
       7A    -11.333552     8A    -11.269800     9A    -11.252937
      10A     -1.428310    11A     -1.392746    12A     -1.306143
      13A     -1.241083    14A     -1.108059    15A     -0.978840
      16A     -0.918499    17A     -0.896113    18A     -0.781615
      19A     -0.765640    20A     -0.708494    21A     -0.676012
      22A     -0.667188    23A     -0.657119    24A     -0.634804
      25A     -0.610483    26A     -0.571907    27A     -0.553166
      28A     -0.525191    29A     -0.480824    30A     -0.474891
      31A     -0.449125    32A     -0.435090    33A     -0.348029

  @DF-RHF Final Energy:  -451.57651428427903

   => Energetics <=

    Nuclear Repulsion Energy =            437.8222837208921874
    One-Electron Energy =               -1483.5423256653580211
    Two-Electron Energy =                 594.1435276601866917
    Total Energy =                       -451.5765142842790283
  Basis Set: (AUG-CC-PVTZ AUX)
    Blend: AUG-CC-PVTZ-RI
    Molecular point group: c1

    Geometry (in Angstrom), charge = 0, multiplicity = 1:

       Center              X                  Y                   Z               Mass
    ------------   -----------------  -----------------  -----------------  -----------------
         N           -1.073985150543    -1.274554176762     0.028567484817    14.003074004430
         C            0.283427849457    -1.525148176762     0.028532484817    12.000000000000
         C            1.203847849457    -0.531691176762     0.028546484817    12.000000000000
         C            0.732803849457     0.852770823238     0.028422484817    12.000000000000
         N           -0.663349150543     0.989035823238     0.028548484817    14.003074004430
         C           -1.629536150543    -0.005491176762     0.028710484817    12.000000000000
         C            2.682591649457    -0.762080476762    -0.271406515183    12.000000000000
         O            1.460536849457     1.844577823238     0.028605484817    15.994914619570
         O           -2.835897150543     0.206110823238     0.028527484817    15.994914619570
         H           -1.744606150543    -2.033864176762     0.028513484817     1.007825032230
         H           -1.017818150543     1.942333823238     0.028534484817     1.007825032230
         H            0.559744849457    -2.575753176762     0.028504484817     1.007825032230
         H            3.142606849457    -0.302337176762    -0.850523515183     1.007825032230
         H            3.142581849457    -0.302206176762     0.907654484817     1.007825032230
         H            2.911929849457    -1.831016176762     0.028674484817     1.007825032230

  Basis Set: AUG-CC-PVTZ
    Blend: AUG-CC-PVTZ
  Basis Set: (AUG-CC-PVTZ AUX)
    Blend: AUG-CC-PVTZ-JKFIT
	 Reference Energy          =    -451.5765142842790283 [Eh]
	 Singles Energy            =      -0.0000000000000000 [Eh]
	 Same-Spin Energy          =      -0.4601819058102606 [Eh]
	 Opposite-Spin Energy      =      -1.3891232579996937 [Eh]
	 Correlation Energy        =      -1.8493051638099542 [Eh]
	 Total Energy              =    -453.4258194480889870 [Eh]

	 ================> DF-SCS-MP2 Energies <==================
	-----------------------------------------------------------
	 SCS Same-Spin Scale       =       0.3333333333333333 [-]
	 SCS Opposite-Spin Scale   =       1.2000000000000000 [-]
	 SCS Same-Spin Energy      =      -0.1533939686034202 [Eh]
	 SCS Opposite-Spin Energy  =      -1.6669479095996325 [Eh]
	 SCS Correlation Energy    =      -1.8203418782030527 [Eh]
	 SCS Total Energy          =    -453.3968561624820950 [Eh]
	-----------------------------------------------------------

  Dipole Moment: [D]
     X:     0.9210      Y:    -4.1894      Z:    -0.0905     Total:     4.2904

*** Psi4 exiting successfully. Buy a developer a beer!
