                               Psi4 1.3.2 release

  ==> Input File <==

--------------------------------------------------------------------------
#psi4
#
memory 32 gb

molecule  {
0 1
  N       -1.1265450    -1.2362860     0.0000060
  C        0.2308680    -1.4868800    -0.0000290
  C        1.1512880    -0.4934230    -0.0000150
  C        0.6802440     0.8910390    -0.0001390
  N       -0.7159090     1.0273040    -0.0000130
  C       -1.6820960     0.0327770     0.0001490
  C        2.6300190    -0.7237960     0.0000320
  O        1.4079770     1.8828460     0.0000440
  O       -2.8884570     0.2443790    -0.0000340
  H       -1.7971645    -1.9956058     0.0999520
  H       -1.0703780     1.9806020    -0.0000270
  H        0.5071850    -2.5374850    -0.0000570
  H        3.0900470    -0.2640690    -0.8790850
  H        3.0900220    -0.2639380     0.8790930
  H        2.8593700    -1.7927480     0.0001130
units angstrom
no_reorient  #important for SAPT in psi4, default
symmetry c1  #important for SAPT in psi4, default
}

set PROPERTIES_ORIGIN ["COM"]
properties('MP2/aug-cc-pvtz', properties = ['dipole'])
--------------------------------------------------------------------------

    Molecular point group: c1
  Charge       = 0
  Multiplicity = 1
  Basis Set: AUG-CC-PVTZ
    Blend: AUG-CC-PVTZ
  Basis Set: (AUG-CC-PVTZ AUX)
    Blend: AUG-CC-PVTZ-JKFIT

    Orbital Energies [Eh]
    ---------------------

    Doubly Occupied:

       1A    -20.544621     2A    -20.543309     3A    -15.640830
       4A    -15.628612     5A    -11.418253     6A    -11.381175
       7A    -11.331936     8A    -11.262912     9A    -11.239553
      10A     -1.427378    11A     -1.392173    12A     -1.304778
      13A     -1.239970    14A     -1.107980    15A     -0.970070
      16A     -0.915394    17A     -0.892828    18A     -0.770226
      19A     -0.765216    20A     -0.707233    21A     -0.674916
      22A     -0.664323    23A     -0.640190    24A     -0.616347
      25A     -0.591502    26A     -0.568651    27A     -0.558047
      28A     -0.551773    29A     -0.511130    30A     -0.479462
      31A     -0.448542    32A     -0.434838    33A     -0.354609

  @DF-RHF Final Energy:  -451.67206735927880

   => Energetics <=

    Nuclear Repulsion Energy =            438.1685953465303669
    One-Electron Energy =               -1484.5237703590053115
    Two-Electron Energy =                 594.6831076531962026
    Total Energy =                       -451.6720673592787989
  Basis Set: (AUG-CC-PVTZ AUX)
    Blend: AUG-CC-PVTZ-RI
    Molecular point group: c1

    Geometry (in Angstrom), charge = 0, multiplicity = 1:

       Center              X                  Y                   Z               Mass
    ------------   -----------------  -----------------  -----------------  -----------------
         N           -1.073983943904    -1.274555650254    -0.000793801677    14.003074004430
         C            0.283429056096    -1.525149650254    -0.000828801677    12.000000000000
         C            1.203849056096    -0.531692650254    -0.000814801677    12.000000000000
         C            0.732805056096     0.852769349746    -0.000938801677    12.000000000000
         N           -0.663347943904     0.989034349746    -0.000812801677    14.003074004430
         C           -1.629534943904    -0.005492650254    -0.000650801677    12.000000000000
         C            2.682580056096    -0.762065650254    -0.000767801677    12.000000000000
         O            1.460538056096     1.844576349746    -0.000755801677    15.994914619570
         O           -2.835895943904     0.206109349746    -0.000833801677    15.994914619570
         H           -1.744603443904    -2.033875450254     0.099152198323     1.007825032230
         H           -1.017816943904     1.942332349746    -0.000826801677     1.007825032230
         H            0.559746056096    -2.575754650254    -0.000856801677     1.007825032230
         H            3.142608056096    -0.302338650254    -0.879884801677     1.007825032230
         H            3.142583056096    -0.302207650254     0.878293198323     1.007825032230
         H            2.911931056096    -1.831017650254    -0.000686801677     1.007825032230

  Basis Set: AUG-CC-PVTZ
    Blend: AUG-CC-PVTZ
  Basis Set: (AUG-CC-PVTZ AUX)
    Blend: AUG-CC-PVTZ-JKFIT
	 Reference Energy          =    -451.6720673592787989 [Eh]
	 Singles Energy            =      -0.0000000000000000 [Eh]
	 Same-Spin Energy          =      -0.4589952240072981 [Eh]
	 Opposite-Spin Energy      =      -1.3848407301108505 [Eh]
	 Correlation Energy        =      -1.8438359541181486 [Eh]
	 Total Energy              =    -453.5159033133969615 [Eh]

	 ================> DF-SCS-MP2 Energies <==================
	-----------------------------------------------------------
	 SCS Same-Spin Scale       =       0.3333333333333333 [-]
	 SCS Opposite-Spin Scale   =       1.2000000000000000 [-]
	 SCS Same-Spin Energy      =      -0.1529984080024327 [Eh]
	 SCS Opposite-Spin Energy  =      -1.6618088761330205 [Eh]
	 SCS Correlation Energy    =      -1.8148072841354532 [Eh]
	 SCS Total Energy          =    -453.4868746434142395 [Eh]
	-----------------------------------------------------------

  Dipole Moment: [D]
     X:     1.0393      Y:    -4.1810      Z:     0.1403     Total:     4.3105

*** Psi4 exiting successfully. Buy a developer a beer!
