                               Psi4 1.3.2 release

  ==> Input File <==

--------------------------------------------------------------------------
#psi4
#
memory 32 gb

molecule  {
0 1
  N       -1.1265450    -1.2362860     0.0000060
  C        0.2308680    -1.4868800    -0.0000290
  C        1.1512880    -0.4934230    -0.0000150
  C        0.6802440     0.8910390    -0.0001390
  N       -0.7159090     1.0273040    -0.0000130
  C       -1.6820960     0.0327770     0.0001490
  C        2.6300190    -0.7237960     0.0000320
  O        1.4079770     1.8828460     0.0000440
  O       -2.8884570     0.2443790    -0.0000340
  H       -1.7971660    -1.9955960    -0.0000480
  H       -1.0703981     1.9805902    -0.2000270
  H        0.5071850    -2.5374850    -0.0000570
  H        3.0900470    -0.2640690    -0.8790850
  H        3.0900220    -0.2639380     0.8790930
  H        2.8593700    -1.7927480     0.0001130
units angstrom
no_reorient  #important for SAPT in psi4, default
symmetry c1  #important for SAPT in psi4, default
}

set PROPERTIES_ORIGIN ["COM"]
properties('MP2/aug-cc-pvtz', properties = ['dipole'])
--------------------------------------------------------------------------

    Molecular point group: c1
  Charge       = 0
  Multiplicity = 1
  Basis Set: AUG-CC-PVTZ
    Blend: AUG-CC-PVTZ
  Basis Set: (AUG-CC-PVTZ AUX)
    Blend: AUG-CC-PVTZ-JKFIT

    Orbital Energies [Eh]
    ---------------------

    Doubly Occupied:

       1A    -20.544682     2A    -20.543358     3A    -15.640530
       4A    -15.629477     5A    -11.418082     6A    -11.380892
       7A    -11.332071     8A    -11.262769     9A    -11.239478
      10A     -1.427120    11A     -1.392027    12A     -1.304915
      13A     -1.238355    14A     -1.107958    15A     -0.970040
      16A     -0.913743    17A     -0.892662    18A     -0.769238
      19A     -0.765148    20A     -0.705286    21A     -0.674715
      22A     -0.663026    23A     -0.640081    24A     -0.615964
      25A     -0.591484    26A     -0.568627    27A     -0.557888
      28A     -0.551166    29A     -0.511054    30A     -0.479410
      31A     -0.448515    32A     -0.434748    33A     -0.354442

  @DF-RHF Final Energy:  -451.67021517457385

   => Energetics <=

    Nuclear Repulsion Energy =            438.0929971009890096
    One-Electron Energy =               -1484.3885163407444452
    Two-Electron Energy =                 594.6253040651814672
    Total Energy =                       -451.6702151745738547
  Basis Set: (AUG-CC-PVTZ AUX)
    Blend: AUG-CC-PVTZ-RI
    Molecular point group: c1

    Geometry (in Angstrom), charge = 0, multiplicity = 1:

       Center              X                  Y                   Z               Mass
    ------------   -----------------  -----------------  -----------------  -----------------
         N           -1.073983771193    -1.274555634263     0.001604964488    14.003074004430
         C            0.283429228807    -1.525149634263     0.001569964488    12.000000000000
         C            1.203849228807    -0.531692634263     0.001583964488    12.000000000000
         C            0.732805228807     0.852769365737     0.001459964488    12.000000000000
         N           -0.663347771193     0.989034365737     0.001585964488    14.003074004430
         C           -1.629534771193    -0.005492634263     0.001747964488    12.000000000000
         C            2.682580228807    -0.762065634263     0.001630964488    12.000000000000
         O            1.460538228807     1.844576365737     0.001642964488    15.994914619570
         O           -2.835895771193     0.206109365737     0.001564964488    15.994914619570
         H           -1.744604771193    -2.033865634263     0.001550964488     1.007825032230
         H           -1.017836871193     1.942320565737    -0.198428035512     1.007825032230
         H            0.559746228807    -2.575754634263     0.001541964488     1.007825032230
         H            3.142608228807    -0.302338634263    -0.877486035512     1.007825032230
         H            3.142583228807    -0.302207634263     0.880691964488     1.007825032230
         H            2.911931228807    -1.831017634263     0.001711964488     1.007825032230

  Basis Set: AUG-CC-PVTZ
    Blend: AUG-CC-PVTZ
  Basis Set: (AUG-CC-PVTZ AUX)
    Blend: AUG-CC-PVTZ-JKFIT
	 Reference Energy          =    -451.6702151745738547 [Eh]
	 Singles Energy            =      -0.0000000000000000 [Eh]
	 Same-Spin Energy          =      -0.4591444254461775 [Eh]
	 Opposite-Spin Energy      =      -1.3851652507190793 [Eh]
	 Correlation Energy        =      -1.8443096761652567 [Eh]
	 Total Energy              =    -453.5145248507391216 [Eh]

	 ================> DF-SCS-MP2 Energies <==================
	-----------------------------------------------------------
	 SCS Same-Spin Scale       =       0.3333333333333333 [-]
	 SCS Opposite-Spin Scale   =       1.2000000000000000 [-]
	 SCS Same-Spin Energy      =      -0.1530481418153925 [Eh]
	 SCS Opposite-Spin Energy  =      -1.6621983008628951 [Eh]
	 SCS Correlation Energy    =      -1.8152464426782875 [Eh]
	 SCS Total Energy          =    -453.4854616172521560 [Eh]
	-----------------------------------------------------------

  Dipole Moment: [D]
     X:     1.0384      Y:    -4.1946      Z:    -0.2606     Total:     4.3291

*** Psi4 exiting successfully. Buy a developer a beer!
