                               Psi4 1.3.2 release

  ==> Input File <==

--------------------------------------------------------------------------
#psi4
#
memory 32 gb

molecule  {
0 1
  N       -1.1265450    -1.2362860     0.0000060
  C        0.2308680    -1.4868800    -0.0000290
  C        1.1512880    -0.4934230    -0.0000150
  C        0.6802440     0.8910390    -0.0001390
  N       -0.7159090     1.0273040    -0.0000130
  C       -1.6820960     0.0327770     0.0001490
  C        2.6300254    -0.7238041    -0.1499680
  O        1.4079770     1.8828460     0.0000440
  O       -2.8884570     0.2443790    -0.0000340
  H       -1.7971660    -1.9955960    -0.0000480
  H       -1.0703780     1.9806020    -0.0000270
  H        0.5071850    -2.5374850    -0.0000570
  H        3.0900470    -0.2640690    -0.8790850
  H        3.0900220    -0.2639380     0.8790930
  H        2.8593700    -1.7927480     0.0001130
units angstrom
no_reorient  #important for SAPT in psi4, default
symmetry c1  #important for SAPT in psi4, default
}

set PROPERTIES_ORIGIN ["COM"]
properties('MP2/aug-cc-pvtz', properties = ['dipole'])
--------------------------------------------------------------------------

    Molecular point group: c1
  Charge       = 0
  Multiplicity = 1
  Basis Set: AUG-CC-PVTZ
    Blend: AUG-CC-PVTZ
  Basis Set: (AUG-CC-PVTZ AUX)
    Blend: AUG-CC-PVTZ-JKFIT

    Orbital Energies [Eh]
    ---------------------

    Doubly Occupied:

       1A    -20.544813     2A    -20.543417     3A    -15.640988
       4A    -15.628820     5A    -11.418520     6A    -11.381330
       7A    -11.332456     8A    -11.264664     9A    -11.242924
      10A     -1.427658    11A     -1.392290    12A     -1.305317
      13A     -1.240422    14A     -1.108089    15A     -0.972097
      16A     -0.916159    17A     -0.894171    18A     -0.773528
      19A     -0.765479    20A     -0.707681    21A     -0.674763
      22A     -0.665571    23A     -0.642106    24A     -0.623625
      25A     -0.605908    26A     -0.570596    27A     -0.559113
      28A     -0.533296    29A     -0.501851    30A     -0.479614
      31A     -0.448660    32A     -0.434918    33A     -0.352939

  @DF-RHF Final Energy:  -451.64899337897305

   => Energetics <=

    Nuclear Repulsion Energy =            438.0992296523172058
    One-Electron Energy =               -1484.3088788462448520
    Two-Electron Energy =                 594.5606558149545435
    Total Energy =                       -451.6489933789730458
  Basis Set: (AUG-CC-PVTZ AUX)
    Blend: AUG-CC-PVTZ-RI
    Molecular point group: c1

    Geometry (in Angstrom), charge = 0, multiplicity = 1:

       Center              X                  Y                   Z               Mass
    ------------   -----------------  -----------------  -----------------  -----------------
         N           -1.073984541227    -1.274554957448     0.014286635931    14.003074004430
         C            0.283428458773    -1.525148957448     0.014251635931    12.000000000000
         C            1.203848458773    -0.531691957448     0.014265635931    12.000000000000
         C            0.732804458773     0.852770042552     0.014141635931    12.000000000000
         N           -0.663348541227     0.989035042552     0.014267635931    14.003074004430
         C           -1.629535541227    -0.005491957448     0.014429635931    12.000000000000
         C            2.682585858773    -0.762073057448    -0.135687364069    12.000000000000
         O            1.460537458773     1.844577042552     0.014324635931    15.994914619570
         O           -2.835896541227     0.206110042552     0.014246635931    15.994914619570
         H           -1.744605541227    -2.033864957448     0.014232635931     1.007825032230
         H           -1.017817541227     1.942333042552     0.014253635931     1.007825032230
         H            0.559745458773    -2.575753957448     0.014223635931     1.007825032230
         H            3.142607458773    -0.302337957448    -0.864804364069     1.007825032230
         H            3.142582458773    -0.302206957448     0.893373635931     1.007825032230
         H            2.911930458773    -1.831016957448     0.014393635931     1.007825032230

  Basis Set: AUG-CC-PVTZ
    Blend: AUG-CC-PVTZ
  Basis Set: (AUG-CC-PVTZ AUX)
    Blend: AUG-CC-PVTZ-JKFIT
	 Reference Energy          =    -451.6489933789730458 [Eh]
	 Singles Energy            =      -0.0000000000000000 [Eh]
	 Same-Spin Energy          =      -0.4592607940354709 [Eh]
	 Opposite-Spin Energy      =      -1.3857956765691020 [Eh]
	 Correlation Energy        =      -1.8450564706045729 [Eh]
	 Total Energy              =    -453.4940498495776069 [Eh]

	 ================> DF-SCS-MP2 Energies <==================
	-----------------------------------------------------------
	 SCS Same-Spin Scale       =       0.3333333333333333 [-]
	 SCS Opposite-Spin Scale   =       1.2000000000000000 [-]
	 SCS Same-Spin Energy      =      -0.1530869313451569 [Eh]
	 SCS Opposite-Spin Energy  =      -1.6629548118829223 [Eh]
	 SCS Correlation Energy    =      -1.8160417432280793 [Eh]
	 SCS Total Energy          =    -453.4650351222011295 [Eh]
	-----------------------------------------------------------

  Dipole Moment: [D]
     X:     1.0049      Y:    -4.1899      Z:    -0.0568     Total:     4.3091

*** Psi4 exiting successfully. Buy a developer a beer!
