                               Psi4 1.3.2 release

  ==> Input File <==

--------------------------------------------------------------------------
#psi4
#
memory 32 gb

molecule  {
0 1
  N       -1.1265450    -1.2362860     0.0000060
  C        0.2308680    -1.4868800    -0.0000290
  C        1.1512880    -0.4934230    -0.0000150
  C        0.6802440     0.8910390    -0.0001390
  N       -0.7159090     1.0273040    -0.0000130
  C       -1.6820960     0.0327770     0.0001490
  C        2.6300190    -0.7237960     0.0000320
  O        1.4079770     1.8828460     0.0000440
  O       -2.8884570     0.2443790    -0.0000340
  H       -1.7971660    -1.9955960    -0.0000480
  H       -1.0703780     1.9806020    -0.0000270
  H        0.5071797    -2.5374772    -0.3000570
  H        3.0900470    -0.2640690    -0.8790850
  H        3.0900220    -0.2639380     0.8790930
  H        2.8593700    -1.7927480     0.0001130
units angstrom
no_reorient  #important for SAPT in psi4, default
symmetry c1  #important for SAPT in psi4, default
}

set PROPERTIES_ORIGIN ["COM"]
properties('MP2/aug-cc-pvtz', properties = ['dipole'])
--------------------------------------------------------------------------

    Molecular point group: c1
  Charge       = 0
  Multiplicity = 1
  Basis Set: AUG-CC-PVTZ
    Blend: AUG-CC-PVTZ
  Basis Set: (AUG-CC-PVTZ AUX)
    Blend: AUG-CC-PVTZ-JKFIT

    Orbital Energies [Eh]
    ---------------------

    Doubly Occupied:

       1A    -20.544480     2A    -20.543989     3A    -15.640011
       4A    -15.628908     5A    -11.418188     6A    -11.381822
       7A    -11.335098     8A    -11.264404     9A    -11.239955
      10A     -1.427432    11A     -1.392660    12A     -1.304726
      13A     -1.240183    14A     -1.108177    15A     -0.969225
      16A     -0.913214    17A     -0.893538    18A     -0.770706
      19A     -0.765425    20A     -0.701313    21A     -0.674335
      22A     -0.664644    23A     -0.638766    24A     -0.613390
      25A     -0.591851    26A     -0.569338    27A     -0.557966
      28A     -0.552007    29A     -0.510524    30A     -0.478319
      31A     -0.448884    32A     -0.435095    33A     -0.354742

  @DF-RHF Final Energy:  -451.66609940937934

   => Energetics <=

    Nuclear Repulsion Energy =            438.0298794208522963
    One-Electron Energy =               -1484.2453253249134377
    Two-Electron Energy =                 594.5493464946819131
    Total Energy =                       -451.6660994093792851
  Basis Set: (AUG-CC-PVTZ AUX)
    Blend: AUG-CC-PVTZ-RI
    Molecular point group: c1

    Geometry (in Angstrom), charge = 0, multiplicity = 1:

       Center              X                  Y                   Z               Mass
    ------------   -----------------  -----------------  -----------------  -----------------
         N           -1.073983889532    -1.274555790982     0.002404553209    14.003074004430
         C            0.283429110468    -1.525149790982     0.002369553209    12.000000000000
         C            1.203849110468    -0.531692790982     0.002383553209    12.000000000000
         C            0.732805110468     0.852769209018     0.002259553209    12.000000000000
         N           -0.663347889532     0.989034209018     0.002385553209    14.003074004430
         C           -1.629534889532    -0.005492790982     0.002547553209    12.000000000000
         C            2.682580110468    -0.762065790982     0.002430553209    12.000000000000
         O            1.460538110468     1.844576209018     0.002442553209    15.994914619570
         O           -2.835895889532     0.206109209018     0.002364553209    15.994914619570
         H           -1.744604889532    -2.033865790982     0.002350553209     1.007825032230
         H           -1.017816889532     1.942332209018     0.002371553209     1.007825032230
         H            0.559740810468    -2.575746990982    -0.297658446791     1.007825032230
         H            3.142608110468    -0.302338790982    -0.876686446791     1.007825032230
         H            3.142583110468    -0.302207790982     0.881491553209     1.007825032230
         H            2.911931110468    -1.831017790982     0.002511553209     1.007825032230

  Basis Set: AUG-CC-PVTZ
    Blend: AUG-CC-PVTZ
  Basis Set: (AUG-CC-PVTZ AUX)
    Blend: AUG-CC-PVTZ-JKFIT
	 Reference Energy          =    -451.6660994093793420 [Eh]
	 Singles Energy            =      -0.0000000000000000 [Eh]
	 Same-Spin Energy          =      -0.4593636913090088 [Eh]
	 Opposite-Spin Energy      =      -1.3856209343000034 [Eh]
	 Correlation Energy        =      -1.8449846256090123 [Eh]
	 Total Energy              =    -453.5110840349883574 [Eh]

	 ================> DF-SCS-MP2 Energies <==================
	-----------------------------------------------------------
	 SCS Same-Spin Scale       =       0.3333333333333333 [-]
	 SCS Opposite-Spin Scale   =       1.2000000000000000 [-]
	 SCS Same-Spin Energy      =      -0.1531212304363362 [Eh]
	 SCS Opposite-Spin Energy  =      -1.6627451211600042 [Eh]
	 SCS Correlation Energy    =      -1.8158663515963405 [Eh]
	 SCS Total Energy          =    -453.4819657609756973 [Eh]
	-----------------------------------------------------------

  Dipole Moment: [D]
     X:     1.0580      Y:    -4.1193      Z:    -0.1882     Total:     4.2571

*** Psi4 exiting successfully. Buy a developer a beer!
