                               Psi4 1.3.2 release

  ==> Input File <==

--------------------------------------------------------------------------
#psi4
#
memory 32 gb

molecule  {
0 1
  N       -1.1265450    -1.2362860     0.0000060
  C        0.2308680    -1.4868800    -0.0000290
  C        1.1512880    -0.4934230    -0.0000150
  C        0.6802440     0.8910390    -0.0001390
  N       -0.7159090     1.0273040    -0.0000130
  C       -1.6820960     0.0327770     0.0001490
  C        2.6300275    -0.7238069    -0.1999680
  O        1.4079770     1.8828460     0.0000440
  O       -2.8884570     0.2443790    -0.0000340
  H       -1.7971660    -1.9955960    -0.0000480
  H       -1.0703780     1.9806020    -0.0000270
  H        0.5071850    -2.5374850    -0.0000570
  H        3.0900470    -0.2640690    -0.8790850
  H        3.0900220    -0.2639380     0.8790930
  H        2.8593700    -1.7927480     0.0001130
units angstrom
no_reorient  #important for SAPT in psi4, default
symmetry c1  #important for SAPT in psi4, default
}

set PROPERTIES_ORIGIN ["COM"]
properties('MP2/aug-cc-pvtz', properties = ['dipole'])
--------------------------------------------------------------------------

    Molecular point group: c1
  Charge       = 0
  Multiplicity = 1
  Basis Set: AUG-CC-PVTZ
    Blend: AUG-CC-PVTZ
  Basis Set: (AUG-CC-PVTZ AUX)
    Blend: AUG-CC-PVTZ-JKFIT

    Orbital Energies [Eh]
    ---------------------

    Doubly Occupied:

       1A    -20.544990     2A    -20.543557     3A    -15.641268
       4A    -15.628981     5A    -11.418693     6A    -11.381483
       7A    -11.332750     8A    -11.266035     9A    -11.245543
      10A     -1.427832    11A     -1.392410    12A     -1.305538
      13A     -1.240598    14A     -1.108084    15A     -0.973729
      16A     -0.916754    17A     -0.894703    18A     -0.775662
      19A     -0.765512    20A     -0.707899    21A     -0.675034
      22A     -0.665916    23A     -0.645078    24A     -0.629325
      25A     -0.608580    26A     -0.571115    27A     -0.557571
      28A     -0.529271    29A     -0.493989    30A     -0.479686
      31A     -0.448784    32A     -0.434974    33A     -0.351690

  @DF-RHF Final Energy:  -451.63045437093479

   => Energetics <=

    Nuclear Repulsion Energy =            438.0268081291569047
    One-Electron Energy =               -1484.1084591377941706
    Two-Electron Energy =                 594.4511966377024237
    Total Energy =                       -451.6304543709347854
  Basis Set: (AUG-CC-PVTZ AUX)
    Blend: AUG-CC-PVTZ-RI
    Molecular point group: c1

    Geometry (in Angstrom), charge = 0, multiplicity = 1:

       Center              X                  Y                   Z               Mass
    ------------   -----------------  -----------------  -----------------  -----------------
         N           -1.073984741158    -1.274554690872     0.019046918893    14.003074004430
         C            0.283428258842    -1.525148690872     0.019011918893    12.000000000000
         C            1.203848258842    -0.531691690872     0.019025918893    12.000000000000
         C            0.732804258842     0.852770309128     0.018901918893    12.000000000000
         N           -0.663348741158     0.989035309128     0.019027918893    14.003074004430
         C           -1.629535741158    -0.005491690872     0.019189918893    12.000000000000
         C            2.682587758842    -0.762075590872    -0.180927081107    12.000000000000
         O            1.460537258842     1.844577309128     0.019084918893    15.994914619570
         O           -2.835896741158     0.206110309128     0.019006918893    15.994914619570
         H           -1.744605741158    -2.033864690872     0.018992918893     1.007825032230
         H           -1.017817741158     1.942333309128     0.019013918893     1.007825032230
         H            0.559745258842    -2.575753690872     0.018983918893     1.007825032230
         H            3.142607258842    -0.302337690872    -0.860044081107     1.007825032230
         H            3.142582258842    -0.302206690872     0.898133918893     1.007825032230
         H            2.911930258842    -1.831016690872     0.019153918893     1.007825032230

  Basis Set: AUG-CC-PVTZ
    Blend: AUG-CC-PVTZ
  Basis Set: (AUG-CC-PVTZ AUX)
    Blend: AUG-CC-PVTZ-JKFIT
	 Reference Energy          =    -451.6304543709347854 [Eh]
	 Singles Energy            =      -0.0000000000000000 [Eh]
	 Same-Spin Energy          =      -0.4594953022141384 [Eh]
	 Opposite-Spin Energy      =      -1.3866340501499317 [Eh]
	 Correlation Energy        =      -1.8461293523640701 [Eh]
	 Total Energy              =    -453.4765837232988588 [Eh]

	 ================> DF-SCS-MP2 Energies <==================
	-----------------------------------------------------------
	 SCS Same-Spin Scale       =       0.3333333333333333 [-]
	 SCS Opposite-Spin Scale   =       1.2000000000000000 [-]
	 SCS Same-Spin Energy      =      -0.1531651007380461 [Eh]
	 SCS Opposite-Spin Energy  =      -1.6639608601799181 [Eh]
	 SCS Correlation Energy    =      -1.8171259609179642 [Eh]
	 SCS Total Energy          =    -453.4475803318527483 [Eh]
	-----------------------------------------------------------

  Dipole Moment: [D]
     X:     0.9816      Y:    -4.1909      Z:    -0.0720     Total:     4.3049

*** Psi4 exiting successfully. Buy a developer a beer!
