                               Psi4 1.3.2 release

  ==> Input File <==

--------------------------------------------------------------------------
#psi4
#
memory 32 gb

molecule  {
0 1
  N       -1.1265450    -1.2362860     0.0000060
  C        0.2308680    -1.4868800    -0.0000290
  C        1.1512880    -0.4934230    -0.0000150
  C        0.6802440     0.8910390    -0.0001390
  N       -0.7159090     1.0273040    -0.0000130
  C       -1.6820960     0.0327770     0.0001490
  C        2.6300190    -0.7237960     0.0000320
  O        1.4079770     1.8828460     0.0000440
  O       -2.8884570     0.2443790    -0.0000340
  H       -1.7971660    -1.9955960    -0.0000480
  H       -1.0703881     1.9805961    -0.1000270
  H        0.5071850    -2.5374850    -0.0000570
  H        3.0900470    -0.2640690    -0.8790850
  H        3.0900220    -0.2639380     0.8790930
  H        2.8593700    -1.7927480     0.0001130
units angstrom
no_reorient  #important for SAPT in psi4, default
symmetry c1  #important for SAPT in psi4, default
}

set PROPERTIES_ORIGIN ["COM"]
properties('MP2/aug-cc-pvtz', properties = ['dipole'])
--------------------------------------------------------------------------

    Molecular point group: c1
  Charge       = 0
  Multiplicity = 1
  Basis Set: AUG-CC-PVTZ
    Blend: AUG-CC-PVTZ
  Basis Set: (AUG-CC-PVTZ AUX)
    Blend: AUG-CC-PVTZ-JKFIT

    Orbital Energies [Eh]
    ---------------------

    Doubly Occupied:

       1A    -20.544609     2A    -20.543267     3A    -15.640598
       4A    -15.628831     5A    -11.418240     6A    -11.381071
       7A    -11.332070     8A    -11.262841     9A    -11.239524
      10A     -1.427352    11A     -1.392108    12A     -1.304999
      13A     -1.239721    14A     -1.108060    15A     -0.970108
      16A     -0.914976    17A     -0.893264    18A     -0.770409
      19A     -0.765374    20A     -0.706865    21A     -0.674532
      22A     -0.664599    23A     -0.640173    24A     -0.616350
      25A     -0.591515    26A     -0.568622    27A     -0.558047
      28A     -0.551691    29A     -0.511186    30A     -0.479452
      31A     -0.448502    32A     -0.434815    33A     -0.354492

  @DF-RHF Final Energy:  -451.67195652635115

   => Energetics <=

    Nuclear Repulsion Energy =            438.1677492248491035
    One-Electron Energy =               -1484.5228878950224498
    Two-Electron Energy =                 594.6831821438222505
    Total Energy =                       -451.6719565263510958
  Basis Set: (AUG-CC-PVTZ AUX)
    Blend: AUG-CC-PVTZ-RI
    Molecular point group: c1

    Geometry (in Angstrom), charge = 0, multiplicity = 1:

       Center              X                  Y                   Z               Mass
    ------------   -----------------  -----------------  -----------------  -----------------
         N           -1.073983851152    -1.274555681438     0.000805375766    14.003074004430
         C            0.283429148848    -1.525149681438     0.000770375766    12.000000000000
         C            1.203849148848    -0.531692681438     0.000784375766    12.000000000000
         C            0.732805148848     0.852769318562     0.000660375766    12.000000000000
         N           -0.663347851152     0.989034318562     0.000786375766    14.003074004430
         C           -1.629534851152    -0.005492681438     0.000948375766    12.000000000000
         C            2.682580148848    -0.762065681438     0.000831375766    12.000000000000
         O            1.460538148848     1.844576318562     0.000843375766    15.994914619570
         O           -2.835895851152     0.206109318562     0.000765375766    15.994914619570
         H           -1.744604851152    -2.033865681438     0.000751375766     1.007825032230
         H           -1.017826951152     1.942326418562    -0.099227624234     1.007825032230
         H            0.559746148848    -2.575754681438     0.000742375766     1.007825032230
         H            3.142608148848    -0.302338681438    -0.878285624234     1.007825032230
         H            3.142583148848    -0.302207681438     0.879892375766     1.007825032230
         H            2.911931148848    -1.831017681438     0.000912375766     1.007825032230

  Basis Set: AUG-CC-PVTZ
    Blend: AUG-CC-PVTZ
  Basis Set: (AUG-CC-PVTZ AUX)
    Blend: AUG-CC-PVTZ-JKFIT
	 Reference Energy          =    -451.6719565263511527 [Eh]
	 Singles Energy            =      -0.0000000000000000 [Eh]
	 Same-Spin Energy          =      -0.4590097883777459 [Eh]
	 Opposite-Spin Energy      =      -1.3848594453458511 [Eh]
	 Correlation Energy        =      -1.8438692337235971 [Eh]
	 Total Energy              =    -453.5158257600747334 [Eh]

	 ================> DF-SCS-MP2 Energies <==================
	-----------------------------------------------------------
	 SCS Same-Spin Scale       =       0.3333333333333333 [-]
	 SCS Opposite-Spin Scale   =       1.2000000000000000 [-]
	 SCS Same-Spin Energy      =      -0.1530032627925820 [Eh]
	 SCS Opposite-Spin Energy  =      -1.6618313344150213 [Eh]
	 SCS Correlation Energy    =      -1.8148345972076032 [Eh]
	 SCS Total Energy          =    -453.4867911235587599 [Eh]
	-----------------------------------------------------------

  Dipole Moment: [D]
     X:     1.0369      Y:    -4.1894      Z:    -0.1306     Total:     4.3178

*** Psi4 exiting successfully. Buy a developer a beer!
