                               Psi4 1.3.2 release

  ==> Input File <==

--------------------------------------------------------------------------
#psi4
#
memory 32 gb

molecule  {
0 1
  N       -1.1265450    -1.2362860     0.0000060
  C        0.2308680    -1.4868800    -0.0000290
  C        1.1512880    -0.4934230    -0.0000150
  C        0.6802440     0.8910390    -0.0001390
  N       -0.7159090     1.0273040    -0.0000130
  C       -1.6820960     0.0327770     0.0001490
  C        2.6300190    -0.7237960     0.0000320
  O        1.4079770     1.8828460     0.0000440
  O       -2.8884570     0.2443790    -0.0000340
  H       -1.7971660    -1.9955960    -0.0000480
  H       -1.0703830     1.9805991    -0.0500270
  H        0.5071850    -2.5374850    -0.0000570
  H        3.0900470    -0.2640690    -0.8790850
  H        3.0900220    -0.2639380     0.8790930
  H        2.8593700    -1.7927480     0.0001130
units angstrom
no_reorient  #important for SAPT in psi4, default
symmetry c1  #important for SAPT in psi4, default
}

set PROPERTIES_ORIGIN ["COM"]
properties('MP2/aug-cc-pvtz', properties = ['dipole'])
--------------------------------------------------------------------------

    Molecular point group: c1
  Charge       = 0
  Multiplicity = 1
  Basis Set: AUG-CC-PVTZ
    Blend: AUG-CC-PVTZ
  Basis Set: (AUG-CC-PVTZ AUX)
    Blend: AUG-CC-PVTZ-JKFIT

    Orbital Energies [Eh]
    ---------------------

    Doubly Occupied:

       1A    -20.544589     2A    -20.543243     3A    -15.640615
       4A    -15.628666     5A    -11.418280     6A    -11.381118
       7A    -11.332069     8A    -11.262859     9A    -11.239536
      10A     -1.427411    11A     -1.392127    12A     -1.305021
      13A     -1.240074    14A     -1.108086    15A     -0.970125
      16A     -0.915305    17A     -0.893415    18A     -0.770721
      19A     -0.765429    20A     -0.707261    21A     -0.674468
      22A     -0.665011    23A     -0.640194    24A     -0.616441
      25A     -0.591523    26A     -0.568618    27A     -0.558091
      28A     -0.551820    29A     -0.511219    30A     -0.479462
      31A     -0.448497    32A     -0.434831    33A     -0.354505

  @DF-RHF Final Energy:  -451.67234976494956

   => Energetics <=

    Nuclear Repulsion Energy =            438.1868110574541220
    One-Electron Energy =               -1484.5570613032325582
    Two-Electron Energy =                 594.6979004808288209
    Total Energy =                       -451.6723497649495584
  Basis Set: (AUG-CC-PVTZ AUX)
    Blend: AUG-CC-PVTZ-RI
    Molecular point group: c1

    Geometry (in Angstrom), charge = 0, multiplicity = 1:

       Center              X                  Y                   Z               Mass
    ------------   -----------------  -----------------  -----------------  -----------------
         N           -1.073983891931    -1.274555705426     0.000405581405    14.003074004430
         C            0.283429108069    -1.525149705426     0.000370581405    12.000000000000
         C            1.203849108069    -0.531692705426     0.000384581405    12.000000000000
         C            0.732805108069     0.852769294574     0.000260581405    12.000000000000
         N           -0.663347891931     0.989034294574     0.000386581405    14.003074004430
         C           -1.629534891931    -0.005492705426     0.000548581405    12.000000000000
         C            2.682580108069    -0.762065705426     0.000431581405    12.000000000000
         O            1.460538108069     1.844576294574     0.000443581405    15.994914619570
         O           -2.835895891931     0.206109294574     0.000365581405    15.994914619570
         H           -1.744604891931    -2.033865705426     0.000351581405     1.007825032230
         H           -1.017821891931     1.942329394574    -0.049627418595     1.007825032230
         H            0.559746108069    -2.575754705426     0.000342581405     1.007825032230
         H            3.142608108069    -0.302338705426    -0.878685418595     1.007825032230
         H            3.142583108069    -0.302207705426     0.879492581405     1.007825032230
         H            2.911931108069    -1.831017705426     0.000512581405     1.007825032230

  Basis Set: AUG-CC-PVTZ
    Blend: AUG-CC-PVTZ
  Basis Set: (AUG-CC-PVTZ AUX)
    Blend: AUG-CC-PVTZ-JKFIT
	 Reference Energy          =    -451.6723497649495584 [Eh]
	 Singles Energy            =      -0.0000000000000000 [Eh]
	 Same-Spin Energy          =      -0.4589758749227465 [Eh]
	 Opposite-Spin Energy      =      -1.3847844153995725 [Eh]
	 Correlation Energy        =      -1.8437602903223191 [Eh]
	 Total Energy              =    -453.5161100552718949 [Eh]

	 ================> DF-SCS-MP2 Energies <==================
	-----------------------------------------------------------
	 SCS Same-Spin Scale       =       0.3333333333333333 [-]
	 SCS Opposite-Spin Scale   =       1.2000000000000000 [-]
	 SCS Same-Spin Energy      =      -0.1529919583075822 [Eh]
	 SCS Opposite-Spin Energy  =      -1.6617412984794870 [Eh]
	 SCS Correlation Energy    =      -1.8147332567870693 [Eh]
	 SCS Total Energy          =    -453.4870830217366233 [Eh]
	-----------------------------------------------------------

  Dipole Moment: [D]
     X:     1.0365      Y:    -4.1880      Z:    -0.0654     Total:     4.3149

*** Psi4 exiting successfully. Buy a developer a beer!
