                               Psi4 1.3.2 release

  ==> Input File <==

--------------------------------------------------------------------------
#psi4
#
memory 32 gb

molecule  {
0 1
  N       -1.1265450    -1.2362860     0.0000060
  C        0.2308680    -1.4868800    -0.0000290
  C        1.1512880    -0.4934230    -0.0000150
  C        0.6802440     0.8910390    -0.0001390
  N       -0.7159090     1.0273040    -0.0000130
  C       -1.6820960     0.0327770     0.0001490
  C        2.6300190    -0.7237960     0.0000320
  O        1.4079779     1.8828471    -0.0499560
  O       -2.8884570     0.2443790    -0.0000340
  H       -1.7971660    -1.9955960    -0.0000480
  H       -1.0703780     1.9806020    -0.0000270
  H        0.5071850    -2.5374850    -0.0000570
  H        3.0900470    -0.2640690    -0.8790850
  H        3.0900220    -0.2639380     0.8790930
  H        2.8593700    -1.7927480     0.0001130
units angstrom
no_reorient  #important for SAPT in psi4, default
symmetry c1  #important for SAPT in psi4, default
}

set PROPERTIES_ORIGIN ["COM"]
properties('MP2/aug-cc-pvtz', properties = ['dipole'])
--------------------------------------------------------------------------

    Molecular point group: c1
  Charge       = 0
  Multiplicity = 1
  Basis Set: AUG-CC-PVTZ
    Blend: AUG-CC-PVTZ
  Basis Set: (AUG-CC-PVTZ AUX)
    Blend: AUG-CC-PVTZ-JKFIT

    Orbital Energies [Eh]
    ---------------------

    Doubly Occupied:

       1A    -20.544626     2A    -20.543228     3A    -15.640671
       4A    -15.628707     5A    -11.418346     6A    -11.381309
       7A    -11.332118     8A    -11.262952     9A    -11.239553
      10A     -1.427410    11A     -1.391613    12A     -1.305036
      13A     -1.240203    14A     -1.108135    15A     -0.970159
      16A     -0.915480    17A     -0.893525    18A     -0.770871
      19A     -0.765419    20A     -0.707440    21A     -0.674373
      22A     -0.665156    23A     -0.640184    24A     -0.616325
      25A     -0.591495    26A     -0.568606    27A     -0.557935
      28A     -0.551829    29A     -0.511257    30A     -0.479475
      31A     -0.448483    32A     -0.434751    33A     -0.354523

  @DF-RHF Final Energy:  -451.67218230322652

   => Energetics <=

    Nuclear Repulsion Energy =            438.1662769135464259
    One-Electron Energy =               -1484.5145377271605867
    Two-Electron Energy =                 594.6760785103876970
    Total Energy =                       -451.6721823032264638
  Basis Set: (AUG-CC-PVTZ AUX)
    Blend: AUG-CC-PVTZ-RI
    Molecular point group: c1

    Geometry (in Angstrom), charge = 0, multiplicity = 1:

       Center              X                  Y                   Z               Mass
    ------------   -----------------  -----------------  -----------------  -----------------
         N           -1.073984046121    -1.274555868205     0.006350813673    14.003074004430
         C            0.283428953879    -1.525149868205     0.006315813673    12.000000000000
         C            1.203848953879    -0.531692868205     0.006329813673    12.000000000000
         C            0.732804953879     0.852769131795     0.006205813673    12.000000000000
         N           -0.663348046121     0.989034131795     0.006331813673    14.003074004430
         C           -1.629535046121    -0.005492868205     0.006493813673    12.000000000000
         C            2.682579953879    -0.762065868205     0.006376813673    12.000000000000
         O            1.460538853879     1.844577231795    -0.043611186327    15.994914619570
         O           -2.835896046121     0.206109131795     0.006310813673    15.994914619570
         H           -1.744605046121    -2.033865868205     0.006296813673     1.007825032230
         H           -1.017817046121     1.942332131795     0.006317813673     1.007825032230
         H            0.559745953879    -2.575754868205     0.006287813673     1.007825032230
         H            3.142607953879    -0.302338868205    -0.872740186327     1.007825032230
         H            3.142582953879    -0.302207868205     0.885437813673     1.007825032230
         H            2.911930953879    -1.831017868205     0.006457813673     1.007825032230

  Basis Set: AUG-CC-PVTZ
    Blend: AUG-CC-PVTZ
  Basis Set: (AUG-CC-PVTZ AUX)
    Blend: AUG-CC-PVTZ-JKFIT
	 Reference Energy          =    -451.6721823032265206 [Eh]
	 Singles Energy            =      -0.0000000000000000 [Eh]
	 Same-Spin Energy          =      -0.4589986851979175 [Eh]
	 Opposite-Spin Energy      =      -1.3848336519323103 [Eh]
	 Correlation Energy        =      -1.8438323371302279 [Eh]
	 Total Energy              =    -453.5160146403567296 [Eh]

	 ================> DF-SCS-MP2 Energies <==================
	-----------------------------------------------------------
	 SCS Same-Spin Scale       =       0.3333333333333333 [-]
	 SCS Opposite-Spin Scale   =       1.2000000000000000 [-]
	 SCS Same-Spin Energy      =      -0.1529995617326392 [Eh]
	 SCS Opposite-Spin Energy  =      -1.6618003823187724 [Eh]
	 SCS Correlation Energy    =      -1.8147999440514115 [Eh]
	 SCS Total Energy          =    -453.4869822472779219 [Eh]
	-----------------------------------------------------------

  Dipole Moment: [D]
     X:     1.0342      Y:    -4.1901      Z:     0.0854     Total:     4.3167

*** Psi4 exiting successfully. Buy a developer a beer!
