                               Psi4 1.3.2 release

  ==> Input File <==

--------------------------------------------------------------------------
#psi4
#
memory 32 gb

molecule  {
0 1
  N       -1.1265450    -1.2362860     0.0000060
  C        0.2308680    -1.4868800    -0.0000290
  C        1.1512880    -0.4934230    -0.0000150
  C        0.6802440     0.8910390    -0.0001390
  N       -0.7159090     1.0273040    -0.0000130
  C       -1.6820960     0.0327770     0.0001490
  C        2.6300190    -0.7237960     0.0000320
  O        1.4079823     1.8828529    -0.2999560
  O       -2.8884570     0.2443790    -0.0000340
  H       -1.7971660    -1.9955960    -0.0000480
  H       -1.0703780     1.9806020    -0.0000270
  H        0.5071850    -2.5374850    -0.0000570
  H        3.0900470    -0.2640690    -0.8790850
  H        3.0900220    -0.2639380     0.8790930
  H        2.8593700    -1.7927480     0.0001130
units angstrom
no_reorient  #important for SAPT in psi4, default
symmetry c1  #important for SAPT in psi4, default
}

set PROPERTIES_ORIGIN ["COM"]
properties('MP2/aug-cc-pvtz', properties = ['dipole'])
--------------------------------------------------------------------------

    Molecular point group: c1
  Charge       = 0
  Multiplicity = 1
  Basis Set: AUG-CC-PVTZ
    Blend: AUG-CC-PVTZ
  Basis Set: (AUG-CC-PVTZ AUX)
    Blend: AUG-CC-PVTZ-JKFIT

    Orbital Energies [Eh]
    ---------------------

    Doubly Occupied:

       1A    -20.546094     2A    -20.542925     3A    -15.642409
       4A    -15.632004     5A    -11.420117     6A    -11.387114
       7A    -11.333806     8A    -11.265819     9A    -11.239969
      10A     -1.427570    11A     -1.373882    12A     -1.304964
      13A     -1.240300    14A     -1.109488    15A     -0.971120
      16A     -0.917647    17A     -0.895582    18A     -0.772405
      19A     -0.764633    20A     -0.709051    21A     -0.672411
      22A     -0.665502    23A     -0.639741    24A     -0.610642
      25A     -0.590770    26A     -0.568369    27A     -0.553373
      28A     -0.549423    29A     -0.512128    30A     -0.479806
      31A     -0.447717    32A     -0.431727    33A     -0.354983

  @DF-RHF Final Energy:  -451.66076571611433

   => Energetics <=

    Nuclear Repulsion Energy =            437.2498330542845792
    One-Electron Energy =               -1482.6742081921906902
    Two-Electron Energy =                 593.7636094217917844
    Total Energy =                       -451.6607657161142697
  Basis Set: (AUG-CC-PVTZ AUX)
    Blend: AUG-CC-PVTZ-RI
    Molecular point group: c1

    Geometry (in Angstrom), charge = 0, multiplicity = 1:

       Center              X                  Y                   Z               Mass
    ------------   -----------------  -----------------  -----------------  -----------------
         N           -1.073984604483    -1.274556604228     0.038075946817    14.003074004430
         C            0.283428395517    -1.525150604228     0.038040946817    12.000000000000
         C            1.203848395517    -0.531693604228     0.038054946817    12.000000000000
         C            0.732804395517     0.852768395772     0.037930946817    12.000000000000
         N           -0.663348604483     0.989033395772     0.038056946817    14.003074004430
         C           -1.629535604483    -0.005493604228     0.038218946817    12.000000000000
         C            2.682579395517    -0.762066604228     0.038101946817    12.000000000000
         O            1.460542695517     1.844582295772    -0.261886053183    15.994914619570
         O           -2.835896604483     0.206108395772     0.038035946817    15.994914619570
         H           -1.744605604483    -2.033866604228     0.038021946817     1.007825032230
         H           -1.017817604483     1.942331395772     0.038042946817     1.007825032230
         H            0.559745395517    -2.575755604228     0.038012946817     1.007825032230
         H            3.142607395517    -0.302339604228    -0.841015053183     1.007825032230
         H            3.142582395517    -0.302208604228     0.917162946817     1.007825032230
         H            2.911930395517    -1.831018604228     0.038182946817     1.007825032230

  Basis Set: AUG-CC-PVTZ
    Blend: AUG-CC-PVTZ
  Basis Set: (AUG-CC-PVTZ AUX)
    Blend: AUG-CC-PVTZ-JKFIT
	 Reference Energy          =    -451.6607657161143266 [Eh]
	 Singles Energy            =      -0.0000000000000000 [Eh]
	 Same-Spin Energy          =      -0.4601790300718093 [Eh]
	 Opposite-Spin Energy      =      -1.3874841012549979 [Eh]
	 Correlation Energy        =      -1.8476631313268070 [Eh]
	 Total Energy              =    -453.5084288474411096 [Eh]

	 ================> DF-SCS-MP2 Energies <==================
	-----------------------------------------------------------
	 SCS Same-Spin Scale       =       0.3333333333333333 [-]
	 SCS Opposite-Spin Scale   =       1.2000000000000000 [-]
	 SCS Same-Spin Energy      =      -0.1533930100239364 [Eh]
	 SCS Opposite-Spin Energy  =      -1.6649809215059974 [Eh]
	 SCS Correlation Energy    =      -1.8183739315299339 [Eh]
	 SCS Total Energy          =    -453.4791396476442742 [Eh]
	-----------------------------------------------------------

  Dipole Moment: [D]
     X:     0.9614      Y:    -4.2724      Z:     0.5143     Total:     4.4093

*** Psi4 exiting successfully. Buy a developer a beer!
