                               Psi4 1.3.2 release

  ==> Input File <==

--------------------------------------------------------------------------
#psi4
#
memory 32 gb

molecule  {
0 1
  S        1.9015010     0.0014740    -0.5114990
  O        0.2966630    -0.0047940     1.6103990
  C       -0.8837975    -0.2486029    -0.4916303
  C       -1.6918460     1.2669440    -0.1967440
  C       -1.6921440    -1.2655900    -0.2038620
  C        0.3503050    -0.0012110     0.3916140
  H       -0.5708550     0.0043180    -1.5417560
  H       -2.5996000     1.2838970    -0.8066260
  H       -1.1130310     2.1686550    -0.4169050
  H       -1.9752560     1.2862630     0.8584890
  H       -2.5999060    -1.2788960    -0.8138230
  H       -1.1135430    -2.1661840    -0.4290990
  H       -1.9755470    -1.2907820     0.8512470
  H        2.6553200    -0.0017420     0.5985790
units angstrom
no_reorient  #important for SAPT in psi4, default
symmetry c1  #important for SAPT in psi4, default
}

set PROPERTIES_ORIGIN ["COM"]
properties('MP2/aug-cc-pvtz', properties = ['dipole'])
--------------------------------------------------------------------------

    Molecular point group: c1
  Charge       = 0
  Multiplicity = 1
  Basis Set: AUG-CC-PVTZ
    Blend: AUG-CC-PVTZ
  Basis Set: (AUG-CC-PVTZ AUX)
    Blend: AUG-CC-PVTZ-JKFIT

    Orbital Energies [Eh]
    ---------------------

    Doubly Occupied:

       1A    -91.982947     2A    -20.559229     3A    -11.371752
       4A    -11.263873     5A    -11.237227     6A    -11.220392
       7A     -8.984875     8A     -6.666036     9A     -6.664964
      10A     -6.664151    11A     -1.397277    12A     -1.120662
      13A     -1.024293    14A     -0.943500    15A     -0.863404
      16A     -0.731892    17A     -0.672277    18A     -0.649542
      19A     -0.616748    20A     -0.601049    21A     -0.566602
      22A     -0.554645    23A     -0.532553    24A     -0.529848
      25A     -0.508608    26A     -0.429410    27A     -0.400781
      28A     -0.391784

  @DF-RHF Final Energy:  -628.57394085147007

   => Energetics <=

    Nuclear Repulsion Energy =            294.9968390930345095
    One-Electron Energy =               -1448.8409198262422706
    Two-Electron Energy =                 525.2701398817375775
    Total Energy =                       -628.5739408514700699
  Basis Set: (AUG-CC-PVTZ AUX)
    Blend: AUG-CC-PVTZ-RI
    Molecular point group: c1

    Geometry (in Angstrom), charge = 0, multiplicity = 1:

       Center              X                  Y                   Z               Mass
    ------------   -----------------  -----------------  -----------------  -----------------
         S            1.813400070798     0.030364813058    -0.527685248676    31.972071174400
         O            0.208562070798     0.024096813058     1.594212751324    15.994914619570
         C           -0.971898429202    -0.219712086942    -0.507816548676    12.000000000000
         C           -1.779946929202     1.295834813058    -0.212930248676    12.000000000000
         C           -1.780244929202    -1.236699186942    -0.220048248676    12.000000000000
         C            0.262204070798     0.027679813058     0.375427751324    12.000000000000
         H           -0.658955929202     0.033208813058    -1.557942248676     1.007825032230
         H           -2.687700929202     1.312787813058    -0.822812248676     1.007825032230
         H           -1.201131929202     2.197545813058    -0.433091248676     1.007825032230
         H           -2.063356929202     1.315153813058     0.842302751324     1.007825032230
         H           -2.688006929202    -1.250005186942    -0.830009248676     1.007825032230
         H           -1.201643929202    -2.137293186942    -0.445285248676     1.007825032230
         H           -2.063647929202    -1.261891186942     0.835060751324     1.007825032230
         H            2.567219070798     0.027148813058     0.582392751324     1.007825032230

  Basis Set: AUG-CC-PVTZ
    Blend: AUG-CC-PVTZ
  Basis Set: (AUG-CC-PVTZ AUX)
    Blend: AUG-CC-PVTZ-JKFIT
	 Reference Energy          =    -628.5739408514700699 [Eh]
	 Singles Energy            =      -0.0000000000000000 [Eh]
	 Same-Spin Energy          =      -0.2938792799695228 [Eh]
	 Opposite-Spin Energy      =      -0.9600196039602527 [Eh]
	 Correlation Energy        =      -1.2538988839297756 [Eh]
	 Total Energy              =    -629.8278397353998344 [Eh]

	 ================> DF-SCS-MP2 Energies <==================
	-----------------------------------------------------------
	 SCS Same-Spin Scale       =       0.3333333333333333 [-]
	 SCS Opposite-Spin Scale   =       1.2000000000000000 [-]
	 SCS Same-Spin Energy      =      -0.0979597599898409 [Eh]
	 SCS Opposite-Spin Energy  =      -1.1520235247523032 [Eh]
	 SCS Correlation Energy    =      -1.2499832847421442 [Eh]
	 SCS Total Energy          =    -629.8239241362122129 [Eh]
	-----------------------------------------------------------

  Dipole Moment: [D]
     X:    -0.6859      Y:    -0.1811      Z:    -1.5948     Total:     1.7455

*** Psi4 exiting successfully. Buy a developer a beer!
