                               Psi4 1.3.2 release

  ==> Input File <==

--------------------------------------------------------------------------
#psi4
#
memory 32 gb

molecule  {
0 1
  S        1.9015010     0.0014740    -0.5114990
  O        0.2966630    -0.0047940     1.6103990
  C       -0.8837978    -0.1986031    -0.4914829
  C       -1.6918460     1.2669440    -0.1967440
  C       -1.6921440    -1.2655900    -0.2038620
  C        0.3503050    -0.0012110     0.3916140
  H       -0.5708550     0.0043180    -1.5417560
  H       -2.5996000     1.2838970    -0.8066260
  H       -1.1130310     2.1686550    -0.4169050
  H       -1.9752560     1.2862630     0.8584890
  H       -2.5999060    -1.2788960    -0.8138230
  H       -1.1135430    -2.1661840    -0.4290990
  H       -1.9755470    -1.2907820     0.8512470
  H        2.6553200    -0.0017420     0.5985790
units angstrom
no_reorient  #important for SAPT in psi4, default
symmetry c1  #important for SAPT in psi4, default
}

set PROPERTIES_ORIGIN ["COM"]
properties('MP2/aug-cc-pvtz', properties = ['dipole'])
--------------------------------------------------------------------------

    Molecular point group: c1
  Charge       = 0
  Multiplicity = 1
  Basis Set: AUG-CC-PVTZ
    Blend: AUG-CC-PVTZ
  Basis Set: (AUG-CC-PVTZ AUX)
    Blend: AUG-CC-PVTZ-JKFIT

    Orbital Energies [Eh]
    ---------------------

    Doubly Occupied:

       1A    -91.982764     2A    -20.559649     3A    -11.370956
       4A    -11.261715     5A    -11.236567     6A    -11.222179
       7A     -8.984715     8A     -6.665880     9A     -6.664801
      10A     -6.663995    11A     -1.397610    12A     -1.114196
      13A     -1.022962    14A     -0.944777    15A     -0.864550
      16A     -0.732533    17A     -0.671395    18A     -0.648007
      19A     -0.610876    20A     -0.600170    21A     -0.564603
      22A     -0.554769    23A     -0.529714    24A     -0.528595
      25A     -0.510543    26A     -0.440773    27A     -0.404171
      28A     -0.393277

  @DF-RHF Final Energy:  -628.59503667769263

   => Energetics <=

    Nuclear Repulsion Energy =            294.9897851579190160
    One-Electron Energy =               -1448.8761586816292493
    Two-Electron Energy =                 525.2913368460176571
    Total Energy =                       -628.5950366776926330
  Basis Set: (AUG-CC-PVTZ AUX)
    Blend: AUG-CC-PVTZ-RI
    Molecular point group: c1

    Geometry (in Angstrom), charge = 0, multiplicity = 1:

       Center              X                  Y                   Z               Mass
    ------------   -----------------  -----------------  -----------------  -----------------
         S            1.813400105404     0.024597246131    -0.527702251531    31.972071174400
         O            0.208562105404     0.018329246131     1.594195748469    15.994914619570
         C           -0.971898694596    -0.175479853869    -0.507686151531    12.000000000000
         C           -1.779946894596     1.290067246131    -0.212947251531    12.000000000000
         C           -1.780244894596    -1.242466753869    -0.220065251531    12.000000000000
         C            0.262204105404     0.021912246131     0.375410748469    12.000000000000
         H           -0.658955894596     0.027441246131    -1.557959251531     1.007825032230
         H           -2.687700894596     1.307020246131    -0.822829251531     1.007825032230
         H           -1.201131894596     2.191778246131    -0.433108251531     1.007825032230
         H           -2.063356894596     1.309386246131     0.842285748469     1.007825032230
         H           -2.688006894596    -1.255772753869    -0.830026251531     1.007825032230
         H           -1.201643894596    -2.143060753869    -0.445302251531     1.007825032230
         H           -2.063647894596    -1.267658753869     0.835043748469     1.007825032230
         H            2.567219105404     0.021381246131     0.582375748469     1.007825032230

  Basis Set: AUG-CC-PVTZ
    Blend: AUG-CC-PVTZ
  Basis Set: (AUG-CC-PVTZ AUX)
    Blend: AUG-CC-PVTZ-JKFIT
	 Reference Energy          =    -628.5950366776926330 [Eh]
	 Singles Energy            =      -0.0000000000000000 [Eh]
	 Same-Spin Energy          =      -0.2929180571040032 [Eh]
	 Opposite-Spin Energy      =      -0.9584115689818110 [Eh]
	 Correlation Energy        =      -1.2513296260858142 [Eh]
	 Total Energy              =    -629.8463663037784954 [Eh]

	 ================> DF-SCS-MP2 Energies <==================
	-----------------------------------------------------------
	 SCS Same-Spin Scale       =       0.3333333333333333 [-]
	 SCS Opposite-Spin Scale   =       1.2000000000000000 [-]
	 SCS Same-Spin Energy      =      -0.0976393523680011 [Eh]
	 SCS Opposite-Spin Energy  =      -1.1500938827781733 [Eh]
	 SCS Correlation Energy    =      -1.2477332351461743 [Eh]
	 SCS Total Energy          =    -629.8427699128387758 [Eh]
	-----------------------------------------------------------

  Dipole Moment: [D]
     X:    -0.6693      Y:    -0.1264      Z:    -1.5958     Total:     1.7351

*** Psi4 exiting successfully. Buy a developer a beer!
