                               Psi4 1.3.2 release

  ==> Input File <==

--------------------------------------------------------------------------
#psi4
#
memory 32 gb

molecule  {
0 1
  S        1.9015010     0.0014740    -0.5114990
  O        0.2966630    -0.0047940     1.6103990
  C       -0.8837981    -0.1486033    -0.4913354
  C       -1.6918460     1.2669440    -0.1967440
  C       -1.6921440    -1.2655900    -0.2038620
  C        0.3503050    -0.0012110     0.3916140
  H       -0.5708550     0.0043180    -1.5417560
  H       -2.5996000     1.2838970    -0.8066260
  H       -1.1130310     2.1686550    -0.4169050
  H       -1.9752560     1.2862630     0.8584890
  H       -2.5999060    -1.2788960    -0.8138230
  H       -1.1135430    -2.1661840    -0.4290990
  H       -1.9755470    -1.2907820     0.8512470
  H        2.6553200    -0.0017420     0.5985790
units angstrom
no_reorient  #important for SAPT in psi4, default
symmetry c1  #important for SAPT in psi4, default
}

set PROPERTIES_ORIGIN ["COM"]
properties('MP2/aug-cc-pvtz', properties = ['dipole'])
--------------------------------------------------------------------------

    Molecular point group: c1
  Charge       = 0
  Multiplicity = 1
  Basis Set: AUG-CC-PVTZ
    Blend: AUG-CC-PVTZ
  Basis Set: (AUG-CC-PVTZ AUX)
    Blend: AUG-CC-PVTZ-JKFIT

    Orbital Energies [Eh]
    ---------------------

    Doubly Occupied:

       1A    -91.982628     2A    -20.559990     3A    -11.370337
       4A    -11.260037     5A    -11.235459     6A    -11.224149
       7A     -8.984598     8A     -6.665765     9A     -6.664681
      10A     -6.663881    11A     -1.397880    12A     -1.109357
      13A     -1.021707    14A     -0.945733    15A     -0.865405
      16A     -0.733124    17A     -0.670799    18A     -0.646880
      19A     -0.606298    20A     -0.599464    21A     -0.562514
      22A     -0.554935    23A     -0.529550    24A     -0.523390
      25A     -0.511582    26A     -0.453512    27A     -0.406573
      28A     -0.393800

  @DF-RHF Final Energy:  -628.61112283629711

   => Energetics <=

    Nuclear Repulsion Energy =            294.9850400731092464
    One-Electron Energy =               -1448.9042693295939443
    Two-Electron Energy =                 525.3081064201875279
    Total Energy =                       -628.6111228362971133
  Basis Set: (AUG-CC-PVTZ AUX)
    Blend: AUG-CC-PVTZ-RI
    Molecular point group: c1

    Geometry (in Angstrom), charge = 0, multiplicity = 1:

       Center              X                  Y                   Z               Mass
    ------------   -----------------  -----------------  -----------------  -----------------
         S            1.813400140009     0.018829679203    -0.527719265922    31.972071174400
         O            0.208562140009     0.012561679203     1.594178734078    15.994914619570
         C           -0.971898959991    -0.131247620797    -0.507555665922    12.000000000000
         C           -1.779946859991     1.284299679203    -0.212964265922    12.000000000000
         C           -1.780244859991    -1.248234320797    -0.220082265922    12.000000000000
         C            0.262204140009     0.016144679203     0.375393734078    12.000000000000
         H           -0.658955859991     0.021673679203    -1.557976265922     1.007825032230
         H           -2.687700859991     1.301252679203    -0.822846265922     1.007825032230
         H           -1.201131859991     2.186010679203    -0.433125265922     1.007825032230
         H           -2.063356859991     1.303618679203     0.842268734078     1.007825032230
         H           -2.688006859991    -1.261540320797    -0.830043265922     1.007825032230
         H           -1.201643859991    -2.148828320797    -0.445319265922     1.007825032230
         H           -2.063647859991    -1.273426320797     0.835026734078     1.007825032230
         H            2.567219140009     0.015613679203     0.582358734078     1.007825032230

  Basis Set: AUG-CC-PVTZ
    Blend: AUG-CC-PVTZ
  Basis Set: (AUG-CC-PVTZ AUX)
    Blend: AUG-CC-PVTZ-JKFIT
	 Reference Energy          =    -628.6111228362971133 [Eh]
	 Singles Energy            =      -0.0000000000000000 [Eh]
	 Same-Spin Energy          =      -0.2921761708664622 [Eh]
	 Opposite-Spin Energy      =      -0.9571610602957190 [Eh]
	 Correlation Energy        =      -1.2493372311621811 [Eh]
	 Total Energy              =    -629.8604600674592575 [Eh]

	 ================> DF-SCS-MP2 Energies <==================
	-----------------------------------------------------------
	 SCS Same-Spin Scale       =       0.3333333333333333 [-]
	 SCS Opposite-Spin Scale   =       1.2000000000000000 [-]
	 SCS Same-Spin Energy      =      -0.0973920569554874 [Eh]
	 SCS Opposite-Spin Energy  =      -1.1485932723548629 [Eh]
	 SCS Correlation Energy    =      -1.2459853293103502 [Eh]
	 SCS Total Energy          =    -629.8571081656074284 [Eh]
	-----------------------------------------------------------

  Dipole Moment: [D]
     X:    -0.6558      Y:    -0.0836      Z:    -1.5966     Total:     1.7281

*** Psi4 exiting successfully. Buy a developer a beer!
