                               Psi4 1.3.2 release

  ==> Input File <==

--------------------------------------------------------------------------
#psi4
#
memory 32 gb

molecule  {
0 1
  S        1.9015010     0.0014740    -0.5114990
  O        0.2966630    -0.0047940     1.6103990
  C       -0.8837987    -0.0486038    -0.4910405
  C       -1.6918460     1.2669440    -0.1967440
  C       -1.6921440    -1.2655900    -0.2038620
  C        0.3503050    -0.0012110     0.3916140
  H       -0.5708550     0.0043180    -1.5417560
  H       -2.5996000     1.2838970    -0.8066260
  H       -1.1130310     2.1686550    -0.4169050
  H       -1.9752560     1.2862630     0.8584890
  H       -2.5999060    -1.2788960    -0.8138230
  H       -1.1135430    -2.1661840    -0.4290990
  H       -1.9755470    -1.2907820     0.8512470
  H        2.6553200    -0.0017420     0.5985790
units angstrom
no_reorient  #important for SAPT in psi4, default
symmetry c1  #important for SAPT in psi4, default
}

set PROPERTIES_ORIGIN ["COM"]
properties('MP2/aug-cc-pvtz', properties = ['dipole'])
--------------------------------------------------------------------------

    Molecular point group: c1
  Charge       = 0
  Multiplicity = 1
  Basis Set: AUG-CC-PVTZ
    Blend: AUG-CC-PVTZ
  Basis Set: (AUG-CC-PVTZ AUX)
    Blend: AUG-CC-PVTZ-JKFIT

    Orbital Energies [Eh]
    ---------------------

    Doubly Occupied:

       1A    -91.982481     2A    -20.560398     3A    -11.369631
       4A    -11.258118     5A    -11.232270     6A    -11.228307
       7A     -8.984471     8A     -6.665642     9A     -6.664551
      10A     -6.663759    11A     -1.398202    12A     -1.104082
      13A     -1.019997    14A     -0.946781    15A     -0.866341
      16A     -0.733897    17A     -0.670210    18A     -0.645669
      19A     -0.601392    20A     -0.598499    21A     -0.559268
      22A     -0.555502    23A     -0.529330    24A     -0.517122
      25A     -0.502472    26A     -0.479576    27A     -0.408906
      28A     -0.394133

  @DF-RHF Final Energy:  -628.62914293668211

   => Energetics <=

    Nuclear Repulsion Energy =            294.9805198283805225
    One-Electron Energy =               -1448.9373141447874787
    Two-Electron Energy =                 525.3276513797248981
    Total Energy =                       -628.6291429366821149
  Basis Set: (AUG-CC-PVTZ AUX)
    Blend: AUG-CC-PVTZ-RI
    Molecular point group: c1

    Geometry (in Angstrom), charge = 0, multiplicity = 1:

       Center              X                  Y                   Z               Mass
    ------------   -----------------  -----------------  -----------------  -----------------
         S            1.813400209220     0.007294556883    -0.527753283167    31.972071174400
         O            0.208562209220     0.001026556883     1.594144716833    15.994914619570
         C           -0.971899490780    -0.042783243117    -0.507294783167    12.000000000000
         C           -1.779946790780     1.272764556883    -0.212998283167    12.000000000000
         C           -1.780244790780    -1.259769443117    -0.220116283167    12.000000000000
         C            0.262204209220     0.004609556883     0.375359716833    12.000000000000
         H           -0.658955790780     0.010138556883    -1.558010283167     1.007825032230
         H           -2.687700790780     1.289717556883    -0.822880283167     1.007825032230
         H           -1.201131790780     2.174475556883    -0.433159283167     1.007825032230
         H           -2.063356790780     1.292083556883     0.842234716833     1.007825032230
         H           -2.688006790780    -1.273075443117    -0.830077283167     1.007825032230
         H           -1.201643790780    -2.160363443117    -0.445353283167     1.007825032230
         H           -2.063647790780    -1.284961443117     0.834992716833     1.007825032230
         H            2.567219209220     0.004078556883     0.582324716833     1.007825032230

  Basis Set: AUG-CC-PVTZ
    Blend: AUG-CC-PVTZ
  Basis Set: (AUG-CC-PVTZ AUX)
    Blend: AUG-CC-PVTZ-JKFIT
	 Reference Energy          =    -628.6291429366821149 [Eh]
	 Singles Energy            =      -0.0000000000000000 [Eh]
	 Same-Spin Energy          =      -0.2913362292398581 [Eh]
	 Opposite-Spin Energy      =      -0.9557369775209732 [Eh]
	 Correlation Energy        =      -1.2470732067608312 [Eh]
	 Total Energy              =    -629.8762161434430027 [Eh]

	 ================> DF-SCS-MP2 Energies <==================
	-----------------------------------------------------------
	 SCS Same-Spin Scale       =       0.3333333333333333 [-]
	 SCS Opposite-Spin Scale   =       1.2000000000000000 [-]
	 SCS Same-Spin Energy      =      -0.0971120764132860 [Eh]
	 SCS Opposite-Spin Energy  =      -1.1468843730251679 [Eh]
	 SCS Correlation Energy    =      -1.2439964494384539 [Eh]
	 SCS Total Energy          =    -629.8731393861205561 [Eh]
	-----------------------------------------------------------

  Dipole Moment: [D]
     X:    -0.6398      Y:    -0.0210      Z:    -1.5975     Total:     1.7210

*** Psi4 exiting successfully. Buy a developer a beer!
