                               Psi4 1.3.2 release

  ==> Input File <==

--------------------------------------------------------------------------
#psi4
#
memory 32 gb

molecule  {
0 1
  S        1.9015010     0.0014740    -0.5114990
  O        0.2966630    -0.0047940     1.6103990
  C       -0.8837984    -0.0986036    -0.4911879
  C       -1.6918460     1.2669440    -0.1967440
  C       -1.6921440    -1.2655900    -0.2038620
  C        0.3503050    -0.0012110     0.3916140
  H       -0.5708550     0.0043180    -1.5417560
  H       -2.5996000     1.2838970    -0.8066260
  H       -1.1130310     2.1686550    -0.4169050
  H       -1.9752560     1.2862630     0.8584890
  H       -2.5999060    -1.2788960    -0.8138230
  H       -1.1135430    -2.1661840    -0.4290990
  H       -1.9755470    -1.2907820     0.8512470
  H        2.6553200    -0.0017420     0.5985790
units angstrom
no_reorient  #important for SAPT in psi4, default
symmetry c1  #important for SAPT in psi4, default
}

set PROPERTIES_ORIGIN ["COM"]
properties('MP2/aug-cc-pvtz', properties = ['dipole'])
--------------------------------------------------------------------------

    Molecular point group: c1
  Charge       = 0
  Multiplicity = 1
  Basis Set: AUG-CC-PVTZ
    Blend: AUG-CC-PVTZ
  Basis Set: (AUG-CC-PVTZ AUX)
    Blend: AUG-CC-PVTZ-JKFIT

    Orbital Energies [Eh]
    ---------------------

    Doubly Occupied:

       1A    -91.982535     2A    -20.560242     3A    -11.369896
       4A    -11.258837     5A    -11.233998     6A    -11.226218
       7A     -8.984517     8A     -6.665687     9A     -6.664599
      10A     -6.663804    11A     -1.398080    12A     -1.106024
      13A     -1.020675    14A     -0.946394    15A     -0.865995
      16A     -0.733595    17A     -0.670420    18A     -0.646113
      19A     -0.603147    20A     -0.598909    21A     -0.560640
      22A     -0.555188    23A     -0.529417    24A     -0.518558
      25A     -0.509864    26A     -0.466668    27A     -0.408079
      28A     -0.394029

  @DF-RHF Final Energy:  -628.62243210639258

   => Energetics <=

    Nuclear Repulsion Energy =            294.9820889924939138
    One-Electron Energy =               -1448.9247849192704507
    Two-Electron Energy =                 525.3202638203840706
    Total Energy =                       -628.6224321063925800
  Basis Set: (AUG-CC-PVTZ AUX)
    Blend: AUG-CC-PVTZ-RI
    Molecular point group: c1

    Geometry (in Angstrom), charge = 0, multiplicity = 1:

       Center              X                  Y                   Z               Mass
    ------------   -----------------  -----------------  -----------------  -----------------
         S            1.813400174615     0.013062123811    -0.527736280312    31.972071174400
         O            0.208562174615     0.006794123811     1.594161719688    15.994914619570
         C           -0.971899225385    -0.087015476189    -0.507425180312    12.000000000000
         C           -1.779946825385     1.278532123811    -0.212981280312    12.000000000000
         C           -1.780244825385    -1.254001876189    -0.220099280312    12.000000000000
         C            0.262204174615     0.010377123811     0.375376719688    12.000000000000
         H           -0.658955825385     0.015906123811    -1.557993280312     1.007825032230
         H           -2.687700825385     1.295485123811    -0.822863280312     1.007825032230
         H           -1.201131825385     2.180243123811    -0.433142280312     1.007825032230
         H           -2.063356825385     1.297851123811     0.842251719688     1.007825032230
         H           -2.688006825385    -1.267307876189    -0.830060280312     1.007825032230
         H           -1.201643825385    -2.154595876189    -0.445336280312     1.007825032230
         H           -2.063647825385    -1.279193876189     0.835009719688     1.007825032230
         H            2.567219174615     0.009846123811     0.582341719688     1.007825032230

  Basis Set: AUG-CC-PVTZ
    Blend: AUG-CC-PVTZ
  Basis Set: (AUG-CC-PVTZ AUX)
    Blend: AUG-CC-PVTZ-JKFIT
	 Reference Energy          =    -628.6224321063925800 [Eh]
	 Singles Energy            =      -0.0000000000000000 [Eh]
	 Same-Spin Energy          =      -0.2916500965406064 [Eh]
	 Opposite-Spin Energy      =      -0.9562700479045249 [Eh]
	 Correlation Energy        =      -1.2479201444451313 [Eh]
	 Total Energy              =    -629.8703522508377546 [Eh]

	 ================> DF-SCS-MP2 Energies <==================
	-----------------------------------------------------------
	 SCS Same-Spin Scale       =       0.3333333333333333 [-]
	 SCS Opposite-Spin Scale   =       1.2000000000000000 [-]
	 SCS Same-Spin Energy      =      -0.0972166988468688 [Eh]
	 SCS Opposite-Spin Energy  =      -1.1475240574854297 [Eh]
	 SCS Correlation Energy    =      -1.2447407563322985 [Eh]
	 SCS Total Energy          =    -629.8671728627248285 [Eh]
	-----------------------------------------------------------

  Dipole Moment: [D]
     X:    -0.6459      Y:    -0.0495      Z:    -1.5972     Total:     1.7236

*** Psi4 exiting successfully. Buy a developer a beer!
