                               Psi4 1.3.2 release

  ==> Input File <==

--------------------------------------------------------------------------
#psi4
#
memory 32 gb

molecule  {
0 1
  O        0.2783094    -0.3009474    -0.2399088
  C       -0.9909980     0.0554680     0.3132910
  C       -1.3188198     1.4232501    -0.2690289
  C       -1.9757110    -1.0237710    -0.0919600
  C        1.3904680     0.2879610     0.3894930
  C        2.6370710    -0.3757250    -0.1540240
  H       -0.9296780     0.1002790     1.4134780
  H       -2.3801930     1.7061600     0.1340850
  H       -0.6845360     2.2004430     0.0787750
  H       -1.4090380     1.3865860    -1.3205090
  H       -2.9778990    -0.7985510     0.2832910
  H       -1.6583780    -1.9911630     0.3020950
  H       -2.0165080    -1.0921340    -1.1820510
  H        1.3948590     1.3609300     0.1519310
  H        1.3426600     0.1929310     1.4861340
  H        3.5349640     0.0832880     0.2690230
  H        2.6341170    -1.4390120     0.0941050
  H        2.6709700    -0.2748370    -1.2404260
units angstrom
no_reorient  #important for SAPT in psi4, default
symmetry c1  #important for SAPT in psi4, default
}

set PROPERTIES_ORIGIN ["COM"]
properties('MP2/aug-cc-pvtz', properties = ['dipole'])
--------------------------------------------------------------------------

    Molecular point group: c1
  Charge       = 0
  Multiplicity = 1
  Basis Set: AUG-CC-PVTZ
    Blend: AUG-CC-PVTZ
  Basis Set: (AUG-CC-PVTZ AUX)
    Blend: AUG-CC-PVTZ-JKFIT

    Orbital Energies [Eh]
    ---------------------

    Doubly Occupied:

       1A    -20.542826     2A    -11.276864     3A    -11.268461
       4A    -11.211521     5A    -11.210594     6A    -11.209521
       7A     -1.367926     8A     -1.060038     9A     -0.991185
      10A     -0.936754    11A     -0.835079    12A     -0.792342
      13A     -0.674846    14A     -0.648212    15A     -0.623591
      16A     -0.589161    17A     -0.554850    18A     -0.551725
      19A     -0.532052    20A     -0.517098    21A     -0.505012
      22A     -0.493838    23A     -0.471790    24A     -0.460608
      25A     -0.407142

  @DF-RHF Final Energy:  -271.27581990612509

   => Energetics <=

    Nuclear Repulsion Energy =            260.8253134124529993
    One-Electron Energy =                -884.7361941634358118
    Two-Electron Energy =                 352.6350608448577759
    Total Energy =                       -271.2758199061250934
  Basis Set: (AUG-CC-PVTZ AUX)
    Blend: AUG-CC-PVTZ-RI
    Molecular point group: c1

    Geometry (in Angstrom), charge = 0, multiplicity = 1:

       Center              X                  Y                   Z               Mass
    ------------   -----------------  -----------------  -----------------  -----------------
         O            0.268396087387    -0.312739107349    -0.227302666665    15.994914619570
         C           -1.000911312613     0.043676292651     0.325897133335    12.000000000000
         C           -1.328733112613     1.411458392651    -0.256422766665    12.000000000000
         C           -1.985624312613    -1.035562707349    -0.079353866665    12.000000000000
         C            1.380554687387     0.276169292651     0.402099133335    12.000000000000
         C            2.627157687387    -0.387516707349    -0.141417866665    12.000000000000
         H           -0.939591312613     0.088487292651     1.426084133335     1.007825032230
         H           -2.390106312613     1.694368292651     0.146691133335     1.007825032230
         H           -0.694449312613     2.188651292651     0.091381133335     1.007825032230
         H           -1.418951312613     1.374794292651    -1.307902866665     1.007825032230
         H           -2.987812312613    -0.810342707349     0.295897133335     1.007825032230
         H           -1.668291312613    -2.002954707349     0.314701133335     1.007825032230
         H           -2.026421312613    -1.103925707349    -1.169444866665     1.007825032230
         H            1.384945687387     1.349138292651     0.164537133335     1.007825032230
         H            1.332746687387     0.181139292651     1.498740133335     1.007825032230
         H            3.525050687387     0.071496292651     0.281629133335     1.007825032230
         H            2.624203687387    -1.450803707349     0.106711133335     1.007825032230
         H            2.661056687387    -0.286628707349    -1.227819866665     1.007825032230

  Basis Set: AUG-CC-PVTZ
    Blend: AUG-CC-PVTZ
  Basis Set: (AUG-CC-PVTZ AUX)
    Blend: AUG-CC-PVTZ-JKFIT
	 Reference Energy          =    -271.2758199061250934 [Eh]
	 Singles Energy            =      -0.0000000000000000 [Eh]
	 Same-Spin Energy          =      -0.2744473417987310 [Eh]
	 Opposite-Spin Energy      =      -0.9790877851208470 [Eh]
	 Correlation Energy        =      -1.2535351269195780 [Eh]
	 Total Energy              =    -272.5293550330446806 [Eh]

	 ================> DF-SCS-MP2 Energies <==================
	-----------------------------------------------------------
	 SCS Same-Spin Scale       =       0.3333333333333333 [-]
	 SCS Opposite-Spin Scale   =       1.2000000000000000 [-]
	 SCS Same-Spin Energy      =      -0.0914824472662437 [Eh]
	 SCS Opposite-Spin Energy  =      -1.1749053421450164 [Eh]
	 SCS Correlation Energy    =      -1.2663877894112601 [Eh]
	 SCS Total Energy          =    -272.5422076955363764 [Eh]
	-----------------------------------------------------------

  Dipole Moment: [D]
     X:    -0.1538      Y:     0.6681      Z:     0.9148     Total:     1.1432

*** Psi4 exiting successfully. Buy a developer a beer!
