                               Psi4 1.3.2 release

  ==> Input File <==

--------------------------------------------------------------------------
#psi4
#
memory 32 gb

molecule  {
0 1
  O        0.2836582    -0.3664160    -0.1781038
  C       -0.9909980     0.0554680     0.3132910
  C       -1.3870120     1.4221400    -0.2277930
  C       -1.9757110    -1.0237710    -0.0919600
  C        1.3904680     0.2879610     0.3894930
  C        2.6370710    -0.3757250    -0.1540240
  H       -0.9113253     0.0945590     1.4125197
  H       -2.3801930     1.7061600     0.1340850
  H       -0.6845360     2.2004430     0.0787750
  H       -1.4090380     1.3865860    -1.3205090
  H       -2.9778990    -0.7985510     0.2832910
  H       -1.6583780    -1.9911630     0.3020950
  H       -2.0165080    -1.0921340    -1.1820510
  H        1.3948590     1.3609300     0.1519310
  H        1.3426600     0.1929310     1.4861340
  H        3.5349640     0.0832880     0.2690230
  H        2.6341170    -1.4390120     0.0941050
  H        2.6709700    -0.2748370    -1.2404260
units angstrom
no_reorient  #important for SAPT in psi4, default
symmetry c1  #important for SAPT in psi4, default
}

set PROPERTIES_ORIGIN ["COM"]
properties('MP2/aug-cc-pvtz', properties = ['dipole'])
--------------------------------------------------------------------------

    Molecular point group: c1
  Charge       = 0
  Multiplicity = 1
  Basis Set: AUG-CC-PVTZ
    Blend: AUG-CC-PVTZ
  Basis Set: (AUG-CC-PVTZ AUX)
    Blend: AUG-CC-PVTZ-JKFIT

    Orbital Energies [Eh]
    ---------------------

    Doubly Occupied:

       1A    -20.545200     2A    -11.276239     3A    -11.268400
       4A    -11.213190     5A    -11.209361     6A    -11.208987
       7A     -1.368495     8A     -1.060667     9A     -0.992577
      10A     -0.935447    11A     -0.834877    12A     -0.791439
      13A     -0.676180    14A     -0.646808    15A     -0.619581
      16A     -0.591574    17A     -0.557424    18A     -0.543474
      19A     -0.535525    20A     -0.517411    21A     -0.514310
      22A     -0.487427    23A     -0.476374    24A     -0.456085
      25A     -0.412220

  @DF-RHF Final Energy:  -271.28391112856582

   => Energetics <=

    Nuclear Repulsion Energy =            260.3997493813561732
    One-Electron Energy =                -883.8887790235422699
    Two-Electron Energy =                 352.2051185136202776
    Total Energy =                       -271.2839111285658191
  Basis Set: (AUG-CC-PVTZ AUX)
    Blend: AUG-CC-PVTZ-RI
    Molecular point group: c1

    Geometry (in Angstrom), charge = 0, multiplicity = 1:

       Center              X                  Y                   Z               Mass
    ------------   -----------------  -----------------  -----------------  -----------------
         O            0.281853254949    -0.366103439328    -0.182326485389    15.994914619570
         C           -0.992802945051     0.055780560672     0.309068314611    12.000000000000
         C           -1.388816945051     1.422452560672    -0.232015685389    12.000000000000
         C           -1.977515945051    -1.023458439328    -0.096182685389    12.000000000000
         C            1.388663054949     0.288273560672     0.385270314611    12.000000000000
         C            2.635266054949    -0.375412439328    -0.158246685389    12.000000000000
         H           -0.913130245051     0.094871560672     1.408297014611     1.007825032230
         H           -2.381997945051     1.706472560672     0.129862314611     1.007825032230
         H           -0.686340945051     2.200755560672     0.074552314611     1.007825032230
         H           -1.410842945051     1.386898560672    -1.324731685389     1.007825032230
         H           -2.979703945051    -0.798238439328     0.279068314611     1.007825032230
         H           -1.660182945051    -1.990850439328     0.297872314611     1.007825032230
         H           -2.018312945051    -1.091821439328    -1.186273685389     1.007825032230
         H            1.393054054949     1.361242560672     0.147708314611     1.007825032230
         H            1.340855054949     0.193243560672     1.481911314611     1.007825032230
         H            3.533159054949     0.083600560672     0.264800314611     1.007825032230
         H            2.632312054949    -1.438699439328     0.089882314611     1.007825032230
         H            2.669165054949    -0.274524439328    -1.244648685389     1.007825032230

  Basis Set: AUG-CC-PVTZ
    Blend: AUG-CC-PVTZ
  Basis Set: (AUG-CC-PVTZ AUX)
    Blend: AUG-CC-PVTZ-JKFIT
	 Reference Energy          =    -271.2839111285658191 [Eh]
	 Singles Energy            =      -0.0000000000000000 [Eh]
	 Same-Spin Energy          =      -0.2743518965445447 [Eh]
	 Opposite-Spin Energy      =      -0.9786762370708004 [Eh]
	 Correlation Energy        =      -1.2530281336153450 [Eh]
	 Total Energy              =    -272.5369392621811357 [Eh]

	 ================> DF-SCS-MP2 Energies <==================
	-----------------------------------------------------------
	 SCS Same-Spin Scale       =       0.3333333333333333 [-]
	 SCS Opposite-Spin Scale   =       1.2000000000000000 [-]
	 SCS Same-Spin Energy      =      -0.0914506321815149 [Eh]
	 SCS Opposite-Spin Energy  =      -1.1744114844849605 [Eh]
	 SCS Correlation Energy    =      -1.2658621166664754 [Eh]
	 SCS Total Energy          =    -272.5497732452323021 [Eh]
	-----------------------------------------------------------

  Dipole Moment: [D]
     X:    -0.1976      Y:     0.8444      Z:     0.7987     Total:     1.1790

*** Psi4 exiting successfully. Buy a developer a beer!
