                               Psi4 1.3.2 release

  ==> Input File <==

--------------------------------------------------------------------------
#psi4
#
memory 32 gb

molecule  {
0 1
  O        0.2540609    -0.2995205    -0.2298636
  C       -0.9909980     0.0554680     0.3132910
  C       -1.3870120     1.4221400    -0.2277930
  C       -1.9757110    -1.0237710    -0.0919600
  C        1.3904680     0.2879610     0.3894930
  C        2.6370710    -0.3757250    -0.1540240
  H       -0.9296780     0.1002790     1.4134780
  H       -2.3801930     1.7061600     0.1340850
  H       -0.6845360     2.2004430     0.0787750
  H       -1.4090380     1.3865860    -1.3205090
  H       -2.9778990    -0.7985510     0.2832910
  H       -1.6583780    -1.9911630     0.3020950
  H       -2.0165080    -1.0921340    -1.1820510
  H        1.3465174     1.3529098     0.1217809
  H        1.3426600     0.1929310     1.4861340
  H        3.5349640     0.0832880     0.2690230
  H        2.6341170    -1.4390120     0.0941050
  H        2.6709700    -0.2748370    -1.2404260
units angstrom
no_reorient  #important for SAPT in psi4, default
symmetry c1  #important for SAPT in psi4, default
}

set PROPERTIES_ORIGIN ["COM"]
properties('MP2/aug-cc-pvtz', properties = ['dipole'])
--------------------------------------------------------------------------

    Molecular point group: c1
  Charge       = 0
  Multiplicity = 1
  Basis Set: AUG-CC-PVTZ
    Blend: AUG-CC-PVTZ
  Basis Set: (AUG-CC-PVTZ AUX)
    Blend: AUG-CC-PVTZ-JKFIT

    Orbital Energies [Eh]
    ---------------------

    Doubly Occupied:

       1A    -20.543012     2A    -11.272981     3A    -11.271447
       4A    -11.212340     5A    -11.208769     6A    -11.207594
       7A     -1.371072     8A     -1.059377     9A     -0.993289
      10A     -0.933874    11A     -0.838235    12A     -0.789718
      13A     -0.675337    14A     -0.650049    15A     -0.619609
      16A     -0.589898    17A     -0.556854    18A     -0.541832
      19A     -0.535099    20A     -0.516755    21A     -0.515008
      22A     -0.493084    23A     -0.476716    24A     -0.454971
      25A     -0.407381

  @DF-RHF Final Energy:  -271.28242864282487

   => Energetics <=

    Nuclear Repulsion Energy =            260.8191605270951072
    One-Electron Energy =                -884.7345768236081085
    Two-Electron Energy =                 352.6329876536881898
    Total Energy =                       -271.2824286428248683
  Basis Set: (AUG-CC-PVTZ AUX)
    Blend: AUG-CC-PVTZ-RI
    Molecular point group: c1

    Geometry (in Angstrom), charge = 0, multiplicity = 1:

       Center              X                  Y                   Z               Mass
    ------------   -----------------  -----------------  -----------------  -----------------
         O            0.258393198043    -0.311328315925    -0.224353905535    15.994914619570
         C           -0.986665701957     0.043660184075     0.318800694465    12.000000000000
         C           -1.382679701957     1.410332184075    -0.222283305535    12.000000000000
         C           -1.971378701957    -1.035578815925    -0.086450305535    12.000000000000
         C            1.394800298043     0.276153184075     0.395002694465    12.000000000000
         C            2.641403298043    -0.387532815925    -0.148514305535    12.000000000000
         H           -0.925345701957     0.088471184075     1.418987694465     1.007825032230
         H           -2.375860701957     1.694352184075     0.139594694465     1.007825032230
         H           -0.680203701957     2.188635184075     0.084284694465     1.007825032230
         H           -1.404705701957     1.374778184075    -1.314999305535     1.007825032230
         H           -2.973566701957    -0.810358815925     0.288800694465     1.007825032230
         H           -1.654045701957    -2.002970815925     0.307604694465     1.007825032230
         H           -2.012175701957    -1.103941815925    -1.176541305535     1.007825032230
         H            1.350849698043     1.341101984075     0.127290594465     1.007825032230
         H            1.346992298043     0.181123184075     1.491643694465     1.007825032230
         H            3.539296298043     0.071480184075     0.274532694465     1.007825032230
         H            2.638449298043    -1.450819815925     0.099614694465     1.007825032230
         H            2.675302298043    -0.286644815925    -1.234916305535     1.007825032230

  Basis Set: AUG-CC-PVTZ
    Blend: AUG-CC-PVTZ
  Basis Set: (AUG-CC-PVTZ AUX)
    Blend: AUG-CC-PVTZ-JKFIT
	 Reference Energy          =    -271.2824286428248683 [Eh]
	 Singles Energy            =      -0.0000000000000000 [Eh]
	 Same-Spin Energy          =      -0.2743022368776696 [Eh]
	 Opposite-Spin Energy      =      -0.9784602835956560 [Eh]
	 Correlation Energy        =      -1.2527625204733255 [Eh]
	 Total Energy              =    -272.5351911632981796 [Eh]

	 ================> DF-SCS-MP2 Energies <==================
	-----------------------------------------------------------
	 SCS Same-Spin Scale       =       0.3333333333333333 [-]
	 SCS Opposite-Spin Scale   =       1.2000000000000000 [-]
	 SCS Same-Spin Energy      =      -0.0914340789592232 [Eh]
	 SCS Opposite-Spin Energy  =      -1.1741523403147871 [Eh]
	 SCS Correlation Energy    =      -1.2655864192740103 [Eh]
	 SCS Total Energy          =    -272.5480150620988979 [Eh]
	-----------------------------------------------------------

  Dipole Moment: [D]
     X:     0.0090      Y:     0.6845      Z:     0.9141     Total:     1.1421

*** Psi4 exiting successfully. Buy a developer a beer!
