                               Psi4 1.3.2 release

  ==> Input File <==

--------------------------------------------------------------------------
#psi4
#
memory 32 gb

molecule  {
0 1
  O        0.2824956    -0.3865122    -0.1915762
  C       -0.9909980     0.0554680     0.3132910
  C       -1.3870120     1.4221400    -0.2277930
  C       -1.9757110    -1.0237710    -0.0919600
  C        1.3904680     0.2879610     0.3894930
  C        2.6370710    -0.3757250    -0.1540240
  H       -0.9296780     0.1002790     1.4134780
  H       -2.3801930     1.7061600     0.1340850
  H       -0.6845360     2.2004430     0.0787750
  H       -1.4090380     1.3865860    -1.3205090
  H       -2.9778990    -0.7985510     0.2832910
  H       -1.6583780    -1.9911630     0.3020950
  H       -2.0165080    -1.0921340    -1.1820510
  H        1.4109768     1.3629507     0.1621299
  H        1.3426600     0.1929310     1.4861340
  H        3.5349640     0.0832880     0.2690230
  H        2.6341170    -1.4390120     0.0941050
  H        2.6709700    -0.2748370    -1.2404260
units angstrom
no_reorient  #important for SAPT in psi4, default
symmetry c1  #important for SAPT in psi4, default
}

set PROPERTIES_ORIGIN ["COM"]
properties('MP2/aug-cc-pvtz', properties = ['dipole'])
--------------------------------------------------------------------------

    Molecular point group: c1
  Charge       = 0
  Multiplicity = 1
  Basis Set: AUG-CC-PVTZ
    Blend: AUG-CC-PVTZ
  Basis Set: (AUG-CC-PVTZ AUX)
    Blend: AUG-CC-PVTZ-JKFIT

    Orbital Energies [Eh]
    ---------------------

    Doubly Occupied:

       1A    -20.547559     2A    -11.276377     3A    -11.269465
       4A    -11.213543     5A    -11.209178     6A    -11.208273
       7A     -1.362002     8A     -1.059298     9A     -0.993315
      10A     -0.935105    11A     -0.832862    12A     -0.791105
      13A     -0.674660    14A     -0.644695    15A     -0.617674
      16A     -0.590772    17A     -0.557190    18A     -0.543011
      19A     -0.534926    20A     -0.516812    21A     -0.512749
      22A     -0.485541    23A     -0.475246    24A     -0.459112
      25A     -0.414894

  @DF-RHF Final Energy:  -271.28263688773336

   => Energetics <=

    Nuclear Repulsion Energy =            259.9486374609477934
    One-Electron Energy =                -883.0118178569219936
    Two-Electron Energy =                 351.7805435082408394
    Total Energy =                       -271.2826368877333607
  Basis Set: (AUG-CC-PVTZ AUX)
    Blend: AUG-CC-PVTZ-RI
    Molecular point group: c1

    Geometry (in Angstrom), charge = 0, multiplicity = 1:

       Center              X                  Y                   Z               Mass
    ------------   -----------------  -----------------  -----------------  -----------------
         O            0.280927326040    -0.382639190344    -0.193480255240    15.994914619570
         C           -0.992566273960     0.059341009656     0.311386944760    12.000000000000
         C           -1.388580273960     1.426013009656    -0.229697055240    12.000000000000
         C           -1.977279273960    -1.019897990344    -0.093864055240    12.000000000000
         C            1.388899726040     0.291834009656     0.387588944760    12.000000000000
         C            2.635502726040    -0.371851990344    -0.155928055240    12.000000000000
         H           -0.931246273960     0.104152009656     1.411573944760     1.007825032230
         H           -2.381761273960     1.710033009656     0.132180944760     1.007825032230
         H           -0.686104273960     2.204316009656     0.076870944760     1.007825032230
         H           -1.410606273960     1.390459009656    -1.322413055240     1.007825032230
         H           -2.979467273960    -0.794677990344     0.281386944760     1.007825032230
         H           -1.659946273960    -1.987289990344     0.300190944760     1.007825032230
         H           -2.018076273960    -1.088260990344    -1.183955055240     1.007825032230
         H            1.409408526040     1.366823709656     0.160225844760     1.007825032230
         H            1.341091726040     0.196804009656     1.484229944760     1.007825032230
         H            3.533395726040     0.087161009656     0.267118944760     1.007825032230
         H            2.632548726040    -1.435138990344     0.092200944760     1.007825032230
         H            2.669401726040    -0.270963990344    -1.242330055240     1.007825032230

  Basis Set: AUG-CC-PVTZ
    Blend: AUG-CC-PVTZ
  Basis Set: (AUG-CC-PVTZ AUX)
    Blend: AUG-CC-PVTZ-JKFIT
	 Reference Energy          =    -271.2826368877333607 [Eh]
	 Singles Energy            =      -0.0000000000000000 [Eh]
	 Same-Spin Energy          =      -0.2745366401492704 [Eh]
	 Opposite-Spin Energy      =      -0.9794957466040748 [Eh]
	 Correlation Energy        =      -1.2540323867533452 [Eh]
	 Total Energy              =    -272.5366692744867123 [Eh]

	 ================> DF-SCS-MP2 Energies <==================
	-----------------------------------------------------------
	 SCS Same-Spin Scale       =       0.3333333333333333 [-]
	 SCS Opposite-Spin Scale   =       1.2000000000000000 [-]
	 SCS Same-Spin Energy      =      -0.0915122133830901 [Eh]
	 SCS Opposite-Spin Energy  =      -1.1753948959248897 [Eh]
	 SCS Correlation Energy    =      -1.2669071093079798 [Eh]
	 SCS Total Energy          =    -272.5495439970413258 [Eh]
	-----------------------------------------------------------

  Dipole Moment: [D]
     X:    -0.1808      Y:     0.9023      Z:     0.8413     Total:     1.2469

*** Psi4 exiting successfully. Buy a developer a beer!
