                               Psi4 1.3.2 release

  ==> Input File <==

--------------------------------------------------------------------------
#psi4
#
memory 32 gb

molecule  {
0 1
  O        0.2920530    -0.3676476    -0.1546370
  C       -0.9909980     0.0554680     0.3132910
  C       -1.3870120     1.4221400    -0.2277930
  C       -1.9757110    -1.0237710    -0.0919600
  C        1.3904680     0.2879610     0.3894930
  C        2.6370710    -0.3757250    -0.1540240
  H       -0.8929968     0.0888271     1.4112266
  H       -2.3801930     1.7061600     0.1340850
  H       -0.6845360     2.2004430     0.0787750
  H       -1.4090380     1.3865860    -1.3205090
  H       -2.9778990    -0.7985510     0.2832910
  H       -1.6583780    -1.9911630     0.3020950
  H       -2.0165080    -1.0921340    -1.1820510
  H        1.3948590     1.3609300     0.1519310
  H        1.3426600     0.1929310     1.4861340
  H        3.5349640     0.0832880     0.2690230
  H        2.6341170    -1.4390120     0.0941050
  H        2.6709700    -0.2748370    -1.2404260
units angstrom
no_reorient  #important for SAPT in psi4, default
symmetry c1  #important for SAPT in psi4, default
}

set PROPERTIES_ORIGIN ["COM"]
properties('MP2/aug-cc-pvtz', properties = ['dipole'])
--------------------------------------------------------------------------

    Molecular point group: c1
  Charge       = 0
  Multiplicity = 1
  Basis Set: AUG-CC-PVTZ
    Blend: AUG-CC-PVTZ
  Basis Set: (AUG-CC-PVTZ AUX)
    Blend: AUG-CC-PVTZ-JKFIT

    Orbital Energies [Eh]
    ---------------------

    Doubly Occupied:

       1A    -20.543942     2A    -11.277052     3A    -11.266870
       4A    -11.214068     5A    -11.209907     6A    -11.208745
       7A     -1.372772     8A     -1.062072     9A     -0.991851
      10A     -0.936111    11A     -0.835782    12A     -0.791997
      13A     -0.677423    14A     -0.647689    15A     -0.620983
      16A     -0.592590    17A     -0.557825    18A     -0.544271
      19A     -0.536073    20A     -0.517799    21A     -0.515474
      22A     -0.487402    23A     -0.477370    24A     -0.453644
      25A     -0.410865

  @DF-RHF Final Energy:  -271.28354730991822

   => Energetics <=

    Nuclear Repulsion Energy =            260.6236357942264590
    One-Electron Energy =                -884.3132166163222792
    Two-Electron Energy =                 352.4060335121776575
    Total Energy =                       -271.2835473099182195
  Basis Set: (AUG-CC-PVTZ AUX)
    Blend: AUG-CC-PVTZ-RI
    Molecular point group: c1

    Geometry (in Angstrom), charge = 0, multiplicity = 1:

       Center              X                  Y                   Z               Mass
    ------------   -----------------  -----------------  -----------------  -----------------
         O            0.288514054664    -0.367045830203    -0.163105925321    15.994914619570
         C           -0.994536945336     0.056069769797     0.304822074679    12.000000000000
         C           -1.390550945336     1.422741769797    -0.236261925321    12.000000000000
         C           -1.979249945336    -1.023169230203    -0.100428925321    12.000000000000
         C            1.386929054664     0.288562769797     0.381024074679    12.000000000000
         C            2.633532054664    -0.375123230203    -0.162492925321    12.000000000000
         H           -0.896535745336     0.089428869797     1.402757674679     1.007825032230
         H           -2.383731945336     1.706761769797     0.125616074679     1.007825032230
         H           -0.688074945336     2.201044769797     0.070306074679     1.007825032230
         H           -1.412576945336     1.387187769797    -1.328977925321     1.007825032230
         H           -2.981437945336    -0.797949230203     0.274822074679     1.007825032230
         H           -1.661916945336    -1.990561230203     0.293626074679     1.007825032230
         H           -2.020046945336    -1.091532230203    -1.190519925321     1.007825032230
         H            1.391320054664     1.361531769797     0.143462074679     1.007825032230
         H            1.339121054664     0.193532769797     1.477665074679     1.007825032230
         H            3.531425054664     0.083889769797     0.260554074679     1.007825032230
         H            2.630578054664    -1.438410230203     0.085636074679     1.007825032230
         H            2.667431054664    -0.274235230203    -1.248894925321     1.007825032230

  Basis Set: AUG-CC-PVTZ
    Blend: AUG-CC-PVTZ
  Basis Set: (AUG-CC-PVTZ AUX)
    Blend: AUG-CC-PVTZ-JKFIT
	 Reference Energy          =    -271.2835473099182195 [Eh]
	 Singles Energy            =      -0.0000000000000000 [Eh]
	 Same-Spin Energy          =      -0.2742924241673262 [Eh]
	 Opposite-Spin Energy      =      -0.9782578584791785 [Eh]
	 Correlation Energy        =      -1.2525502826465047 [Eh]
	 Total Energy              =    -272.5360975925647153 [Eh]

	 ================> DF-SCS-MP2 Energies <==================
	-----------------------------------------------------------
	 SCS Same-Spin Scale       =       0.3333333333333333 [-]
	 SCS Opposite-Spin Scale   =       1.2000000000000000 [-]
	 SCS Same-Spin Energy      =      -0.0914308080557754 [Eh]
	 SCS Opposite-Spin Energy  =      -1.1739094301750141 [Eh]
	 SCS Correlation Energy    =      -1.2653402382307894 [Eh]
	 SCS Total Energy          =    -272.5488875481490254 [Eh]
	-----------------------------------------------------------

  Dipole Moment: [D]
     X:    -0.2636      Y:     0.8388      Z:     0.7355     Total:     1.1463

*** Psi4 exiting successfully. Buy a developer a beer!
