                               Psi4 1.3.2 release

  ==> Input File <==

--------------------------------------------------------------------------
#psi4
#
memory 32 gb

molecule  {
0 1
  O        0.2793149    -0.3657521    -0.1897816
  C       -0.9909980     0.0554680     0.3132910
  C       -1.3870120     1.4221400    -0.2277930
  C       -1.9757110    -1.0237710    -0.0919600
  C        1.3904680     0.2879610     0.3894930
  C        2.6370710    -0.3757250    -0.1540240
  H       -0.9204989     0.0974206     1.4130407
  H       -2.3801930     1.7061600     0.1340850
  H       -0.6845360     2.2004430     0.0787750
  H       -1.4090380     1.3865860    -1.3205090
  H       -2.9778990    -0.7985510     0.2832910
  H       -1.6583780    -1.9911630     0.3020950
  H       -2.0165080    -1.0921340    -1.1820510
  H        1.3948590     1.3609300     0.1519310
  H        1.3426600     0.1929310     1.4861340
  H        3.5349640     0.0832880     0.2690230
  H        2.6341170    -1.4390120     0.0941050
  H        2.6709700    -0.2748370    -1.2404260
units angstrom
no_reorient  #important for SAPT in psi4, default
symmetry c1  #important for SAPT in psi4, default
}

set PROPERTIES_ORIGIN ["COM"]
properties('MP2/aug-cc-pvtz', properties = ['dipole'])
--------------------------------------------------------------------------

    Molecular point group: c1
  Charge       = 0
  Multiplicity = 1
  Basis Set: AUG-CC-PVTZ
    Blend: AUG-CC-PVTZ
  Basis Set: (AUG-CC-PVTZ AUX)
    Blend: AUG-CC-PVTZ-JKFIT

    Orbital Energies [Eh]
    ---------------------

    Doubly Occupied:

       1A    -20.545822     2A    -11.275840     3A    -11.269191
       4A    -11.212751     5A    -11.209680     6A    -11.208527
       7A     -1.366402     8A     -1.059968     9A     -0.992956
      10A     -0.935116    11A     -0.834507    12A     -0.791111
      13A     -0.675573    14A     -0.646375    15A     -0.618866
      16A     -0.591088    17A     -0.557250    18A     -0.543062
      19A     -0.535257    20A     -0.517199    21A     -0.513736
      22A     -0.487496    23A     -0.475989    24A     -0.457095
      25A     -0.412808

  @DF-RHF Final Energy:  -271.28378809766764

   => Energetics <=

    Nuclear Repulsion Energy =            260.2874074393999990
    One-Electron Energy =                -883.6750649915716167
    Two-Electron Energy =                 352.1038694545039789
    Total Energy =                       -271.2837880976676388
  Basis Set: (AUG-CC-PVTZ AUX)
    Blend: AUG-CC-PVTZ-RI
    Molecular point group: c1

    Geometry (in Angstrom), charge = 0, multiplicity = 1:

       Center              X                  Y                   Z               Mass
    ------------   -----------------  -----------------  -----------------  -----------------
         O            0.278403554169    -0.365592827983    -0.191889824693    15.994914619570
         C           -0.991909345831     0.055627272017     0.311182775307    12.000000000000
         C           -1.387923345831     1.422299272017    -0.229901224693    12.000000000000
         C           -1.976622345831    -1.023611727983    -0.094068224693    12.000000000000
         C            1.389556654169     0.288120272017     0.387384775307    12.000000000000
         C            2.636159654169    -0.375565727983    -0.156132224693    12.000000000000
         H           -0.921410245831     0.097579872017     1.410932475307     1.007825032230
         H           -2.381104345831     1.706319272017     0.131976775307     1.007825032230
         H           -0.685447345831     2.200602272017     0.076666775307     1.007825032230
         H           -1.409949345831     1.386745272017    -1.322617224693     1.007825032230
         H           -2.978810345831    -0.798391727983     0.281182775307     1.007825032230
         H           -1.659289345831    -1.991003727983     0.299986775307     1.007825032230
         H           -2.017419345831    -1.091974727983    -1.184159224693     1.007825032230
         H            1.393947654169     1.361089272017     0.149822775307     1.007825032230
         H            1.341748654169     0.193090272017     1.484025775307     1.007825032230
         H            3.534052654169     0.083447272017     0.266914775307     1.007825032230
         H            2.633205654169    -1.438852727983     0.091996775307     1.007825032230
         H            2.670058654169    -0.274677727983    -1.242534224693     1.007825032230

  Basis Set: AUG-CC-PVTZ
    Blend: AUG-CC-PVTZ
  Basis Set: (AUG-CC-PVTZ AUX)
    Blend: AUG-CC-PVTZ-JKFIT
	 Reference Energy          =    -271.2837880976676388 [Eh]
	 Singles Energy            =      -0.0000000000000000 [Eh]
	 Same-Spin Energy          =      -0.2743930481888420 [Eh]
	 Opposite-Spin Energy      =      -0.9789089958713295 [Eh]
	 Correlation Energy        =      -1.2533020440601716 [Eh]
	 Total Energy              =    -272.5370901417277878 [Eh]

	 ================> DF-SCS-MP2 Energies <==================
	-----------------------------------------------------------
	 SCS Same-Spin Scale       =       0.3333333333333333 [-]
	 SCS Opposite-Spin Scale   =       1.2000000000000000 [-]
	 SCS Same-Spin Energy      =      -0.0914643493962807 [Eh]
	 SCS Opposite-Spin Energy  =      -1.1746907950455954 [Eh]
	 SCS Correlation Energy    =      -1.2661551444418762 [Eh]
	 SCS Total Energy          =    -272.5499432421095207 [Eh]
	-----------------------------------------------------------

  Dipole Moment: [D]
     X:    -0.1642      Y:     0.8469      Z:     0.8296     Total:     1.1968

*** Psi4 exiting successfully. Buy a developer a beer!
