                               Psi4 1.3.2 release

  ==> Input File <==

--------------------------------------------------------------------------
#psi4
#
memory 32 gb

molecule  {
0 1
  O        0.2675942    -0.3434009    -0.2110858
  C       -0.9909980     0.0554680     0.3132910
  C       -1.3870120     1.4221400    -0.2277930
  C       -1.9757110    -1.0237710    -0.0919600
  C        1.3904680     0.2879610     0.3894930
  C        2.6370710    -0.3757250    -0.1540240
  H       -0.9296780     0.1002790     1.4134780
  H       -2.3801930     1.7061600     0.1340850
  H       -0.6845360     2.2004430     0.0787750
  H       -1.4090380     1.3865860    -1.3205090
  H       -2.9778990    -0.7985510     0.2832910
  H       -1.6583780    -1.9911630     0.3020950
  H       -2.0165080    -1.0921340    -1.1820510
  H        1.3787399     1.3585825     0.1418045
  H        1.3426600     0.1929310     1.4861340
  H        3.5349640     0.0832880     0.2690230
  H        2.6341170    -1.4390120     0.0941050
  H        2.6709700    -0.2748370    -1.2404260
units angstrom
no_reorient  #important for SAPT in psi4, default
symmetry c1  #important for SAPT in psi4, default
}

set PROPERTIES_ORIGIN ["COM"]
properties('MP2/aug-cc-pvtz', properties = ['dipole'])
--------------------------------------------------------------------------

    Molecular point group: c1
  Charge       = 0
  Multiplicity = 1
  Basis Set: AUG-CC-PVTZ
    Blend: AUG-CC-PVTZ
  Basis Set: (AUG-CC-PVTZ AUX)
    Blend: AUG-CC-PVTZ-JKFIT

    Orbital Energies [Eh]
    ---------------------

    Doubly Occupied:

       1A    -20.545301     2A    -11.274569     3A    -11.270509
       4A    -11.211101     5A    -11.210810     6A    -11.207885
       7A     -1.366637     8A     -1.059277     9A     -0.993350
      10A     -0.934474    11A     -0.835533    12A     -0.790400
      13A     -0.675192    14A     -0.647264    15A     -0.618624
      16A     -0.590423    17A     -0.557006    18A     -0.542312
      19A     -0.535050    20A     -0.517020    21A     -0.513673
      22A     -0.489587    23A     -0.476126    24A     -0.456805
      25A     -0.411560

  @DF-RHF Final Energy:  -271.28370734532734

   => Energetics <=

    Nuclear Repulsion Energy =            260.3956835420420362
    One-Electron Energy =                -883.8978084660113836
    Two-Electron Energy =                 352.2184175786420610
    Total Energy =                       -271.2837073453273433
  Basis Set: (AUG-CC-PVTZ AUX)
    Blend: AUG-CC-PVTZ-RI
    Molecular point group: c1

    Geometry (in Angstrom), charge = 0, multiplicity = 1:

       Center              X                  Y                   Z               Mass
    ------------   -----------------  -----------------  -----------------  -----------------
         O            0.269100502255    -0.347305940046    -0.209214814866    15.994914619570
         C           -0.989491697745     0.051562959954     0.315161985134    12.000000000000
         C           -1.385505697745     1.418234959954    -0.225922014866    12.000000000000
         C           -1.974204697745    -1.027676040046    -0.090089014866    12.000000000000
         C            1.391974302255     0.284055959954     0.391363985134    12.000000000000
         C            2.638577302255    -0.379630040046    -0.152153014866    12.000000000000
         H           -0.928171697745     0.096373959954     1.415348985134     1.007825032230
         H           -2.378686697745     1.702254959954     0.135955985134     1.007825032230
         H           -0.683029697745     2.196537959954     0.080645985134     1.007825032230
         H           -1.407531697745     1.382680959954    -1.318638014866     1.007825032230
         H           -2.976392697745    -0.802456040046     0.285161985134     1.007825032230
         H           -1.656871697745    -1.995068040046     0.303965985134     1.007825032230
         H           -2.015001697745    -1.096039040046    -1.180180014866     1.007825032230
         H            1.380246202255     1.354677459954     0.143675485134     1.007825032230
         H            1.344166302255     0.189025959954     1.488004985134     1.007825032230
         H            3.536470302255     0.079382959954     0.270893985134     1.007825032230
         H            2.635623302255    -1.442917040046     0.095975985134     1.007825032230
         H            2.672476302255    -0.278742040046    -1.238555014866     1.007825032230

  Basis Set: AUG-CC-PVTZ
    Blend: AUG-CC-PVTZ
  Basis Set: (AUG-CC-PVTZ AUX)
    Blend: AUG-CC-PVTZ-JKFIT
	 Reference Energy          =    -271.2837073453273433 [Eh]
	 Singles Energy            =      -0.0000000000000000 [Eh]
	 Same-Spin Energy          =      -0.2743708868436460 [Eh]
	 Opposite-Spin Energy      =      -0.9788717111865206 [Eh]
	 Correlation Energy        =      -1.2532425980301667 [Eh]
	 Total Energy              =    -272.5369499433575129 [Eh]

	 ================> DF-SCS-MP2 Energies <==================
	-----------------------------------------------------------
	 SCS Same-Spin Scale       =       0.3333333333333333 [-]
	 SCS Opposite-Spin Scale   =       1.2000000000000000 [-]
	 SCS Same-Spin Energy      =      -0.0914569622812153 [Eh]
	 SCS Opposite-Spin Energy  =      -1.1746460534238248 [Eh]
	 SCS Correlation Energy    =      -1.2661030157050401 [Eh]
	 SCS Total Energy          =    -272.5498103610323710 [Eh]
	-----------------------------------------------------------

  Dipole Moment: [D]
     X:    -0.0822      Y:     0.7951      Z:     0.8783     Total:     1.1876

*** Psi4 exiting successfully. Buy a developer a beer!
