                               Psi4 1.3.2 release

  ==> Input File <==

--------------------------------------------------------------------------
#psi4
#
memory 32 gb

molecule  {
0 1
  O        0.2748750    -0.3650560    -0.2014210
  C       -1.1680733     0.1142926     0.3852910
  C       -1.3870120     1.4221400    -0.2277930
  C       -1.9757110    -1.0237710    -0.0919600
  C        1.3904680     0.2879610     0.3894930
  C        2.6370710    -0.3757250    -0.1540240
  H       -0.9296780     0.1002790     1.4134780
  H       -2.3801930     1.7061600     0.1340850
  H       -0.6845360     2.2004430     0.0787750
  H       -1.4090380     1.3865860    -1.3205090
  H       -2.9778990    -0.7985510     0.2832910
  H       -1.6583780    -1.9911630     0.3020950
  H       -2.0165080    -1.0921340    -1.1820510
  H        1.3948590     1.3609300     0.1519310
  H        1.3426600     0.1929310     1.4861340
  H        3.5349640     0.0832880     0.2690230
  H        2.6341170    -1.4390120     0.0941050
  H        2.6709700    -0.2748370    -1.2404260
units angstrom
no_reorient  #important for SAPT in psi4, default
symmetry c1  #important for SAPT in psi4, default
}

set PROPERTIES_ORIGIN ["COM"]
properties('MP2/aug-cc-pvtz', properties = ['dipole'])
--------------------------------------------------------------------------

    Molecular point group: c1
  Charge       = 0
  Multiplicity = 1
  Basis Set: AUG-CC-PVTZ
    Blend: AUG-CC-PVTZ
  Basis Set: (AUG-CC-PVTZ AUX)
    Blend: AUG-CC-PVTZ-JKFIT

    Orbital Energies [Eh]
    ---------------------

    Doubly Occupied:

       1A    -20.521397     2A    -11.284302     3A    -11.256158
       4A    -11.220738     5A    -11.215829     6A    -11.200875
       7A     -1.306423     8A     -1.077778     9A     -0.983513
      10A     -0.951192    11A     -0.815222    12A     -0.797911
      13A     -0.656912    14A     -0.636545    15A     -0.624643
      16A     -0.582352    17A     -0.557409    18A     -0.551214
      19A     -0.530719    20A     -0.518442    21A     -0.511246
      22A     -0.492306    23A     -0.479870    24A     -0.422697
      25A     -0.403640

  @DF-RHF Final Energy:  -271.25057690721621

   => Energetics <=

    Nuclear Repulsion Energy =            258.2130447923477163
    One-Electron Energy =                -879.7285753540088535
    Two-Electron Energy =                 350.2649536544448665
    Total Energy =                       -271.2505769072162138
  Basis Set: (AUG-CC-PVTZ AUX)
    Blend: AUG-CC-PVTZ-RI
    Molecular point group: c1

    Geometry (in Angstrom), charge = 0, multiplicity = 1:

       Center              X                  Y                   Z               Mass
    ------------   -----------------  -----------------  -----------------  -----------------
         O            0.298997142791    -0.373069275509    -0.211229061643    15.994914619570
         C           -1.143951157209     0.106279324491     0.375482938357    12.000000000000
         C           -1.362889857209     1.414126724491    -0.237601061643    12.000000000000
         C           -1.951588857209    -1.031784275509    -0.101768061643    12.000000000000
         C            1.414590142791     0.279947724491     0.379684938357    12.000000000000
         C            2.661193142791    -0.383738275509    -0.163832061643    12.000000000000
         H           -0.905555857209     0.092265724491     1.403669938357     1.007825032230
         H           -2.356070857209     1.698146724491     0.124276938357     1.007825032230
         H           -0.660413857209     2.192429724491     0.068966938357     1.007825032230
         H           -1.384915857209     1.378572724491    -1.330317061643     1.007825032230
         H           -2.953776857209    -0.806564275509     0.273482938357     1.007825032230
         H           -1.634255857209    -1.999176275509     0.292286938357     1.007825032230
         H           -1.992385857209    -1.100147275509    -1.191859061643     1.007825032230
         H            1.418981142791     1.352916724491     0.142122938357     1.007825032230
         H            1.366782142791     0.184917724491     1.476325938357     1.007825032230
         H            3.559086142791     0.075274724491     0.259214938357     1.007825032230
         H            2.658239142791    -1.447025275509     0.084296938357     1.007825032230
         H            2.695092142791    -0.282850275509    -1.250234061643     1.007825032230

  Basis Set: AUG-CC-PVTZ
    Blend: AUG-CC-PVTZ
  Basis Set: (AUG-CC-PVTZ AUX)
    Blend: AUG-CC-PVTZ-JKFIT
	 Reference Energy          =    -271.2505769072162138 [Eh]
	 Singles Energy            =      -0.0000000000000000 [Eh]
	 Same-Spin Energy          =      -0.2767497107581968 [Eh]
	 Opposite-Spin Energy      =      -0.9845703949580791 [Eh]
	 Correlation Energy        =      -1.2613201057162757 [Eh]
	 Total Energy              =    -272.5118970129324794 [Eh]

	 ================> DF-SCS-MP2 Energies <==================
	-----------------------------------------------------------
	 SCS Same-Spin Scale       =       0.3333333333333333 [-]
	 SCS Opposite-Spin Scale   =       1.2000000000000000 [-]
	 SCS Same-Spin Energy      =      -0.0922499035860656 [Eh]
	 SCS Opposite-Spin Energy  =      -1.1814844739496948 [Eh]
	 SCS Correlation Energy    =      -1.2737343775357604 [Eh]
	 SCS Total Energy          =    -272.5243112847520024 [Eh]
	-----------------------------------------------------------

  Dipole Moment: [D]
     X:    -0.8893      Y:     0.9924      Z:     0.9496     Total:     1.6363

*** Psi4 exiting successfully. Buy a developer a beer!
