                               Psi4 1.3.2 release

  ==> Input File <==

--------------------------------------------------------------------------
#psi4
#
memory 32 gb

molecule  {
0 1
  O        0.2775509    -0.3224342    -0.2272429
  C       -0.9909980     0.0554680     0.3132910
  C       -1.3416596     1.4232967    -0.2554554
  C       -1.9757110    -1.0237710    -0.0919600
  C        1.3904680     0.2879610     0.3894930
  C        2.6370710    -0.3757250    -0.1540240
  H       -0.9296780     0.1002790     1.4134780
  H       -2.3801930     1.7061600     0.1340850
  H       -0.6845360     2.2004430     0.0787750
  H       -1.4090380     1.3865860    -1.3205090
  H       -2.9778990    -0.7985510     0.2832910
  H       -1.6583780    -1.9911630     0.3020950
  H       -2.0165080    -1.0921340    -1.1820510
  H        1.3948590     1.3609300     0.1519310
  H        1.3426600     0.1929310     1.4861340
  H        3.5349640     0.0832880     0.2690230
  H        2.6341170    -1.4390120     0.0941050
  H        2.6709700    -0.2748370    -1.2404260
units angstrom
no_reorient  #important for SAPT in psi4, default
symmetry c1  #important for SAPT in psi4, default
}

set PROPERTIES_ORIGIN ["COM"]
properties('MP2/aug-cc-pvtz', properties = ['dipole'])
--------------------------------------------------------------------------

    Molecular point group: c1
  Charge       = 0
  Multiplicity = 1
  Basis Set: AUG-CC-PVTZ
    Blend: AUG-CC-PVTZ
  Basis Set: (AUG-CC-PVTZ AUX)
    Blend: AUG-CC-PVTZ-JKFIT

    Orbital Energies [Eh]
    ---------------------

    Doubly Occupied:

       1A    -20.543922     2A    -11.276306     3A    -11.268869
       4A    -11.211504     5A    -11.209754     6A    -11.209615
       7A     -1.366725     8A     -1.059741     9A     -0.991799
      10A     -0.936020    11A     -0.834726    12A     -0.791670
      13A     -0.674801    14A     -0.647433    15A     -0.621711
      16A     -0.589192    17A     -0.552974    18A     -0.550628
      19A     -0.532778    20A     -0.516502    21A     -0.509168
      22A     -0.491911    23A     -0.473146    24A     -0.459974
      25A     -0.409562

  @DF-RHF Final Energy:  -271.28022181547783

   => Energetics <=

    Nuclear Repulsion Energy =            260.6096978186416777
    One-Electron Energy =                -884.3189805264380539
    Two-Electron Energy =                 352.4290608923184891
    Total Energy =                       -271.2802218154778302
  Basis Set: (AUG-CC-PVTZ AUX)
    Blend: AUG-CC-PVTZ-RI
    Molecular point group: c1

    Geometry (in Angstrom), charge = 0, multiplicity = 1:

       Center              X                  Y                   Z               Mass
    ------------   -----------------  -----------------  -----------------  -----------------
         O            0.270886691631    -0.330330743912    -0.218785670122    15.994914619570
         C           -0.997662208369     0.047571456088     0.321748229878    12.000000000000
         C           -1.348323808369     1.415400156088    -0.246998170122    12.000000000000
         C           -1.982375208369    -1.031667543912    -0.083502770122    12.000000000000
         C            1.383803791631     0.280064456088     0.397950229878    12.000000000000
         C            2.630406791631    -0.383621543912    -0.145566770122    12.000000000000
         H           -0.936342208369     0.092382456088     1.421935229878     1.007825032230
         H           -2.386857208369     1.698263456088     0.142542229878     1.007825032230
         H           -0.691200208369     2.192546456088     0.087232229878     1.007825032230
         H           -1.415702208369     1.378689456088    -1.312051770122     1.007825032230
         H           -2.984563208369    -0.806447543912     0.291748229878     1.007825032230
         H           -1.665042208369    -1.999059543912     0.310552229878     1.007825032230
         H           -2.023172208369    -1.100030543912    -1.173593770122     1.007825032230
         H            1.388194791631     1.353033456088     0.160388229878     1.007825032230
         H            1.335995791631     0.185034456088     1.494591229878     1.007825032230
         H            3.528299791631     0.075391456088     0.277480229878     1.007825032230
         H            2.627452791631    -1.446908543912     0.102562229878     1.007825032230
         H            2.664305791631    -0.282733543912    -1.231968770122     1.007825032230

  Basis Set: AUG-CC-PVTZ
    Blend: AUG-CC-PVTZ
  Basis Set: (AUG-CC-PVTZ AUX)
    Blend: AUG-CC-PVTZ-JKFIT
	 Reference Energy          =    -271.2802218154778302 [Eh]
	 Singles Energy            =      -0.0000000000000000 [Eh]
	 Same-Spin Energy          =      -0.2743991998481065 [Eh]
	 Opposite-Spin Energy      =      -0.9789862772951566 [Eh]
	 Correlation Energy        =      -1.2533854771432631 [Eh]
	 Total Energy              =    -272.5336072926210704 [Eh]

	 ================> DF-SCS-MP2 Energies <==================
	-----------------------------------------------------------
	 SCS Same-Spin Scale       =       0.3333333333333333 [-]
	 SCS Opposite-Spin Scale   =       1.2000000000000000 [-]
	 SCS Same-Spin Energy      =      -0.0914663999493688 [Eh]
	 SCS Opposite-Spin Energy  =      -1.1747835327541880 [Eh]
	 SCS Correlation Energy    =      -1.2662499327035568 [Eh]
	 SCS Total Energy          =    -272.5464717481813750 [Eh]
	-----------------------------------------------------------

  Dipole Moment: [D]
     X:    -0.1532      Y:     0.7323      Z:     0.8968     Total:     1.1679

*** Psi4 exiting successfully. Buy a developer a beer!
