                               Psi4 1.3.2 release

  ==> Input File <==

--------------------------------------------------------------------------
#psi4
#
memory 32 gb

molecule  {
0 1
  O        0.2748750    -0.3650560    -0.2014210
  C       -0.9909980     0.0554680     0.3132910
  C       -1.3870120     1.4221400    -0.2277930
  C       -1.9757110    -1.0237710    -0.0919600
  C        1.3119782     0.2420167     0.3479181
  C        2.6370710    -0.3757250    -0.1540240
  H       -0.9296780     0.1002790     1.4134780
  H       -2.3801930     1.7061600     0.1340850
  H       -0.6845360     2.2004430     0.0787750
  H       -1.4090380     1.3865860    -1.3205090
  H       -2.9778990    -0.7985510     0.2832910
  H       -1.6583780    -1.9911630     0.3020950
  H       -2.0165080    -1.0921340    -1.1820510
  H        1.3948590     1.3609300     0.1519310
  H        1.3426600     0.1929310     1.4861340
  H        3.5349640     0.0832880     0.2690230
  H        2.6341170    -1.4390120     0.0941050
  H        2.6709700    -0.2748370    -1.2404260
units angstrom
no_reorient  #important for SAPT in psi4, default
symmetry c1  #important for SAPT in psi4, default
}

set PROPERTIES_ORIGIN ["COM"]
properties('MP2/aug-cc-pvtz', properties = ['dipole'])
--------------------------------------------------------------------------

    Molecular point group: c1
  Charge       = 0
  Multiplicity = 1
  Basis Set: AUG-CC-PVTZ
    Blend: AUG-CC-PVTZ
  Basis Set: (AUG-CC-PVTZ AUX)
    Blend: AUG-CC-PVTZ-JKFIT

    Orbital Energies [Eh]
    ---------------------

    Doubly Occupied:

       1A    -20.555852     2A    -11.282017     3A    -11.272306
       4A    -11.215513     5A    -11.212168     6A    -11.207701
       7A     -1.405128     8A     -1.066740     9A     -0.984417
      10A     -0.938803    11A     -0.834834    12A     -0.796675
      13A     -0.687972    14A     -0.654320    15A     -0.624957
      16A     -0.595470    17A     -0.558863    18A     -0.548481
      19A     -0.538076    20A     -0.522080    21A     -0.517419
      22A     -0.485846    23A     -0.471145    24A     -0.452273
      25A     -0.405592

  @DF-RHF Final Energy:  -271.27511159608127

   => Energetics <=

    Nuclear Repulsion Energy =            261.6882979124344502
    One-Electron Energy =                -886.2575252163371715
    Two-Electron Energy =                 353.2941157078214474
    Total Energy =                       -271.2751115960812740
  Basis Set: (AUG-CC-PVTZ AUX)
    Blend: AUG-CC-PVTZ-RI
    Molecular point group: c1

    Geometry (in Angstrom), charge = 0, multiplicity = 1:

       Center              X                  Y                   Z               Mass
    ------------   -----------------  -----------------  -----------------  -----------------
         O            0.285567219822    -0.358797011772    -0.195757190442    15.994914619570
         C           -0.980305780178     0.061726988228     0.318954809558    12.000000000000
         C           -1.376319780178     1.428398988228    -0.222129190442    12.000000000000
         C           -1.965018780178    -1.017512011772    -0.086296190442    12.000000000000
         C            1.322670419822     0.248275688228     0.353581909558    12.000000000000
         C            2.647763219822    -0.369466011772    -0.148360190442    12.000000000000
         H           -0.918985780178     0.106537988228     1.419141809558     1.007825032230
         H           -2.369500780178     1.712418988228     0.139748809558     1.007825032230
         H           -0.673843780178     2.206701988228     0.084438809558     1.007825032230
         H           -1.398345780178     1.392844988228    -1.314845190442     1.007825032230
         H           -2.967206780178    -0.792292011772     0.288954809558     1.007825032230
         H           -1.647685780178    -1.984904011772     0.307758809558     1.007825032230
         H           -2.005815780178    -1.085875011772    -1.176387190442     1.007825032230
         H            1.405551219822     1.367188988228     0.157594809558     1.007825032230
         H            1.353352219822     0.199189988228     1.491797809558     1.007825032230
         H            3.545656219822     0.089546988228     0.274686809558     1.007825032230
         H            2.644809219822    -1.432753011772     0.099768809558     1.007825032230
         H            2.681662219822    -0.268578011772    -1.234762190442     1.007825032230

  Basis Set: AUG-CC-PVTZ
    Blend: AUG-CC-PVTZ
  Basis Set: (AUG-CC-PVTZ AUX)
    Blend: AUG-CC-PVTZ-JKFIT
	 Reference Energy          =    -271.2751115960812740 [Eh]
	 Singles Energy            =      -0.0000000000000000 [Eh]
	 Same-Spin Energy          =      -0.2745184188455927 [Eh]
	 Opposite-Spin Energy      =      -0.9781319570676668 [Eh]
	 Correlation Energy        =      -1.2526503759132595 [Eh]
	 Total Energy              =    -272.5277619719945505 [Eh]

	 ================> DF-SCS-MP2 Energies <==================
	-----------------------------------------------------------
	 SCS Same-Spin Scale       =       0.3333333333333333 [-]
	 SCS Opposite-Spin Scale   =       1.2000000000000000 [-]
	 SCS Same-Spin Energy      =      -0.0915061396151976 [Eh]
	 SCS Opposite-Spin Energy  =      -1.1737583484812000 [Eh]
	 SCS Correlation Energy    =      -1.2652644880963975 [Eh]
	 SCS Total Energy          =    -272.5403760841776943 [Eh]
	-----------------------------------------------------------

  Dipole Moment: [D]
     X:    -0.5590      Y:     0.7150      Z:     0.7168     Total:     1.1565

*** Psi4 exiting successfully. Buy a developer a beer!
