                               Psi4 1.3.2 release

  ==> Input File <==

--------------------------------------------------------------------------
#psi4
#
memory 32 gb

molecule  {
0 1
  O        0.2756887    -0.3544466    -0.2079365
  C       -0.9909980     0.0554680     0.3132910
  C       -1.3757170     1.4225854    -0.2347717
  C       -1.9757110    -1.0237710    -0.0919600
  C        1.3904680     0.2879610     0.3894930
  C        2.6370710    -0.3757250    -0.1540240
  H       -0.9296780     0.1002790     1.4134780
  H       -2.3801930     1.7061600     0.1340850
  H       -0.6845360     2.2004430     0.0787750
  H       -1.4090380     1.3865860    -1.3205090
  H       -2.9778990    -0.7985510     0.2832910
  H       -1.6583780    -1.9911630     0.3020950
  H       -2.0165080    -1.0921340    -1.1820510
  H        1.3948590     1.3609300     0.1519310
  H        1.3426600     0.1929310     1.4861340
  H        3.5349640     0.0832880     0.2690230
  H        2.6341170    -1.4390120     0.0941050
  H        2.6709700    -0.2748370    -1.2404260
units angstrom
no_reorient  #important for SAPT in psi4, default
symmetry c1  #important for SAPT in psi4, default
}

set PROPERTIES_ORIGIN ["COM"]
properties('MP2/aug-cc-pvtz', properties = ['dipole'])
--------------------------------------------------------------------------

    Molecular point group: c1
  Charge       = 0
  Multiplicity = 1
  Basis Set: AUG-CC-PVTZ
    Blend: AUG-CC-PVTZ
  Basis Set: (AUG-CC-PVTZ AUX)
    Blend: AUG-CC-PVTZ-JKFIT

    Orbital Energies [Eh]
    ---------------------

    Doubly Occupied:

       1A    -20.545773     2A    -11.275627     3A    -11.269678
       4A    -11.212008     5A    -11.209883     6A    -11.208488
       7A     -1.364937     8A     -1.059373     9A     -0.992920
      10A     -0.935061    11A     -0.834304    12A     -0.790921
      13A     -0.674903    14A     -0.646306    15A     -0.619010
      16A     -0.590030    17A     -0.555849    18A     -0.544522
      19A     -0.534460    20A     -0.516365    21A     -0.513098
      22A     -0.488686    23A     -0.475088    24A     -0.458517
      25A     -0.412522

  @DF-RHF Final Energy:  -271.28338665887441

   => Energetics <=

    Nuclear Repulsion Energy =            260.2839419014276245
    One-Electron Energy =                -883.6780003948475724
    Two-Electron Energy =                 352.1106718345455420
    Total Energy =                       -271.2833866588744058
  Basis Set: (AUG-CC-PVTZ AUX)
    Blend: AUG-CC-PVTZ-RI
    Molecular point group: c1

    Geometry (in Angstrom), charge = 0, multiplicity = 1:

       Center              X                  Y                   Z               Mass
    ------------   -----------------  -----------------  -----------------  -----------------
         O            0.274002133003    -0.356433526388    -0.205802531703    15.994914619570
         C           -0.992684566997     0.053481073612     0.315424968297    12.000000000000
         C           -1.377403566997     1.420598473612    -0.232637731703    12.000000000000
         C           -1.977397566997    -1.025757926388    -0.089826031703    12.000000000000
         C            1.388781433003     0.285974073612     0.391626968297    12.000000000000
         C            2.635384433003    -0.377711926388    -0.151890031703    12.000000000000
         H           -0.931364566997     0.098292073612     1.415611968297     1.007825032230
         H           -2.381879566997     1.704173073612     0.136218968297     1.007825032230
         H           -0.686222566997     2.198456073612     0.080908968297     1.007825032230
         H           -1.410724566997     1.384599073612    -1.318375031703     1.007825032230
         H           -2.979585566997    -0.800537926388     0.285424968297     1.007825032230
         H           -1.660064566997    -1.993149926388     0.304228968297     1.007825032230
         H           -2.018194566997    -1.094120926388    -1.179917031703     1.007825032230
         H            1.393172433003     1.358943073612     0.154064968297     1.007825032230
         H            1.340973433003     0.190944073612     1.488267968297     1.007825032230
         H            3.533277433003     0.081301073612     0.271156968297     1.007825032230
         H            2.632430433003    -1.440998926388     0.096238968297     1.007825032230
         H            2.669283433003    -0.276823926388    -1.238292031703     1.007825032230

  Basis Set: AUG-CC-PVTZ
    Blend: AUG-CC-PVTZ
  Basis Set: (AUG-CC-PVTZ AUX)
    Blend: AUG-CC-PVTZ-JKFIT
	 Reference Energy          =    -271.2833866588744058 [Eh]
	 Singles Energy            =      -0.0000000000000000 [Eh]
	 Same-Spin Energy          =      -0.2744138657500782 [Eh]
	 Opposite-Spin Energy      =      -0.9790674938958221 [Eh]
	 Correlation Energy        =      -1.2534813596459005 [Eh]
	 Total Energy              =    -272.5368680185202948 [Eh]

	 ================> DF-SCS-MP2 Energies <==================
	-----------------------------------------------------------
	 SCS Same-Spin Scale       =       0.3333333333333333 [-]
	 SCS Opposite-Spin Scale   =       1.2000000000000000 [-]
	 SCS Same-Spin Energy      =      -0.0914712885833594 [Eh]
	 SCS Opposite-Spin Energy  =      -1.1748809926749866 [Eh]
	 SCS Correlation Energy    =      -1.2663522812583459 [Eh]
	 SCS Total Energy          =    -272.5497389401327268 [Eh]
	-----------------------------------------------------------

  Dipole Moment: [D]
     X:    -0.1388      Y:     0.8214      Z:     0.8692     Total:     1.2040

*** Psi4 exiting successfully. Buy a developer a beer!
