                               Psi4 1.3.2 release

  ==> Input File <==

--------------------------------------------------------------------------
#psi4
#
memory 32 gb

molecule  {
0 1
  O        0.2748750    -0.3650560    -0.2014210
  C       -1.0238683     0.0072995     0.2663616
  C       -1.3870120     1.4221400    -0.2277930
  C       -1.9757110    -1.0237710    -0.0919600
  C        1.4348964     0.2477083     0.3454140
  C        2.6370710    -0.3757250    -0.1540240
  H       -0.9296780     0.1002790     1.4134780
  H       -2.3801930     1.7061600     0.1340850
  H       -0.6845360     2.2004430     0.0787750
  H       -1.4090380     1.3865860    -1.3205090
  H       -2.9778990    -0.7985510     0.2832910
  H       -1.6583780    -1.9911630     0.3020950
  H       -2.0165080    -1.0921340    -1.1820510
  H        1.3948590     1.3609300     0.1519310
  H        1.3426600     0.1929310     1.4861340
  H        3.5349640     0.0832880     0.2690230
  H        2.6341170    -1.4390120     0.0941050
  H        2.6709700    -0.2748370    -1.2404260
units angstrom
no_reorient  #important for SAPT in psi4, default
symmetry c1  #important for SAPT in psi4, default
}

set PROPERTIES_ORIGIN ["COM"]
properties('MP2/aug-cc-pvtz', properties = ['dipole'])
--------------------------------------------------------------------------

    Molecular point group: c1
  Charge       = 0
  Multiplicity = 1
  Basis Set: AUG-CC-PVTZ
    Blend: AUG-CC-PVTZ
  Basis Set: (AUG-CC-PVTZ AUX)
    Blend: AUG-CC-PVTZ-JKFIT

    Orbital Energies [Eh]
    ---------------------

    Doubly Occupied:

       1A    -20.542212     2A    -11.280011     3A    -11.275039
       4A    -11.212672     5A    -11.209050     6A    -11.207936
       7A     -1.360742     8A     -1.071809     9A     -1.007686
      10A     -0.939788    11A     -0.830220    12A     -0.779068
      13A     -0.671617    14A     -0.644600    15A     -0.625264
      16A     -0.596234    17A     -0.563634    18A     -0.543889
      19A     -0.537634    20A     -0.516330    21A     -0.513480
      22A     -0.508246    23A     -0.463882    24A     -0.448696
      25A     -0.400891

  @DF-RHF Final Energy:  -271.26960614236708

   => Energetics <=

    Nuclear Repulsion Energy =            260.5825137253824550
    One-Electron Energy =                -884.2029745032630217
    Two-Electron Energy =                 352.3508546355134854
    Total Energy =                       -271.2696061423670812
  Basis Set: (AUG-CC-PVTZ AUX)
    Blend: AUG-CC-PVTZ-RI
    Molecular point group: c1

    Geometry (in Angstrom), charge = 0, multiplicity = 1:

       Center              X                  Y                   Z               Mass
    ------------   -----------------  -----------------  -----------------  -----------------
         O            0.273300341218    -0.353010547282    -0.189023055127    15.994914619570
         C           -1.025442958782     0.019344952718     0.278759544873    12.000000000000
         C           -1.388586658782     1.434185452718    -0.215395055127    12.000000000000
         C           -1.977285658782    -1.011725547282    -0.079562055127    12.000000000000
         C            1.433321741218     0.259753752718     0.357811944873    12.000000000000
         C            2.635496341218    -0.363679547282    -0.141626055127    12.000000000000
         H           -0.931252658782     0.112324452718     1.425875944873     1.007825032230
         H           -2.381767658782     1.718205452718     0.146482944873     1.007825032230
         H           -0.686110658782     2.212488452718     0.091172944873     1.007825032230
         H           -1.410612658782     1.398631452718    -1.308111055127     1.007825032230
         H           -2.979473658782    -0.786505547282     0.295688944873     1.007825032230
         H           -1.659952658782    -1.979117547282     0.314492944873     1.007825032230
         H           -2.018082658782    -1.080088547282    -1.169653055127     1.007825032230
         H            1.393284341218     1.372975452718     0.164328944873     1.007825032230
         H            1.341085341218     0.204976452718     1.498531944873     1.007825032230
         H            3.533389341218     0.095333452718     0.281420944873     1.007825032230
         H            2.632542341218    -1.426966547282     0.106502944873     1.007825032230
         H            2.669395341218    -0.262791547282    -1.228028055127     1.007825032230

  Basis Set: AUG-CC-PVTZ
    Blend: AUG-CC-PVTZ
  Basis Set: (AUG-CC-PVTZ AUX)
    Blend: AUG-CC-PVTZ-JKFIT
	 Reference Energy          =    -271.2696061423670812 [Eh]
	 Singles Energy            =      -0.0000000000000000 [Eh]
	 Same-Spin Energy          =      -0.2753785434015027 [Eh]
	 Opposite-Spin Energy      =      -0.9798425977473809 [Eh]
	 Correlation Energy        =      -1.2552211411488836 [Eh]
	 Total Energy              =    -272.5248272835159469 [Eh]

	 ================> DF-SCS-MP2 Energies <==================
	-----------------------------------------------------------
	 SCS Same-Spin Scale       =       0.3333333333333333 [-]
	 SCS Opposite-Spin Scale   =       1.2000000000000000 [-]
	 SCS Same-Spin Energy      =      -0.0917928478005009 [Eh]
	 SCS Opposite-Spin Energy  =      -1.1758111172968571 [Eh]
	 SCS Correlation Energy    =      -1.2676039650973578 [Eh]
	 SCS Total Energy          =    -272.5372101074644320 [Eh]
	-----------------------------------------------------------

  Dipole Moment: [D]
     X:    -0.1141      Y:     0.6961      Z:     0.7188     Total:     1.0071

*** Psi4 exiting successfully. Buy a developer a beer!
