                               Psi4 1.3.2 release

  ==> Input File <==

--------------------------------------------------------------------------
#psi4
#
memory 32 gb

molecule  {
0 1
  O        0.3000571    -0.3687502    -0.1310276
  C       -0.9909980     0.0554680     0.3132910
  C       -1.3870120     1.4221400    -0.2277930
  C       -1.9757110    -1.0237710    -0.0919600
  C        1.3904680     0.2879610     0.3894930
  C        2.6370710    -0.3757250    -0.1540240
  H       -0.8746981     0.0830850     1.4095990
  H       -2.3801930     1.7061600     0.1340850
  H       -0.6845360     2.2004430     0.0787750
  H       -1.4090380     1.3865860    -1.3205090
  H       -2.9778990    -0.7985510     0.2832910
  H       -1.6583780    -1.9911630     0.3020950
  H       -2.0165080    -1.0921340    -1.1820510
  H        1.3948590     1.3609300     0.1519310
  H        1.3426600     0.1929310     1.4861340
  H        3.5349640     0.0832880     0.2690230
  H        2.6341170    -1.4390120     0.0941050
  H        2.6709700    -0.2748370    -1.2404260
units angstrom
no_reorient  #important for SAPT in psi4, default
symmetry c1  #important for SAPT in psi4, default
}

set PROPERTIES_ORIGIN ["COM"]
properties('MP2/aug-cc-pvtz', properties = ['dipole'])
--------------------------------------------------------------------------

    Molecular point group: c1
  Charge       = 0
  Multiplicity = 1
  Basis Set: AUG-CC-PVTZ
    Blend: AUG-CC-PVTZ
  Basis Set: (AUG-CC-PVTZ AUX)
    Blend: AUG-CC-PVTZ-JKFIT

    Orbital Energies [Eh]
    ---------------------

    Doubly Occupied:

       1A    -20.542672     2A    -11.277881     3A    -11.265410
       4A    -11.214943     5A    -11.210824     6A    -11.208156
       7A     -1.377162     8A     -1.063482     9A     -0.991173
      10A     -0.936777    11A     -0.836910    12A     -0.792418
      13A     -0.678709    14A     -0.648590    15A     -0.622339
      16A     -0.593658    17A     -0.558292    18A     -0.545030
      19A     -0.536635    20A     -0.518158    21A     -0.516642
      22A     -0.487560    23A     -0.478438    24A     -0.450877
      25A     -0.409245

  @DF-RHF Final Energy:  -271.28235377876490

   => Energetics <=

    Nuclear Repulsion Energy =            260.8459641936523212
    One-Electron Energy =                -884.7326709432968528
    Two-Electron Energy =                 352.6043529708796314
    Total Energy =                       -271.2823537787649002
  Basis Set: (AUG-CC-PVTZ AUX)
    Blend: AUG-CC-PVTZ-RI
    Molecular point group: c1

    Geometry (in Angstrom), charge = 0, multiplicity = 1:

       Center              X                  Y                   Z               Mass
    ------------   -----------------  -----------------  -----------------  -----------------
         O            0.294855437507    -0.367882527830    -0.143764831135    15.994914619570
         C           -0.996199662493     0.056335672170     0.300553768865    12.000000000000
         C           -1.392213662493     1.423007672170    -0.240530231135    12.000000000000
         C           -1.980912662493    -1.022903327830    -0.104697231135    12.000000000000
         C            1.385266337507     0.288828672170     0.376755768865    12.000000000000
         C            2.631869337507    -0.374857327830    -0.166761231135    12.000000000000
         H           -0.879899762493     0.083952672170     1.396861768865     1.007825032230
         H           -2.385394662493     1.707027672170     0.121347768865     1.007825032230
         H           -0.689737662493     2.201310672170     0.066037768865     1.007825032230
         H           -1.414239662493     1.387453672170    -1.333246231135     1.007825032230
         H           -2.983100662493    -0.797683327830     0.270553768865     1.007825032230
         H           -1.663579662493    -1.990295327830     0.289357768865     1.007825032230
         H           -2.021709662493    -1.091266327830    -1.194788231135     1.007825032230
         H            1.389657337507     1.361797672170     0.139193768865     1.007825032230
         H            1.337458337507     0.193798672170     1.473396768865     1.007825032230
         H            3.529762337507     0.084155672170     0.256285768865     1.007825032230
         H            2.628915337507    -1.438144327830     0.081367768865     1.007825032230
         H            2.665768337507    -0.273969327830    -1.253163231135     1.007825032230

  Basis Set: AUG-CC-PVTZ
    Blend: AUG-CC-PVTZ
  Basis Set: (AUG-CC-PVTZ AUX)
    Blend: AUG-CC-PVTZ-JKFIT
	 Reference Energy          =    -271.2823537787649002 [Eh]
	 Singles Energy            =      -0.0000000000000000 [Eh]
	 Same-Spin Energy          =      -0.2742636418581006 [Eh]
	 Opposite-Spin Energy      =      -0.9779034466594874 [Eh]
	 Correlation Energy        =      -1.2521670885175880 [Eh]
	 Total Energy              =    -272.5345208672824810 [Eh]

	 ================> DF-SCS-MP2 Energies <==================
	-----------------------------------------------------------
	 SCS Same-Spin Scale       =       0.3333333333333333 [-]
	 SCS Opposite-Spin Scale   =       1.2000000000000000 [-]
	 SCS Same-Spin Energy      =      -0.0914212139527002 [Eh]
	 SCS Opposite-Spin Energy  =      -1.1734841359913848 [Eh]
	 SCS Correlation Energy    =      -1.2649053499440850 [Eh]
	 SCS Total Energy          =    -272.5472591287089585 [Eh]
	-----------------------------------------------------------

  Dipole Moment: [D]
     X:    -0.3286      Y:     0.8323      Z:     0.6702     Total:     1.1180

*** Psi4 exiting successfully. Buy a developer a beer!
