                               Psi4 1.4a3.dev225

  ==> Input File <==

--------------------------------------------------------------------------
#psi4
#
memory 32 gb

molecule  {
0 1
  O        0.2968820    -0.3700300    -0.2078900
  C       -0.9799680    -0.0131860     0.3305480
  C       -1.4659740     1.3243170    -0.2137670
  C       -1.9120560    -1.1518890    -0.0406980
  C        1.3989550     0.3949076     0.3238496
  C        2.6596730    -0.2598580    -0.1849460
  H       -0.8961600     0.0483700     1.4287490
  H       -2.4684560     1.5499650     0.1629670
  H       -0.8070120     2.1464590     0.0762310
  H       -1.5037200     1.2784970    -1.3059680
  H       -2.9152180    -0.9801130     0.3603010
  H       -1.5287480    -2.0957260     0.3533410
  H       -1.9776690    -1.2323490    -1.1292410
  H        1.3324290     1.4330630    -0.0082660
  H        1.3481650     0.3771000     1.4173590
  H        3.5357030     0.2822800     0.1830210
  H        2.7163030    -1.2957450     0.1558670
  H        2.6771830    -0.2537050    -1.2769390
units angstrom
no_reorient  #important for SAPT in psi4, default
symmetry c1  #important for SAPT in psi4, default
}

set PROPERTIES_ORIGIN ["COM"]
properties('MP2/aug-cc-pvtz', properties = ['dipole'])
--------------------------------------------------------------------------

    Molecular point group: c1
  Charge       = 0
  Multiplicity = 1
  Basis Set: AUG-CC-PVTZ
    Blend: AUG-CC-PVTZ
  Basis Set: (AUG-CC-PVTZ AUX)
    Blend: AUG-CC-PVTZ-JKFIT

    Orbital Energies [Eh]
    ---------------------

    Doubly Occupied:

       1A    -20.544664     2A    -11.274622     3A    -11.270173
       4A    -11.212105     5A    -11.210835     6A    -11.207655
       7A     -1.356470     8A     -1.057544     9A     -0.994716
      10A     -0.933926    11A     -0.834881    12A     -0.788876
      13A     -0.672549    14A     -0.644152    15A     -0.615882
      16A     -0.591302    17A     -0.556652    18A     -0.540754
      19A     -0.534272    20A     -0.517847    21A     -0.511797
      22A     -0.487940    23A     -0.477524    24A     -0.456004
      25A     -0.413827

  @DF-RHF Final Energy:  -271.28253767271099

   => Energetics <=

    Nuclear Repulsion Energy =            259.7231514103289669
    One-Electron Energy =                -882.5974385836694864
    Two-Electron Energy =                 351.5917495006294757
    Total Energy =                       -271.2825376727109870
  Basis Set: (AUG-CC-PVTZ AUX)
    Blend: AUG-CC-PVTZ-RI
    Molecular point group: c1

    Geometry (in Angstrom), charge = 0, multiplicity = 1:

       Center              X                  Y                   Z               Mass
    ------------   -----------------  -----------------  -----------------  -----------------
         O            0.289331099397    -0.357325113292    -0.204204455364    15.994914619570
         C           -0.987518900603    -0.000481113292     0.334233544636    12.000000000000
         C           -1.473524900603     1.337021886708    -0.210081455364    12.000000000000
         C           -1.919606900603    -1.139184113292    -0.037012455364    12.000000000000
         C            1.391404099397     0.407612486708     0.327535144636    12.000000000000
         C            2.652122099397    -0.247153113292    -0.181260455364    12.000000000000
         H           -0.903710900603     0.061074886708     1.432434544636     1.007825032230
         H           -2.476006900603     1.562669886708     0.166652544636     1.007825032230
         H           -0.814562900603     2.159163886708     0.079916544636     1.007825032230
         H           -1.511270900603     1.291201886708    -1.302282455364     1.007825032230
         H           -2.922768900603    -0.967408113292     0.363986544636     1.007825032230
         H           -1.536298900603    -2.083021113292     0.357026544636     1.007825032230
         H           -1.985219900603    -1.219644113292    -1.125555455364     1.007825032230
         H            1.324878099397     1.445767886708    -0.004580455364     1.007825032230
         H            1.340614099397     0.389804886708     1.421044544636     1.007825032230
         H            3.528152099397     0.294984886708     0.186706544636     1.007825032230
         H            2.708752099397    -1.283040113292     0.159552544636     1.007825032230
         H            2.669632099397    -0.241000113292    -1.273253455364     1.007825032230

  Basis Set: AUG-CC-PVTZ
    Blend: AUG-CC-PVTZ
  Basis Set: (AUG-CC-PVTZ AUX)
    Blend: AUG-CC-PVTZ-JKFIT
	 Reference Energy          =    -271.2825376727109870 [Eh]
	 Singles Energy            =      -0.0000000000000000 [Eh]
	 Same-Spin Energy          =      -0.2744996786824507 [Eh]
	 Opposite-Spin Energy      =      -0.9796011750683378 [Eh]
	 Correlation Energy        =      -1.2541008537507885 [Eh]
	 Total Energy              =    -272.5366385264617861 [Eh]

	 ================> DF-SCS-MP2 Energies <==================
	-----------------------------------------------------------
	 SCS Same-Spin Scale       =       0.3333333333333333 [-]
	 SCS Opposite-Spin Scale   =       1.2000000000000000 [-]
	 SCS Same-Spin Energy      =      -0.0914998928941502 [Eh]
	 SCS Opposite-Spin Energy  =      -1.1755214100820053 [Eh]
	 SCS Correlation Energy    =      -1.2670213029761555 [Eh]
	 SCS Total Energy          =    -272.5495589756871482 [Eh]
	-----------------------------------------------------------

  Dipole Moment: [D]
     X:    -0.0881      Y:     0.9071      Z:     0.8513     Total:     1.2471

*** Psi4 exiting successfully. Buy a developer a beer!
