                               Psi4 1.3.2 release

  ==> Input File <==

--------------------------------------------------------------------------
#psi4
#
memory 32 gb

molecule  {
0 1
  O        0.2748750    -0.3650560    -0.2014210
  C       -1.0023449     0.0395335     0.2977984
  C       -1.3870120     1.4221400    -0.2277930
  C       -1.9757110    -1.0237710    -0.0919600
  C        1.4056234     0.2747370     0.3749741
  C        2.6370710    -0.3757250    -0.1540240
  H       -0.9296780     0.1002790     1.4134780
  H       -2.3801930     1.7061600     0.1340850
  H       -0.6845360     2.2004430     0.0787750
  H       -1.4090380     1.3865860    -1.3205090
  H       -2.9778990    -0.7985510     0.2832910
  H       -1.6583780    -1.9911630     0.3020950
  H       -2.0165080    -1.0921340    -1.1820510
  H        1.3948590     1.3609300     0.1519310
  H        1.3426600     0.1929310     1.4861340
  H        3.5349640     0.0832880     0.2690230
  H        2.6341170    -1.4390120     0.0941050
  H        2.6709700    -0.2748370    -1.2404260
units angstrom
no_reorient  #important for SAPT in psi4, default
symmetry c1  #important for SAPT in psi4, default
}

set PROPERTIES_ORIGIN ["COM"]
properties('MP2/aug-cc-pvtz', properties = ['dipole'])
--------------------------------------------------------------------------

    Molecular point group: c1
  Charge       = 0
  Multiplicity = 1
  Basis Set: AUG-CC-PVTZ
    Blend: AUG-CC-PVTZ
  Basis Set: (AUG-CC-PVTZ AUX)
    Blend: AUG-CC-PVTZ-JKFIT

    Orbital Energies [Eh]
    ---------------------

    Doubly Occupied:

       1A    -20.544944     2A    -11.276729     3A    -11.271423
       4A    -11.212331     5A    -11.209698     6A    -11.208046
       7A     -1.363014     8A     -1.063049     9A     -0.997631
      10A     -0.936669    11A     -0.832703    12A     -0.786852
      13A     -0.673737    14A     -0.644996    15A     -0.620470
      16A     -0.592018    17A     -0.559350    18A     -0.542368
      19A     -0.535907    20A     -0.516183    21A     -0.513570
      22A     -0.493752    23A     -0.473359    24A     -0.455769
      25A     -0.409662

  @DF-RHF Final Energy:  -271.28193447940049

   => Energetics <=

    Nuclear Repulsion Energy =            260.2999125988158085
    One-Electron Energy =                -883.6952346919197225
    Two-Electron Energy =                 352.1133876137034235
    Total Energy =                       -271.2819344794004905
  Basis Set: (AUG-CC-PVTZ AUX)
    Blend: AUG-CC-PVTZ-RI
    Molecular point group: c1

    Geometry (in Angstrom), charge = 0, multiplicity = 1:

       Center              X                  Y                   Z               Mass
    ------------   -----------------  -----------------  -----------------  -----------------
         O            0.274356039379    -0.361083676657    -0.197332427889    15.994914619570
         C           -1.002863860621     0.043505823343     0.301886972111    12.000000000000
         C           -1.387530960621     1.426112323343    -0.223704427889    12.000000000000
         C           -1.976229960621    -1.019798676657    -0.087871427889    12.000000000000
         C            1.405104439379     0.278709323343     0.379062672111    12.000000000000
         C            2.636552039379    -0.371752676657    -0.149935427889    12.000000000000
         H           -0.930196960621     0.104251323343     1.417566572111     1.007825032230
         H           -2.380711960621     1.710132323343     0.138173572111     1.007825032230
         H           -0.685054960621     2.204415323343     0.082863572111     1.007825032230
         H           -1.409556960621     1.390558323343    -1.316420427889     1.007825032230
         H           -2.978417960621    -0.794578676657     0.287379572111     1.007825032230
         H           -1.658896960621    -1.987190676657     0.306183572111     1.007825032230
         H           -2.017026960621    -1.088161676657    -1.177962427889     1.007825032230
         H            1.394340039379     1.364902323343     0.156019572111     1.007825032230
         H            1.342141039379     0.196903323343     1.490222572111     1.007825032230
         H            3.534445039379     0.087260323343     0.273111572111     1.007825032230
         H            2.633598039379    -1.435039676657     0.098193572111     1.007825032230
         H            2.670451039379    -0.270864676657    -1.236337427889     1.007825032230

  Basis Set: AUG-CC-PVTZ
    Blend: AUG-CC-PVTZ
  Basis Set: (AUG-CC-PVTZ AUX)
    Blend: AUG-CC-PVTZ-JKFIT
	 Reference Energy          =    -271.2819344794004905 [Eh]
	 Singles Energy            =      -0.0000000000000000 [Eh]
	 Same-Spin Energy          =      -0.2746464441077693 [Eh]
	 Opposite-Spin Energy      =      -0.9791855667230163 [Eh]
	 Correlation Energy        =      -1.2538320108307857 [Eh]
	 Total Energy              =    -272.5357664902312536 [Eh]

	 ================> DF-SCS-MP2 Energies <==================
	-----------------------------------------------------------
	 SCS Same-Spin Scale       =       0.3333333333333333 [-]
	 SCS Opposite-Spin Scale   =       1.2000000000000000 [-]
	 SCS Same-Spin Energy      =      -0.0915488147025898 [Eh]
	 SCS Opposite-Spin Energy  =      -1.1750226800676196 [Eh]
	 SCS Correlation Energy    =      -1.2665714947702094 [Eh]
	 SCS Total Energy          =    -272.5485059741707232 [Eh]
	-----------------------------------------------------------

  Dipole Moment: [D]
     X:    -0.1258      Y:     0.8007      Z:     0.8167     Total:     1.1506

*** Psi4 exiting successfully. Buy a developer a beer!
