                               Psi4 1.3.2 release

  ==> Input File <==

--------------------------------------------------------------------------
#psi4
#
memory 32 gb

molecule  {
0 1
  O        0.2711920    -0.3542529    -0.2062761
  C       -0.9909980     0.0554680     0.3132910
  C       -1.3870120     1.4221400    -0.2277930
  C       -1.9757110    -1.0237710    -0.0919600
  C        1.3904680     0.2879610     0.3894930
  C        2.6370710    -0.3757250    -0.1540240
  H       -0.9296780     0.1002790     1.4134780
  H       -2.3801930     1.7061600     0.1340850
  H       -0.6845360     2.2004430     0.0787750
  H       -1.4090380     1.3865860    -1.3205090
  H       -2.9778990    -0.7985510     0.2832910
  H       -1.6583780    -1.9911630     0.3020950
  H       -2.0165080    -1.0921340    -1.1820510
  H        1.3867993     1.3597970     0.1468585
  H        1.3426600     0.1929310     1.4861340
  H        3.5349640     0.0832880     0.2690230
  H        2.6341170    -1.4390120     0.0941050
  H        2.6709700    -0.2748370    -1.2404260
units angstrom
no_reorient  #important for SAPT in psi4, default
symmetry c1  #important for SAPT in psi4, default
}

set PROPERTIES_ORIGIN ["COM"]
properties('MP2/aug-cc-pvtz', properties = ['dipole'])
--------------------------------------------------------------------------

    Molecular point group: c1
  Charge       = 0
  Multiplicity = 1
  Basis Set: AUG-CC-PVTZ
    Blend: AUG-CC-PVTZ
  Basis Set: (AUG-CC-PVTZ AUX)
    Blend: AUG-CC-PVTZ-JKFIT

    Orbital Energies [Eh]
    ---------------------

    Doubly Occupied:

       1A    -20.545871     2A    -11.275001     3A    -11.270256
       4A    -11.211703     5A    -11.210410     6A    -11.207973
       7A     -1.365494     8A     -1.059270     9A     -0.993351
      10A     -0.934629    11A     -0.834860    12A     -0.790576
      13A     -0.675095    14A     -0.646599    15A     -0.618383
      16A     -0.590525    17A     -0.557050    18A     -0.542470
      19A     -0.535024    20A     -0.517012    21A     -0.513407
      22A     -0.488607    23A     -0.475942    24A     -0.457341
      25A     -0.412477

  @DF-RHF Final Energy:  -271.28365980348804

   => Energetics <=

    Nuclear Repulsion Energy =            260.2860030590293263
    One-Electron Energy =                -883.6806706039801611
    Two-Electron Energy =                 352.1110077414627995
    Total Energy =                       -271.2836598034880353
  Basis Set: (AUG-CC-PVTZ AUX)
    Blend: AUG-CC-PVTZ-RI
    Molecular point group: c1

    Geometry (in Angstrom), charge = 0, multiplicity = 1:

       Center              X                  Y                   Z               Mass
    ------------   -----------------  -----------------  -----------------  -----------------
         O            0.271952816363    -0.356201360088    -0.205336269276    15.994914619570
         C           -0.990237183637     0.053519539912     0.314230830724    12.000000000000
         C           -1.386251183637     1.420191539912    -0.226853169276    12.000000000000
         C           -1.974950183637    -1.025719460088    -0.091020169276    12.000000000000
         C            1.391228816363     0.286012539912     0.390432830724    12.000000000000
         C            2.637831816363    -0.377673460088    -0.153084169276    12.000000000000
         H           -0.928917183637     0.098330539912     1.414417830724     1.007825032230
         H           -2.379432183637     1.704211539912     0.135024830724     1.007825032230
         H           -0.683775183637     2.198494539912     0.079714830724     1.007825032230
         H           -1.408277183637     1.384637539912    -1.319569169276     1.007825032230
         H           -2.977138183637    -0.800499460088     0.284230830724     1.007825032230
         H           -1.657617183637    -1.993111460088     0.303034830724     1.007825032230
         H           -2.015747183637    -1.094082460088    -1.181111169276     1.007825032230
         H            1.387560116363     1.357848539912     0.147798330724     1.007825032230
         H            1.343420816363     0.190982539912     1.487073830724     1.007825032230
         H            3.535724816363     0.081339539912     0.269962830724     1.007825032230
         H            2.634877816363    -1.440960460088     0.095044830724     1.007825032230
         H            2.671730816363    -0.276785460088    -1.239486169276     1.007825032230

  Basis Set: AUG-CC-PVTZ
    Blend: AUG-CC-PVTZ
  Basis Set: (AUG-CC-PVTZ AUX)
    Blend: AUG-CC-PVTZ-JKFIT
	 Reference Energy          =    -271.2836598034880353 [Eh]
	 Singles Energy            =      -0.0000000000000000 [Eh]
	 Same-Spin Energy          =      -0.2744033057740446 [Eh]
	 Opposite-Spin Energy      =      -0.9790078563572167 [Eh]
	 Correlation Energy        =      -1.2534111621312611 [Eh]
	 Total Energy              =    -272.5370709656193071 [Eh]

	 ================> DF-SCS-MP2 Energies <==================
	-----------------------------------------------------------
	 SCS Same-Spin Scale       =       0.3333333333333333 [-]
	 SCS Opposite-Spin Scale   =       1.2000000000000000 [-]
	 SCS Same-Spin Energy      =      -0.0914677685913482 [Eh]
	 SCS Opposite-Spin Energy  =      -1.1748094276286600 [Eh]
	 SCS Correlation Energy    =      -1.2662771962200083 [Eh]
	 SCS Total Energy          =    -272.5499369997080521 [Eh]
	-----------------------------------------------------------

  Dipole Moment: [D]
     X:    -0.1062      Y:     0.8222      Z:     0.8692     Total:     1.2012

*** Psi4 exiting successfully. Buy a developer a beer!
