                               Psi4 1.3.2 release

  ==> Input File <==

--------------------------------------------------------------------------
#psi4
#
memory 32 gb

molecule  {
0 1
  O        0.2748750    -0.3650560    -0.2014210
  C       -0.8139227    -0.0033566     0.2412910
  C       -1.3870120     1.4221400    -0.2277930
  C       -1.9757110    -1.0237710    -0.0919600
  C        1.3904680     0.2879610     0.3894930
  C        2.6370710    -0.3757250    -0.1540240
  H       -0.9296780     0.1002790     1.4134780
  H       -2.3801930     1.7061600     0.1340850
  H       -0.6845360     2.2004430     0.0787750
  H       -1.4090380     1.3865860    -1.3205090
  H       -2.9778990    -0.7985510     0.2832910
  H       -1.6583780    -1.9911630     0.3020950
  H       -2.0165080    -1.0921340    -1.1820510
  H        1.3948590     1.3609300     0.1519310
  H        1.3426600     0.1929310     1.4861340
  H        3.5349640     0.0832880     0.2690230
  H        2.6341170    -1.4390120     0.0941050
  H        2.6709700    -0.2748370    -1.2404260
units angstrom
no_reorient  #important for SAPT in psi4, default
symmetry c1  #important for SAPT in psi4, default
}

set PROPERTIES_ORIGIN ["COM"]
properties('MP2/aug-cc-pvtz', properties = ['dipole'])
--------------------------------------------------------------------------

    Molecular point group: c1
  Charge       = 0
  Multiplicity = 1
  Basis Set: AUG-CC-PVTZ
    Blend: AUG-CC-PVTZ
  Basis Set: (AUG-CC-PVTZ AUX)
    Blend: AUG-CC-PVTZ-JKFIT

    Orbital Energies [Eh]
    ---------------------

    Doubly Occupied:

       1A    -20.569146     2A    -11.286189     3A    -11.280948
       4A    -11.220077     5A    -11.203893     6A    -11.202955
       7A     -1.458748     8A     -1.059265     9A     -0.990726
      10A     -0.920604    11A     -0.861530    12A     -0.795408
      13A     -0.701762    14A     -0.668060    15A     -0.634105
      16A     -0.598658    17A     -0.557710    18A     -0.550152
      19A     -0.533762    20A     -0.525544    21A     -0.516382
      22A     -0.508065    23A     -0.485446    24A     -0.417546
      25A     -0.385006

  @DF-RHF Final Energy:  -271.24178719863130

   => Energetics <=

    Nuclear Repulsion Energy =            262.5468806708888110
    One-Electron Energy =                -887.7139608938847459
    Two-Electron Energy =                 353.9252930243646915
    Total Energy =                       -271.2417871986313003
  Basis Set: (AUG-CC-PVTZ AUX)
    Blend: AUG-CC-PVTZ-RI
    Molecular point group: c1

    Geometry (in Angstrom), charge = 0, multiplicity = 1:

       Center              X                  Y                   Z               Mass
    ------------   -----------------  -----------------  -----------------  -----------------
         O            0.250752570541    -0.357042378111    -0.191612496249    15.994914619570
         C           -0.838045129459     0.004657021889     0.251099503751    12.000000000000
         C           -1.411134429459     1.430153621889    -0.217984496249    12.000000000000
         C           -1.999833429459    -1.015757378111    -0.082151496249    12.000000000000
         C            1.366345570541     0.295974621889     0.399301503751    12.000000000000
         C            2.612948570541    -0.367711378111    -0.144215496249    12.000000000000
         H           -0.953800429459     0.108292621889     1.423286503751     1.007825032230
         H           -2.404315429459     1.714173621889     0.143893503751     1.007825032230
         H           -0.708658429459     2.208456621889     0.088583503751     1.007825032230
         H           -1.433160429459     1.394599621889    -1.310700496249     1.007825032230
         H           -3.002021429459    -0.790537378111     0.293099503751     1.007825032230
         H           -1.682500429459    -1.983149378111     0.311903503751     1.007825032230
         H           -2.040630429459    -1.084120378111    -1.172242496249     1.007825032230
         H            1.370736570541     1.368943621889     0.161739503751     1.007825032230
         H            1.318537570541     0.200944621889     1.495942503751     1.007825032230
         H            3.510841570541     0.091301621889     0.278831503751     1.007825032230
         H            2.609994570541    -1.430998378111     0.103913503751     1.007825032230
         H            2.646847570541    -0.266823378111    -1.230617496249     1.007825032230

  Basis Set: AUG-CC-PVTZ
    Blend: AUG-CC-PVTZ
  Basis Set: (AUG-CC-PVTZ AUX)
    Blend: AUG-CC-PVTZ-JKFIT
	 Reference Energy          =    -271.2417871986313003 [Eh]
	 Singles Energy            =      -0.0000000000000000 [Eh]
	 Same-Spin Energy          =      -0.2750730898024720 [Eh]
	 Opposite-Spin Energy      =      -0.9784087687534266 [Eh]
	 Correlation Energy        =      -1.2534818585558987 [Eh]
	 Total Energy              =    -272.4952690571872154 [Eh]

	 ================> DF-SCS-MP2 Energies <==================
	-----------------------------------------------------------
	 SCS Same-Spin Scale       =       0.3333333333333333 [-]
	 SCS Opposite-Spin Scale   =       1.2000000000000000 [-]
	 SCS Same-Spin Energy      =      -0.0916910299341573 [Eh]
	 SCS Opposite-Spin Energy  =      -1.1740905225041118 [Eh]
	 SCS Correlation Energy    =      -1.2657815524382692 [Eh]
	 SCS Total Energy          =    -272.5075687510695843 [Eh]
	-----------------------------------------------------------

  Dipole Moment: [D]
     X:     0.8947      Y:     0.6261      Z:     0.6722     Total:     1.2823

*** Psi4 exiting successfully. Buy a developer a beer!
