                               Psi4 1.3.2 release

  ==> Input File <==

--------------------------------------------------------------------------
#psi4
#
memory 32 gb

molecule  {
0 1
  O        0.2764060    -0.3438059    -0.2144123
  C       -0.9909980     0.0554680     0.3132910
  C       -1.3643927     1.4229266    -0.2417087
  C       -1.9757110    -1.0237710    -0.0919600
  C        1.3904680     0.2879610     0.3894930
  C        2.6370710    -0.3757250    -0.1540240
  H       -0.9296780     0.1002790     1.4134780
  H       -2.3801930     1.7061600     0.1340850
  H       -0.6845360     2.2004430     0.0787750
  H       -1.4090380     1.3865860    -1.3205090
  H       -2.9778990    -0.7985510     0.2832910
  H       -1.6583780    -1.9911630     0.3020950
  H       -2.0165080    -1.0921340    -1.1820510
  H        1.3948590     1.3609300     0.1519310
  H        1.3426600     0.1929310     1.4861340
  H        3.5349640     0.0832880     0.2690230
  H        2.6341170    -1.4390120     0.0941050
  H        2.6709700    -0.2748370    -1.2404260
units angstrom
no_reorient  #important for SAPT in psi4, default
symmetry c1  #important for SAPT in psi4, default
}

set PROPERTIES_ORIGIN ["COM"]
properties('MP2/aug-cc-pvtz', properties = ['dipole'])
--------------------------------------------------------------------------

    Molecular point group: c1
  Charge       = 0
  Multiplicity = 1
  Basis Set: AUG-CC-PVTZ
    Blend: AUG-CC-PVTZ
  Basis Set: (AUG-CC-PVTZ AUX)
    Blend: AUG-CC-PVTZ-JKFIT

    Orbital Energies [Eh]
    ---------------------

    Doubly Occupied:

       1A    -20.545131     2A    -11.275831     3A    -11.269383
       4A    -11.211771     5A    -11.209778     6A    -11.208910
       7A     -1.365533     8A     -1.059485     9A     -0.992520
      10A     -0.935360    11A     -0.834430    12A     -0.791133
      13A     -0.674849    14A     -0.646674    15A     -0.619894
      16A     -0.589615    17A     -0.554729    18A     -0.546519
      19A     -0.533865    20A     -0.516137    21A     -0.512346
      22A     -0.489775    23A     -0.474444    24A     -0.459065
      25A     -0.411621

  @DF-RHF Final Energy:  -271.28280998391620

   => Energetics <=

    Nuclear Repulsion Energy =            260.3927862338410364
    One-Electron Energy =                -883.8936007915023083
    Two-Electron Energy =                 352.2180045737450200
    Total Energy =                       -271.2828099839161951
  Basis Set: (AUG-CC-PVTZ AUX)
    Blend: AUG-CC-PVTZ-RI
    Molecular point group: c1

    Geometry (in Angstrom), charge = 0, multiplicity = 1:

       Center              X                  Y                   Z               Mass
    ------------   -----------------  -----------------  -----------------  -----------------
         O            0.273046521951    -0.347771414566    -0.210157473702    15.994914619570
         C           -0.994357478049     0.051502485434     0.317545826298    12.000000000000
         C           -1.367752178049     1.418961085434    -0.237453873702    12.000000000000
         C           -1.979070478049    -1.027736514566    -0.087705173702    12.000000000000
         C            1.387108521951     0.283995485434     0.393747826298    12.000000000000
         C            2.633711521951    -0.379690514566    -0.149769173702    12.000000000000
         H           -0.933037478049     0.096313485434     1.417732826298     1.007825032230
         H           -2.383552478049     1.702194485434     0.138339826298     1.007825032230
         H           -0.687895478049     2.196477485434     0.083029826298     1.007825032230
         H           -1.412397478049     1.382620485434    -1.316254173702     1.007825032230
         H           -2.981258478049    -0.802516514566     0.287545826298     1.007825032230
         H           -1.661737478049    -1.995128514566     0.306349826298     1.007825032230
         H           -2.019867478049    -1.096099514566    -1.177796173702     1.007825032230
         H            1.391499521951     1.356964485434     0.156185826298     1.007825032230
         H            1.339300521951     0.188965485434     1.490388826298     1.007825032230
         H            3.531604521951     0.079322485434     0.273277826298     1.007825032230
         H            2.630757521951    -1.442977514566     0.098359826298     1.007825032230
         H            2.667610521951    -0.278802514566    -1.236171173702     1.007825032230

  Basis Set: AUG-CC-PVTZ
    Blend: AUG-CC-PVTZ
  Basis Set: (AUG-CC-PVTZ AUX)
    Blend: AUG-CC-PVTZ-JKFIT
	 Reference Energy          =    -271.2828099839161951 [Eh]
	 Singles Energy            =      -0.0000000000000000 [Eh]
	 Same-Spin Energy          =      -0.2743974599492428 [Eh]
	 Opposite-Spin Energy      =      -0.9790091700726955 [Eh]
	 Correlation Energy        =      -1.2534066300219382 [Eh]
	 Total Energy              =    -272.5362166139381088 [Eh]

	 ================> DF-SCS-MP2 Energies <==================
	-----------------------------------------------------------
	 SCS Same-Spin Scale       =       0.3333333333333333 [-]
	 SCS Opposite-Spin Scale   =       1.2000000000000000 [-]
	 SCS Same-Spin Energy      =      -0.0914658199830809 [Eh]
	 SCS Opposite-Spin Energy  =      -1.1748110040872346 [Eh]
	 SCS Correlation Energy    =      -1.2662768240703155 [Eh]
	 SCS Total Energy          =    -272.5490868079864981 [Eh]
	-----------------------------------------------------------

  Dipole Moment: [D]
     X:    -0.1453      Y:     0.7927      Z:     0.8785     Total:     1.1921

*** Psi4 exiting successfully. Buy a developer a beer!
