                               Psi4 1.3.2 release

  ==> Input File <==

--------------------------------------------------------------------------
#psi4
#
memory 32 gb

molecule  {
0 1
  O        0.2748750    -0.3650560    -0.2014210
  C       -1.0795357     0.0848803     0.3492910
  C       -1.3870120     1.4221400    -0.2277930
  C       -1.9757110    -1.0237710    -0.0919600
  C        1.3904680     0.2879610     0.3894930
  C        2.6370710    -0.3757250    -0.1540240
  H       -0.9296780     0.1002790     1.4134780
  H       -2.3801930     1.7061600     0.1340850
  H       -0.6845360     2.2004430     0.0787750
  H       -1.4090380     1.3865860    -1.3205090
  H       -2.9778990    -0.7985510     0.2832910
  H       -1.6583780    -1.9911630     0.3020950
  H       -2.0165080    -1.0921340    -1.1820510
  H        1.3948590     1.3609300     0.1519310
  H        1.3426600     0.1929310     1.4861340
  H        3.5349640     0.0832880     0.2690230
  H        2.6341170    -1.4390120     0.0941050
  H        2.6709700    -0.2748370    -1.2404260
units angstrom
no_reorient  #important for SAPT in psi4, default
symmetry c1  #important for SAPT in psi4, default
}

set PROPERTIES_ORIGIN ["COM"]
properties('MP2/aug-cc-pvtz', properties = ['dipole'])
--------------------------------------------------------------------------

    Molecular point group: c1
  Charge       = 0
  Multiplicity = 1
  Basis Set: AUG-CC-PVTZ
    Blend: AUG-CC-PVTZ
  Basis Set: (AUG-CC-PVTZ AUX)
    Blend: AUG-CC-PVTZ-JKFIT

    Orbital Energies [Eh]
    ---------------------

    Doubly Occupied:

       1A    -20.534805     2A    -11.278040     3A    -11.263099
       4A    -11.216185     5A    -11.211392     6A    -11.205553
       7A     -1.332414     8A     -1.067500     9A     -0.989112
      10A     -0.942778    11A     -0.823967    12A     -0.793690
      13A     -0.664572    14A     -0.637863    15A     -0.623101
      16A     -0.584696    17A     -0.555951    18A     -0.546675
      19A     -0.533607    20A     -0.513774    21A     -0.512740
      22A     -0.490991    23A     -0.477318    24A     -0.447708
      25A     -0.411410

  @DF-RHF Final Energy:  -271.27315763812720

   => Energetics <=

    Nuclear Repulsion Energy =            259.1715259399379647
    One-Electron Energy =                -881.5714809222683925
    Two-Electron Energy =                 351.1267973442032257
    Total Energy =                       -271.2731576381272021
  Basis Set: (AUG-CC-PVTZ AUX)
    Blend: AUG-CC-PVTZ-RI
    Molecular point group: c1

    Geometry (in Angstrom), charge = 0, multiplicity = 1:

       Center              X                  Y                   Z               Mass
    ------------   -----------------  -----------------  -----------------  -----------------
         O            0.286936006540    -0.369062551159    -0.206324920295    15.994914619570
         C           -1.067474693460     0.080873748841     0.344387079705    12.000000000000
         C           -1.374950993460     1.418133448841    -0.232696920295    12.000000000000
         C           -1.963649993460    -1.027777551159    -0.096863920295    12.000000000000
         C            1.402529006540     0.283954448841     0.384589079705    12.000000000000
         C            2.649132006540    -0.379731551159    -0.158927920295    12.000000000000
         H           -0.917616993460     0.096272448841     1.408574079705     1.007825032230
         H           -2.368131993460     1.702153448841     0.129181079705     1.007825032230
         H           -0.672474993460     2.196436448841     0.073871079705     1.007825032230
         H           -1.396976993460     1.382579448841    -1.325412920295     1.007825032230
         H           -2.965837993460    -0.802557551159     0.278387079705     1.007825032230
         H           -1.646316993460    -1.995169551159     0.297191079705     1.007825032230
         H           -2.004446993460    -1.096140551159    -1.186954920295     1.007825032230
         H            1.406920006540     1.356923448841     0.147027079705     1.007825032230
         H            1.354721006540     0.188924448841     1.481230079705     1.007825032230
         H            3.547025006540     0.079281448841     0.264119079705     1.007825032230
         H            2.646178006540    -1.443018551159     0.089201079705     1.007825032230
         H            2.683031006540    -0.278843551159    -1.245329920295     1.007825032230

  Basis Set: AUG-CC-PVTZ
    Blend: AUG-CC-PVTZ
  Basis Set: (AUG-CC-PVTZ AUX)
    Blend: AUG-CC-PVTZ-JKFIT
	 Reference Energy          =    -271.2731576381272021 [Eh]
	 Singles Energy            =      -0.0000000000000000 [Eh]
	 Same-Spin Energy          =      -0.2753108463058027 [Eh]
	 Opposite-Spin Energy      =      -0.9814683314240226 [Eh]
	 Correlation Energy        =      -1.2567791777298254 [Eh]
	 Total Energy              =    -272.5299368158570132 [Eh]

	 ================> DF-SCS-MP2 Energies <==================
	-----------------------------------------------------------
	 SCS Same-Spin Scale       =       0.3333333333333333 [-]
	 SCS Opposite-Spin Scale   =       1.2000000000000000 [-]
	 SCS Same-Spin Energy      =      -0.0917702821019342 [Eh]
	 SCS Opposite-Spin Energy  =      -1.1777619977088269 [Eh]
	 SCS Correlation Energy    =      -1.2695322798107611 [Eh]
	 SCS Total Energy          =    -272.5426899179379916 [Eh]
	-----------------------------------------------------------

  Dipole Moment: [D]
     X:    -0.5304      Y:     0.9267      Z:     0.9126     Total:     1.4046

*** Psi4 exiting successfully. Buy a developer a beer!
