                               Psi4 1.4a3.dev225

  ==> Input File <==

--------------------------------------------------------------------------
#psi4
#
memory 32 gb

molecule  {
0 1
  O        0.2968820    -0.3700300    -0.2078900
  C       -0.9799680    -0.0131860     0.3305480
  C       -1.4659740     1.3243170    -0.2137670
  C       -1.9120560    -1.1518890    -0.0406980
  C        1.3684070     0.3737044     0.3091104
  C        2.6596730    -0.2598580    -0.1849460
  H       -0.8961600     0.0483700     1.4287490
  H       -2.4684560     1.5499650     0.1629670
  H       -0.8070120     2.1464590     0.0762310
  H       -1.5037200     1.2784970    -1.3059680
  H       -2.9152180    -0.9801130     0.3603010
  H       -1.5287480    -2.0957260     0.3533410
  H       -1.9776690    -1.2323490    -1.1292410
  H        1.3324290     1.4330630    -0.0082660
  H        1.3481650     0.3771000     1.4173590
  H        3.5357030     0.2822800     0.1830210
  H        2.7163030    -1.2957450     0.1558670
  H        2.6771830    -0.2537050    -1.2769390
units angstrom
no_reorient  #important for SAPT in psi4, default
symmetry c1  #important for SAPT in psi4, default
}

set PROPERTIES_ORIGIN ["COM"]
properties('MP2/aug-cc-pvtz', properties = ['dipole'])
--------------------------------------------------------------------------

    Molecular point group: c1
  Charge       = 0
  Multiplicity = 1
  Basis Set: AUG-CC-PVTZ
    Blend: AUG-CC-PVTZ
  Basis Set: (AUG-CC-PVTZ AUX)
    Blend: AUG-CC-PVTZ-JKFIT

    Orbital Energies [Eh]
    ---------------------

    Doubly Occupied:

       1A    -20.548348     2A    -11.277071     3A    -11.270338
       4A    -11.213293     5A    -11.209784     6A    -11.209189
       7A     -1.370562     8A     -1.059796     9A     -0.991472
      10A     -0.935428    11A     -0.833721    12A     -0.791643
      13A     -0.677222    14A     -0.646277    15A     -0.617455
      16A     -0.593200    17A     -0.557285    18A     -0.542631
      19A     -0.535063    20A     -0.517310    21A     -0.515077
      22A     -0.486957    23A     -0.473172    24A     -0.458904
      25A     -0.412799

  @DF-RHF Final Energy:  -271.28334494346996

   => Energetics <=

    Nuclear Repulsion Energy =            260.2972844018025853
    One-Electron Energy =                -883.6732569662856349
    Two-Electron Energy =                 352.0926276210130936
    Total Energy =                       -271.2833449434699560
  Basis Set: (AUG-CC-PVTZ AUX)
    Blend: AUG-CC-PVTZ-RI
    Molecular point group: c1

    Geometry (in Angstrom), charge = 0, multiplicity = 1:

       Center              X                  Y                   Z               Mass
    ------------   -----------------  -----------------  -----------------  -----------------
         O            0.293492535783    -0.354436683018    -0.202196590915    15.994914619570
         C           -0.983357464217     0.002407316982     0.336241409085    12.000000000000
         C           -1.469363464217     1.339910316982    -0.208073590915    12.000000000000
         C           -1.915445464217    -1.136295683018    -0.035004590915    12.000000000000
         C            1.365017535783     0.389297716982     0.314803809085    12.000000000000
         C            2.656283535783    -0.244264683018    -0.179252590915    12.000000000000
         H           -0.899549464217     0.063963316982     1.434442409085     1.007825032230
         H           -2.471845464217     1.565558316982     0.168660409085     1.007825032230
         H           -0.810401464217     2.162052316982     0.081924409085     1.007825032230
         H           -1.507109464217     1.294090316982    -1.300274590915     1.007825032230
         H           -2.918607464217    -0.964519683018     0.365994409085     1.007825032230
         H           -1.532137464217    -2.080132683018     0.359034409085     1.007825032230
         H           -1.981058464217    -1.216755683018    -1.123547590915     1.007825032230
         H            1.329039535783     1.448656316982    -0.002572590915     1.007825032230
         H            1.344775535783     0.392693316982     1.423052409085     1.007825032230
         H            3.532313535783     0.297873316982     0.188714409085     1.007825032230
         H            2.712913535783    -1.280151683018     0.161560409085     1.007825032230
         H            2.673793535783    -0.238111683018    -1.271245590915     1.007825032230

  Basis Set: AUG-CC-PVTZ
    Blend: AUG-CC-PVTZ
  Basis Set: (AUG-CC-PVTZ AUX)
    Blend: AUG-CC-PVTZ-JKFIT
	 Reference Energy          =    -271.2833449434699560 [Eh]
	 Singles Energy            =      -0.0000000000000000 [Eh]
	 Same-Spin Energy          =      -0.2743888721383939 [Eh]
	 Opposite-Spin Energy      =      -0.9789434848346686 [Eh]
	 Correlation Energy        =      -1.2533323569730626 [Eh]
	 Total Energy              =    -272.5366773004430456 [Eh]

	 ================> DF-SCS-MP2 Energies <==================
	-----------------------------------------------------------
	 SCS Same-Spin Scale       =       0.3333333333333333 [-]
	 SCS Opposite-Spin Scale   =       1.2000000000000000 [-]
	 SCS Same-Spin Energy      =      -0.0914629573794646 [Eh]
	 SCS Opposite-Spin Energy  =      -1.1747321818016023 [Eh]
	 SCS Correlation Energy    =      -1.2661951391810669 [Eh]
	 SCS Total Energy          =    -272.5495400826510490 [Eh]
	-----------------------------------------------------------

  Dipole Moment: [D]
     X:    -0.2420      Y:     0.8498      Z:     0.8102     Total:     1.1988

*** Psi4 exiting successfully. Buy a developer a beer!
