                               Psi4 1.3.2 release

  ==> Input File <==

--------------------------------------------------------------------------
#psi4
#
memory 32 gb

molecule  {
0 1
  O        0.2748750    -0.3650560    -0.2014210
  C       -0.9546581     0.1024838     0.3588096
  C       -1.3870120     1.4221400    -0.2277930
  C       -1.9757110    -1.0237710    -0.0919600
  C        1.3429819     0.3264238     0.4319523
  C        2.6370710    -0.3757250    -0.1540240
  H       -0.9296780     0.1002790     1.4134780
  H       -2.3801930     1.7061600     0.1340850
  H       -0.6845360     2.2004430     0.0787750
  H       -1.4090380     1.3865860    -1.3205090
  H       -2.9778990    -0.7985510     0.2832910
  H       -1.6583780    -1.9911630     0.3020950
  H       -2.0165080    -1.0921340    -1.1820510
  H        1.3948590     1.3609300     0.1519310
  H        1.3426600     0.1929310     1.4861340
  H        3.5349640     0.0832880     0.2690230
  H        2.6341170    -1.4390120     0.0941050
  H        2.6709700    -0.2748370    -1.2404260
units angstrom
no_reorient  #important for SAPT in psi4, default
symmetry c1  #important for SAPT in psi4, default
}

set PROPERTIES_ORIGIN ["COM"]
properties('MP2/aug-cc-pvtz', properties = ['dipole'])
--------------------------------------------------------------------------

    Molecular point group: c1
  Charge       = 0
  Multiplicity = 1
  Basis Set: AUG-CC-PVTZ
    Blend: AUG-CC-PVTZ
  Basis Set: (AUG-CC-PVTZ AUX)
    Blend: AUG-CC-PVTZ-JKFIT

    Orbital Energies [Eh]
    ---------------------

    Doubly Occupied:

       1A    -20.551410     2A    -11.273179     3A    -11.267409
       4A    -11.212910     5A    -11.210822     6A    -11.207923
       7A     -1.369149     8A     -1.050186     9A     -0.983117
      10A     -0.928239    11A     -0.839594    12A     -0.802383
      13A     -0.679180    14A     -0.651155    15A     -0.611531
      16A     -0.589284    17A     -0.550759    18A     -0.545812
      19A     -0.532444    20A     -0.518617    21A     -0.513143
      22A     -0.495811    23A     -0.464092    24A     -0.449935
      25A     -0.419943

  @DF-RHF Final Energy:  -271.27085761493032

   => Energetics <=

    Nuclear Repulsion Energy =            259.8615184723287825
    One-Electron Energy =                -882.8286946484857936
    Two-Electron Energy =                 351.6963185612266329
    Total Energy =                       -271.2708576149303212
  Basis Set: (AUG-CC-PVTZ AUX)
    Blend: AUG-CC-PVTZ-RI
    Molecular point group: c1

    Geometry (in Angstrom), charge = 0, multiplicity = 1:

       Center              X                  Y                   Z               Mass
    ------------   -----------------  -----------------  -----------------  -----------------
         O            0.276393260563    -0.376700247273    -0.213405669422    15.994914619570
         C           -0.953139839437     0.090839552727     0.346824930578    12.000000000000
         C           -1.385493739437     1.410495752727    -0.239777669422    12.000000000000
         C           -1.974192739437    -1.035415247273    -0.103944669422    12.000000000000
         C            1.344500160563     0.314779552727     0.419967630578    12.000000000000
         C            2.638589260563    -0.387369247273    -0.166008669422    12.000000000000
         H           -0.928159739437     0.088634752727     1.401493330578     1.007825032230
         H           -2.378674739437     1.694515752727     0.122100330578     1.007825032230
         H           -0.683017739437     2.188798752727     0.066790330578     1.007825032230
         H           -1.407519739437     1.374941752727    -1.332493669422     1.007825032230
         H           -2.976380739437    -0.810195247273     0.271306330578     1.007825032230
         H           -1.656859739437    -2.002807247273     0.290110330578     1.007825032230
         H           -2.014989739437    -1.103778247273    -1.194035669422     1.007825032230
         H            1.396377260563     1.349285752727     0.139946330578     1.007825032230
         H            1.344178260563     0.181286752727     1.474149330578     1.007825032230
         H            3.536482260563     0.071643752727     0.257038330578     1.007825032230
         H            2.635635260563    -1.450656247273     0.082120330578     1.007825032230
         H            2.672488260563    -0.286481247273    -1.252410669422     1.007825032230

  Basis Set: AUG-CC-PVTZ
    Blend: AUG-CC-PVTZ
  Basis Set: (AUG-CC-PVTZ AUX)
    Blend: AUG-CC-PVTZ-JKFIT
	 Reference Energy          =    -271.2708576149303212 [Eh]
	 Singles Energy            =      -0.0000000000000000 [Eh]
	 Same-Spin Energy          =      -0.2744720952271441 [Eh]
	 Opposite-Spin Energy      =      -0.9802726614804662 [Eh]
	 Correlation Energy        =      -1.2547447567076104 [Eh]
	 Total Energy              =    -272.5256023716379445 [Eh]

	 ================> DF-SCS-MP2 Energies <==================
	-----------------------------------------------------------
	 SCS Same-Spin Scale       =       0.3333333333333333 [-]
	 SCS Opposite-Spin Scale   =       1.2000000000000000 [-]
	 SCS Same-Spin Energy      =      -0.0914906984090480 [Eh]
	 SCS Opposite-Spin Energy  =      -1.1763271937765594 [Eh]
	 SCS Correlation Energy    =      -1.2678178921856074 [Eh]
	 SCS Total Energy          =    -272.5386755071159541 [Eh]
	-----------------------------------------------------------

  Dipole Moment: [D]
     X:    -0.1408      Y:     0.9810      Z:     0.9691     Total:     1.3861

*** Psi4 exiting successfully. Buy a developer a beer!
