                               Psi4 1.3.2 release

  ==> Input File <==

--------------------------------------------------------------------------
#psi4
#
memory 32 gb

molecule  {
0 1
  O        0.2748750    -0.3650560    -0.2014210
  C       -0.9909980     0.0554680     0.3132910
  C       -1.3870120     1.4221400    -0.2277930
  C       -1.9757110    -1.0237710    -0.0919600
  C        1.2334885     0.1960724     0.3063431
  C        2.6370710    -0.3757250    -0.1540240
  H       -0.9296780     0.1002790     1.4134780
  H       -2.3801930     1.7061600     0.1340850
  H       -0.6845360     2.2004430     0.0787750
  H       -1.4090380     1.3865860    -1.3205090
  H       -2.9778990    -0.7985510     0.2832910
  H       -1.6583780    -1.9911630     0.3020950
  H       -2.0165080    -1.0921340    -1.1820510
  H        1.3948590     1.3609300     0.1519310
  H        1.3426600     0.1929310     1.4861340
  H        3.5349640     0.0832880     0.2690230
  H        2.6341170    -1.4390120     0.0941050
  H        2.6709700    -0.2748370    -1.2404260
units angstrom
no_reorient  #important for SAPT in psi4, default
symmetry c1  #important for SAPT in psi4, default
}

set PROPERTIES_ORIGIN ["COM"]
properties('MP2/aug-cc-pvtz', properties = ['dipole'])
--------------------------------------------------------------------------

    Molecular point group: c1
  Charge       = 0
  Multiplicity = 1
  Basis Set: AUG-CC-PVTZ
    Blend: AUG-CC-PVTZ
  Basis Set: (AUG-CC-PVTZ AUX)
    Blend: AUG-CC-PVTZ-JKFIT

    Orbital Energies [Eh]
    ---------------------

    Doubly Occupied:

       1A    -20.566884     2A    -11.290011     3A    -11.278206
       4A    -11.219395     5A    -11.217162     6A    -11.205546
       7A     -1.459204     8A     -1.077860     9A     -0.974573
      10A     -0.943579    11A     -0.845214    12A     -0.799590
      13A     -0.702007    14A     -0.669402    15A     -0.638723
      16A     -0.602634    17A     -0.560968    18A     -0.554291
      19A     -0.542100    20A     -0.528251    21A     -0.522057
      22A     -0.489099    23A     -0.477157    24A     -0.427460
      25A     -0.386982

  @DF-RHF Final Energy:  -271.23995343311367

   => Energetics <=

    Nuclear Repulsion Energy =            263.3923573935383047
    One-Electron Energy =                -889.3079123107088435
    Two-Electron Energy =                 354.6756014840568696
    Total Energy =                       -271.2399534331136692
  Basis Set: (AUG-CC-PVTZ AUX)
    Blend: AUG-CC-PVTZ-RI
    Molecular point group: c1

    Geometry (in Angstrom), charge = 0, multiplicity = 1:

       Center              X                  Y                   Z               Mass
    ------------   -----------------  -----------------  -----------------  -----------------
         O            0.296259569355    -0.352538196735    -0.190093588316    15.994914619570
         C           -0.969613430645     0.067985803265     0.324618411684    12.000000000000
         C           -1.365627430645     1.434657803265    -0.216465588316    12.000000000000
         C           -1.954326430645    -1.011253196735    -0.080632588316    12.000000000000
         C            1.254873069355     0.208590203265     0.317670511684    12.000000000000
         C            2.658455569355    -0.363207196735    -0.142696588316    12.000000000000
         H           -0.908293430645     0.112796803265     1.424805411684     1.007825032230
         H           -2.358808430645     1.718677803265     0.145412411684     1.007825032230
         H           -0.663151430645     2.212960803265     0.090102411684     1.007825032230
         H           -1.387653430645     1.399103803265    -1.309181588316     1.007825032230
         H           -2.956514430645    -0.786033196735     0.294618411684     1.007825032230
         H           -1.636993430645    -1.978645196735     0.313422411684     1.007825032230
         H           -1.995123430645    -1.079616196735    -1.170723588316     1.007825032230
         H            1.416243569355     1.373447803265     0.163258411684     1.007825032230
         H            1.364044569355     0.205448803265     1.497461411684     1.007825032230
         H            3.556348569355     0.095805803265     0.280350411684     1.007825032230
         H            2.655501569355    -1.426494196735     0.105432411684     1.007825032230
         H            2.692354569355    -0.262319196735    -1.229098588316     1.007825032230

  Basis Set: AUG-CC-PVTZ
    Blend: AUG-CC-PVTZ
  Basis Set: (AUG-CC-PVTZ AUX)
    Blend: AUG-CC-PVTZ-JKFIT
	 Reference Energy          =    -271.2399534331136692 [Eh]
	 Singles Energy            =      -0.0000000000000000 [Eh]
	 Same-Spin Energy          =      -0.2753180488016035 [Eh]
	 Opposite-Spin Energy      =      -0.9784355884314457 [Eh]
	 Correlation Energy        =      -1.2537536372330491 [Eh]
	 Total Energy              =    -272.4937070703467157 [Eh]

	 ================> DF-SCS-MP2 Energies <==================
	-----------------------------------------------------------
	 SCS Same-Spin Scale       =       0.3333333333333333 [-]
	 SCS Opposite-Spin Scale   =       1.2000000000000000 [-]
	 SCS Same-Spin Energy      =      -0.0917726829338678 [Eh]
	 SCS Opposite-Spin Energy  =      -1.1741227061177348 [Eh]
	 SCS Correlation Energy    =      -1.2658953890516027 [Eh]
	 SCS Total Energy          =    -272.5058488221652624 [Eh]
	-----------------------------------------------------------

  Dipole Moment: [D]
     X:    -1.0862      Y:     0.5281      Z:     0.5229     Total:     1.3161

*** Psi4 exiting successfully. Buy a developer a beer!
