                               Psi4 1.3.2 release

  ==> Input File <==

--------------------------------------------------------------------------
#psi4
#
memory 32 gb

molecule  {
0 1
  O        0.2748750    -0.3650560    -0.2014210
  C       -0.9024603     0.0260557     0.2772910
  C       -1.3870120     1.4221400    -0.2277930
  C       -1.9757110    -1.0237710    -0.0919600
  C        1.3904680     0.2879610     0.3894930
  C        2.6370710    -0.3757250    -0.1540240
  H       -0.9296780     0.1002790     1.4134780
  H       -2.3801930     1.7061600     0.1340850
  H       -0.6845360     2.2004430     0.0787750
  H       -1.4090380     1.3865860    -1.3205090
  H       -2.9778990    -0.7985510     0.2832910
  H       -1.6583780    -1.9911630     0.3020950
  H       -2.0165080    -1.0921340    -1.1820510
  H        1.3948590     1.3609300     0.1519310
  H        1.3426600     0.1929310     1.4861340
  H        3.5349640     0.0832880     0.2690230
  H        2.6341170    -1.4390120     0.0941050
  H        2.6709700    -0.2748370    -1.2404260
units angstrom
no_reorient  #important for SAPT in psi4, default
symmetry c1  #important for SAPT in psi4, default
}

set PROPERTIES_ORIGIN ["COM"]
properties('MP2/aug-cc-pvtz', properties = ['dipole'])
--------------------------------------------------------------------------

    Molecular point group: c1
  Charge       = 0
  Multiplicity = 1
  Basis Set: AUG-CC-PVTZ
    Blend: AUG-CC-PVTZ
  Basis Set: (AUG-CC-PVTZ AUX)
    Blend: AUG-CC-PVTZ-JKFIT

    Orbital Energies [Eh]
    ---------------------

    Doubly Occupied:

       1A    -20.557305     2A    -11.277419     3A    -11.276469
       4A    -11.214648     5A    -11.208501     6A    -11.205458
       7A     -1.405268     8A     -1.055522     9A     -0.994542
      10A     -0.927331    11A     -0.846525    12A     -0.790702
      13A     -0.687189    14A     -0.656155    15A     -0.620441
      16A     -0.595781    17A     -0.557865    18A     -0.545454
      19A     -0.531337    20A     -0.524011    21A     -0.515075
      22A     -0.495798    23A     -0.480094    24A     -0.441441
      25A     -0.404861

  @DF-RHF Final Energy:  -271.27572269850583

   => Energetics <=

    Nuclear Repulsion Energy =            261.2780103619630836
    One-Electron Energy =                -885.4770872919571048
    Two-Electron Energy =                 352.9233542314881902
    Total Energy =                       -271.2757226985058310
  Basis Set: (AUG-CC-PVTZ AUX)
    Blend: AUG-CC-PVTZ-RI
    Molecular point group: c1

    Geometry (in Angstrom), charge = 0, multiplicity = 1:

       Center              X                  Y                   Z               Mass
    ------------   -----------------  -----------------  -----------------  -----------------
         O            0.262813706792    -0.361049102460    -0.196516637598    15.994914619570
         C           -0.914521593208     0.030062597540     0.282195362402    12.000000000000
         C           -1.399073293208     1.426146897540    -0.222888637598    12.000000000000
         C           -1.987772293208    -1.019764102460    -0.087055637598    12.000000000000
         C            1.378406706792     0.291967897540     0.394397362402    12.000000000000
         C            2.625009706792    -0.371718102460    -0.149119637598    12.000000000000
         H           -0.941739293208     0.104285897540     1.418382362402     1.007825032230
         H           -2.392254293208     1.710166897540     0.138989362402     1.007825032230
         H           -0.696597293208     2.204449897540     0.083679362402     1.007825032230
         H           -1.421099293208     1.390592897540    -1.315604637598     1.007825032230
         H           -2.989960293208    -0.794544102460     0.288195362402     1.007825032230
         H           -1.670439293208    -1.987156102460     0.306999362402     1.007825032230
         H           -2.028569293208    -1.088127102460    -1.177146637598     1.007825032230
         H            1.382797706792     1.364936897540     0.156835362402     1.007825032230
         H            1.330598706792     0.196937897540     1.491038362402     1.007825032230
         H            3.522902706792     0.087294897540     0.273927362402     1.007825032230
         H            2.622055706792    -1.435005102460     0.099009362402     1.007825032230
         H            2.658908706792    -0.270830102460    -1.235521637598     1.007825032230

  Basis Set: AUG-CC-PVTZ
    Blend: AUG-CC-PVTZ
  Basis Set: (AUG-CC-PVTZ AUX)
    Blend: AUG-CC-PVTZ-JKFIT
	 Reference Energy          =    -271.2757226985058310 [Eh]
	 Singles Energy            =      -0.0000000000000000 [Eh]
	 Same-Spin Energy          =      -0.2743264450781072 [Eh]
	 Opposite-Spin Energy      =      -0.9780415653186066 [Eh]
	 Correlation Energy        =      -1.2523680103967139 [Eh]
	 Total Energy              =    -272.5280907089025391 [Eh]

	 ================> DF-SCS-MP2 Energies <==================
	-----------------------------------------------------------
	 SCS Same-Spin Scale       =       0.3333333333333333 [-]
	 SCS Opposite-Spin Scale   =       1.2000000000000000 [-]
	 SCS Same-Spin Energy      =      -0.0914421483593691 [Eh]
	 SCS Opposite-Spin Energy  =      -1.1736498783823279 [Eh]
	 SCS Correlation Energy    =      -1.2650920267416970 [Eh]
	 SCS Total Energy          =    -272.5408147252475146 [Eh]
	-----------------------------------------------------------

  Dipole Moment: [D]
     X:     0.3314      Y:     0.7526      Z:     0.7836     Total:     1.1359

*** Psi4 exiting successfully. Buy a developer a beer!
