                               Psi4 1.3.2 release

  ==> Input File <==

--------------------------------------------------------------------------
#psi4
#
memory 32 gb

molecule  {
0 1
  O        0.2748750    -0.3650560    -0.2014210
  C       -0.9909980     0.0554680     0.3132910
  C       -1.3870120     1.4221400    -0.2277930
  C       -1.9757110    -1.0237710    -0.0919600
  C        1.4689578     0.3339053     0.4310679
  C        2.6370710    -0.3757250    -0.1540240
  H       -0.9296780     0.1002790     1.4134780
  H       -2.3801930     1.7061600     0.1340850
  H       -0.6845360     2.2004430     0.0787750
  H       -1.4090380     1.3865860    -1.3205090
  H       -2.9778990    -0.7985510     0.2832910
  H       -1.6583780    -1.9911630     0.3020950
  H       -2.0165080    -1.0921340    -1.1820510
  H        1.3948590     1.3609300     0.1519310
  H        1.3426600     0.1929310     1.4861340
  H        3.5349640     0.0832880     0.2690230
  H        2.6341170    -1.4390120     0.0941050
  H        2.6709700    -0.2748370    -1.2404260
units angstrom
no_reorient  #important for SAPT in psi4, default
symmetry c1  #important for SAPT in psi4, default
}

set PROPERTIES_ORIGIN ["COM"]
properties('MP2/aug-cc-pvtz', properties = ['dipole'])
--------------------------------------------------------------------------

    Molecular point group: c1
  Charge       = 0
  Multiplicity = 1
  Basis Set: AUG-CC-PVTZ
    Blend: AUG-CC-PVTZ
  Basis Set: (AUG-CC-PVTZ AUX)
    Blend: AUG-CC-PVTZ-JKFIT

    Orbital Energies [Eh]
    ---------------------

    Doubly Occupied:

       1A    -20.537001     2A    -11.271513     3A    -11.269556
       4A    -11.213064     5A    -11.209406     6A    -11.204322
       7A     -1.333317     8A     -1.055482     9A     -1.000203
      10A     -0.931130    11A     -0.839132    12A     -0.783286
      13A     -0.666142    14A     -0.642516    15A     -0.614742
      16A     -0.586611    17A     -0.555520    18A     -0.542826
      19A     -0.533330    20A     -0.519464    21A     -0.504935
      22A     -0.488991    23A     -0.483587    24A     -0.445818
      25A     -0.412415

  @DF-RHF Final Energy:  -271.27365386168498

   => Energetics <=

    Nuclear Repulsion Energy =            258.7889214110704756
    One-Electron Energy =                -880.8365323734930143
    Two-Electron Energy =                 350.7739571007376185
    Total Energy =                       -271.2736538616849771
  Basis Set: (AUG-CC-PVTZ AUX)
    Blend: AUG-CC-PVTZ-RI
    Molecular point group: c1

    Geometry (in Angstrom), charge = 0, multiplicity = 1:

       Center              X                  Y                   Z               Mass
    ------------   -----------------  -----------------  -----------------  -----------------
         O            0.264182493510    -0.371314641847    -0.207084367450    15.994914619570
         C           -1.001690506490     0.049209358153     0.307627632550    12.000000000000
         C           -1.397704506490     1.415881358153    -0.233456367450    12.000000000000
         C           -1.986403506490    -1.030029641847    -0.097623367450    12.000000000000
         C            1.458265293510     0.327646658153     0.425404532550    12.000000000000
         C            2.626378493510    -0.381983641847    -0.159687367450    12.000000000000
         H           -0.940370506490     0.094020358153     1.407814632550     1.007825032230
         H           -2.390885506490     1.699901358153     0.128421632550     1.007825032230
         H           -0.695228506490     2.194184358153     0.073111632550     1.007825032230
         H           -1.419730506490     1.380327358153    -1.326172367450     1.007825032230
         H           -2.988591506490    -0.804809641847     0.277627632550     1.007825032230
         H           -1.669070506490    -1.997421641847     0.296431632550     1.007825032230
         H           -2.027200506490    -1.098392641847    -1.187714367450     1.007825032230
         H            1.384166493510     1.354671358153     0.146267632550     1.007825032230
         H            1.331967493510     0.186672358153     1.480470632550     1.007825032230
         H            3.524271493510     0.077029358153     0.263359632550     1.007825032230
         H            2.623424493510    -1.445270641847     0.088441632550     1.007825032230
         H            2.660277493510    -0.281095641847    -1.246089367450     1.007825032230

  Basis Set: AUG-CC-PVTZ
    Blend: AUG-CC-PVTZ
  Basis Set: (AUG-CC-PVTZ AUX)
    Blend: AUG-CC-PVTZ-JKFIT
	 Reference Energy          =    -271.2736538616849771 [Eh]
	 Singles Energy            =      -0.0000000000000000 [Eh]
	 Same-Spin Energy          =      -0.2750311787435454 [Eh]
	 Opposite-Spin Energy      =      -0.9813281767676414 [Eh]
	 Correlation Energy        =      -1.2563593555111869 [Eh]
	 Total Energy              =    -272.5300132171961423 [Eh]

	 ================> DF-SCS-MP2 Energies <==================
	-----------------------------------------------------------
	 SCS Same-Spin Scale       =       0.3333333333333333 [-]
	 SCS Opposite-Spin Scale   =       1.2000000000000000 [-]
	 SCS Same-Spin Energy      =      -0.0916770595811818 [Eh]
	 SCS Opposite-Spin Energy  =      -1.1775938121211695 [Eh]
	 SCS Correlation Energy    =      -1.2692708717023513 [Eh]
	 SCS Total Energy          =    -272.5429247333873377 [Eh]
	-----------------------------------------------------------

  Dipole Moment: [D]
     X:     0.2310      Y:     0.9447      Z:     0.9662     Total:     1.3709

*** Psi4 exiting successfully. Buy a developer a beer!
