                               Psi4 1.3.2 release

  ==> Input File <==

--------------------------------------------------------------------------
#psi4
#
memory 32 gb

molecule  {
0 1
  O        0.2739649    -0.3756334    -0.1948663
  C       -0.9909980     0.0554680     0.3132910
  C       -1.3982768     1.4215906    -0.2207731
  C       -1.9757110    -1.0237710    -0.0919600
  C        1.3904680     0.2879610     0.3894930
  C        2.6370710    -0.3757250    -0.1540240
  H       -0.9296780     0.1002790     1.4134780
  H       -2.3801930     1.7061600     0.1340850
  H       -0.6845360     2.2004430     0.0787750
  H       -1.4090380     1.3865860    -1.3205090
  H       -2.9778990    -0.7985510     0.2832910
  H       -1.6583780    -1.9911630     0.3020950
  H       -2.0165080    -1.0921340    -1.1820510
  H        1.3948590     1.3609300     0.1519310
  H        1.3426600     0.1929310     1.4861340
  H        3.5349640     0.0832880     0.2690230
  H        2.6341170    -1.4390120     0.0941050
  H        2.6709700    -0.2748370    -1.2404260
units angstrom
no_reorient  #important for SAPT in psi4, default
symmetry c1  #important for SAPT in psi4, default
}

set PROPERTIES_ORIGIN ["COM"]
properties('MP2/aug-cc-pvtz', properties = ['dipole'])
--------------------------------------------------------------------------

    Molecular point group: c1
  Charge       = 0
  Multiplicity = 1
  Basis Set: AUG-CC-PVTZ
    Blend: AUG-CC-PVTZ
  Basis Set: (AUG-CC-PVTZ AUX)
    Blend: AUG-CC-PVTZ-JKFIT

    Orbital Energies [Eh]
    ---------------------

    Doubly Occupied:

       1A    -20.547124     2A    -11.275290     3A    -11.270341
       4A    -11.212680     5A    -11.210142     6A    -11.207646
       7A     -1.363743     8A     -1.059181     9A     -0.993798
      10A     -0.934535    11A     -0.834090    12A     -0.790629
      13A     -0.675061    14A     -0.645606    15A     -0.617295
      16A     -0.591406    17A     -0.558428    18A     -0.541002
      19A     -0.535319    20A     -0.517709    21A     -0.512821
      22A     -0.486525    23A     -0.476392    24A     -0.457229
      25A     -0.414076

  @DF-RHF Final Energy:  -271.28303167735407

   => Energetics <=

    Nuclear Repulsion Energy =            260.0657043081097868
    One-Electron Energy =                -883.2413369416267415
    Two-Electron Energy =                 351.8926009561628234
    Total Energy =                       -271.2830316773540744
  Basis Set: (AUG-CC-PVTZ AUX)
    Blend: AUG-CC-PVTZ-RI
    Molecular point group: c1

    Geometry (in Angstrom), charge = 0, multiplicity = 1:

       Center              X                  Y                   Z               Mass
    ------------   -----------------  -----------------  -----------------  -----------------
         O            0.275664570335    -0.373637770180    -0.197012556531    15.994914619570
         C           -0.989298329665     0.057463629820     0.311144743469    12.000000000000
         C           -1.396577129665     1.423586229820    -0.222919356531    12.000000000000
         C           -1.974011329665    -1.021775370180    -0.094106256531    12.000000000000
         C            1.392167670335     0.289956629820     0.387346743469    12.000000000000
         C            2.638770670335    -0.373729370180    -0.156170256531    12.000000000000
         H           -0.927978329665     0.102274629820     1.411331743469     1.007825032230
         H           -2.378493329665     1.708155629820     0.131938743469     1.007825032230
         H           -0.682836329665     2.202438629820     0.076628743469     1.007825032230
         H           -1.407338329665     1.388581629820    -1.322655256531     1.007825032230
         H           -2.976199329665    -0.796555370180     0.281144743469     1.007825032230
         H           -1.656678329665    -1.989167370180     0.299948743469     1.007825032230
         H           -2.014808329665    -1.090138370180    -1.184197256531     1.007825032230
         H            1.396558670335     1.362925629820     0.149784743469     1.007825032230
         H            1.344359670335     0.194926629820     1.483987743469     1.007825032230
         H            3.536663670335     0.085283629820     0.266876743469     1.007825032230
         H            2.635816670335    -1.437016370180     0.091958743469     1.007825032230
         H            2.672669670335    -0.272841370180    -1.242572256531     1.007825032230

  Basis Set: AUG-CC-PVTZ
    Blend: AUG-CC-PVTZ
  Basis Set: (AUG-CC-PVTZ AUX)
    Blend: AUG-CC-PVTZ-JKFIT
	 Reference Energy          =    -271.2830316773540744 [Eh]
	 Singles Energy            =      -0.0000000000000000 [Eh]
	 Same-Spin Energy          =      -0.2744811248879317 [Eh]
	 Opposite-Spin Energy      =      -0.9792786355412293 [Eh]
	 Correlation Energy        =      -1.2537597604291610 [Eh]
	 Total Energy              =    -272.5367914377832221 [Eh]

	 ================> DF-SCS-MP2 Energies <==================
	-----------------------------------------------------------
	 SCS Same-Spin Scale       =       0.3333333333333333 [-]
	 SCS Opposite-Spin Scale   =       1.2000000000000000 [-]
	 SCS Same-Spin Energy      =      -0.0914937082959772 [Eh]
	 SCS Opposite-Spin Energy  =      -1.1751343626494750 [Eh]
	 SCS Correlation Energy    =      -1.2666280709454523 [Eh]
	 SCS Total Energy          =    -272.5496597482995185 [Eh]
	-----------------------------------------------------------

  Dipole Moment: [D]
     X:    -0.1210      Y:     0.8760      Z:     0.8507     Total:     1.2270

*** Psi4 exiting successfully. Buy a developer a beer!
