                               Psi4 1.3.2 release

  ==> Input File <==

--------------------------------------------------------------------------
#psi4
#
memory 32 gb

molecule  {
0 1
  O        0.3224758    -0.4088952    -0.2381552
  C       -0.9909980     0.0554680     0.3132910
  C       -1.3870120     1.4221400    -0.2277930
  C       -1.9757110    -1.0237710    -0.0919600
  C        1.3904680     0.2879610     0.3894930
  C        2.5904897    -0.4236605    -0.1965545
  H       -0.9296780     0.1002790     1.4134780
  H       -2.3801930     1.7061600     0.1340850
  H       -0.6845360     2.2004430     0.0787750
  H       -1.4090380     1.3865860    -1.3205090
  H       -2.9778990    -0.7985510     0.2832910
  H       -1.6583780    -1.9911630     0.3020950
  H       -2.0165080    -1.0921340    -1.1820510
  H        1.3948590     1.3609300     0.1519310
  H        1.3426600     0.1929310     1.4861340
  H        3.5349640     0.0832880     0.2690230
  H        2.6341170    -1.4390120     0.0941050
  H        2.6709700    -0.2748370    -1.2404260
units angstrom
no_reorient  #important for SAPT in psi4, default
symmetry c1  #important for SAPT in psi4, default
}

set PROPERTIES_ORIGIN ["COM"]
properties('MP2/aug-cc-pvtz', properties = ['dipole'])
--------------------------------------------------------------------------

    Molecular point group: c1
  Charge       = 0
  Multiplicity = 1
  Basis Set: AUG-CC-PVTZ
    Blend: AUG-CC-PVTZ
  Basis Set: (AUG-CC-PVTZ AUX)
    Blend: AUG-CC-PVTZ-JKFIT

    Orbital Energies [Eh]
    ---------------------

    Doubly Occupied:

       1A    -20.547904     2A    -11.280859     3A    -11.267344
       4A    -11.216758     5A    -11.210034     6A    -11.206973
       7A     -1.348226     8A     -1.059738     9A     -0.989391
      10A     -0.936168    11A     -0.829309    12A     -0.791909
      13A     -0.668846    14A     -0.644769    15A     -0.617215
      16A     -0.588687    17A     -0.549960    18A     -0.546264
      19A     -0.537009    20A     -0.520347    21A     -0.506344
      22A     -0.486622    23A     -0.467845    24A     -0.456963
      25A     -0.419300

  @DF-RHF Final Energy:  -271.26874308190008

   => Energetics <=

    Nuclear Repulsion Energy =            259.3697630104780956
    One-Electron Energy =                -881.8874399970062541
    Two-Electron Energy =                 351.2489339046280747
    Total Energy =                       -271.2687430819000838
  Basis Set: (AUG-CC-PVTZ AUX)
    Blend: AUG-CC-PVTZ-RI
    Molecular point group: c1

    Geometry (in Angstrom), charge = 0, multiplicity = 1:

       Center              X                  Y                   Z               Mass
    ------------   -----------------  -----------------  -----------------  -----------------
         O            0.320178030891    -0.394404761946    -0.225691121957    15.994914619570
         C           -0.993295769109     0.069958438054     0.325755078043    12.000000000000
         C           -1.389309769109     1.436630438054    -0.215328921957    12.000000000000
         C           -1.978008769109    -1.009280561946    -0.079495921957    12.000000000000
         C            1.388170230891     0.302451438054     0.401957078043    12.000000000000
         C            2.588191930891    -0.409170061946    -0.184090421957    12.000000000000
         H           -0.931975769109     0.114769438054     1.425942078043     1.007825032230
         H           -2.382490769109     1.720650438054     0.146549078043     1.007825032230
         H           -0.686833769109     2.214933438054     0.091239078043     1.007825032230
         H           -1.411335769109     1.401076438054    -1.308044921957     1.007825032230
         H           -2.980196769109    -0.784060561946     0.295755078043     1.007825032230
         H           -1.660675769109    -1.976672561946     0.314559078043     1.007825032230
         H           -2.018805769109    -1.077643561946    -1.169586921957     1.007825032230
         H            1.392561230891     1.375420438054     0.164395078043     1.007825032230
         H            1.340362230891     0.207421438054     1.498598078043     1.007825032230
         H            3.532666230891     0.097778438054     0.281487078043     1.007825032230
         H            2.631819230891    -1.424521561946     0.106569078043     1.007825032230
         H            2.668672230891    -0.260346561946    -1.227961921957     1.007825032230

  Basis Set: AUG-CC-PVTZ
    Blend: AUG-CC-PVTZ
  Basis Set: (AUG-CC-PVTZ AUX)
    Blend: AUG-CC-PVTZ-JKFIT
	 Reference Energy          =    -271.2687430819000838 [Eh]
	 Singles Energy            =      -0.0000000000000000 [Eh]
	 Same-Spin Energy          =      -0.2752881246867320 [Eh]
	 Opposite-Spin Energy      =      -0.9821000224093459 [Eh]
	 Correlation Energy        =      -1.2573881470960779 [Eh]
	 Total Energy              =    -272.5261312289961779 [Eh]

	 ================> DF-SCS-MP2 Energies <==================
	-----------------------------------------------------------
	 SCS Same-Spin Scale       =       0.3333333333333333 [-]
	 SCS Opposite-Spin Scale   =       1.2000000000000000 [-]
	 SCS Same-Spin Energy      =      -0.0917627082289107 [Eh]
	 SCS Opposite-Spin Energy  =      -1.1785200268912150 [Eh]
	 SCS Correlation Energy    =      -1.2702827351201258 [Eh]
	 SCS Total Energy          =    -272.5390258170202173 [Eh]
	-----------------------------------------------------------

  Dipole Moment: [D]
     X:    -0.4441      Y:     0.9434      Z:     0.9166     Total:     1.3883

*** Psi4 exiting successfully. Buy a developer a beer!
