                               Psi4 1.3.2 release

  ==> Input File <==

--------------------------------------------------------------------------
#psi4
#
memory 32 gb

molecule  {
0 1
  O        0.2729584    -0.3861780    -0.1882729
  C       -0.9909980     0.0554680     0.3132910
  C       -1.4095107     1.4209371    -0.2137124
  C       -1.9757110    -1.0237710    -0.0919600
  C        1.3904680     0.2879610     0.3894930
  C        2.6370710    -0.3757250    -0.1540240
  H       -0.9296780     0.1002790     1.4134780
  H       -2.3801930     1.7061600     0.1340850
  H       -0.6845360     2.2004430     0.0787750
  H       -1.4090380     1.3865860    -1.3205090
  H       -2.9778990    -0.7985510     0.2832910
  H       -1.6583780    -1.9911630     0.3020950
  H       -2.0165080    -1.0921340    -1.1820510
  H        1.3948590     1.3609300     0.1519310
  H        1.3426600     0.1929310     1.4861340
  H        3.5349640     0.0832880     0.2690230
  H        2.6341170    -1.4390120     0.0941050
  H        2.6709700    -0.2748370    -1.2404260
units angstrom
no_reorient  #important for SAPT in psi4, default
symmetry c1  #important for SAPT in psi4, default
}

set PROPERTIES_ORIGIN ["COM"]
properties('MP2/aug-cc-pvtz', properties = ['dipole'])
--------------------------------------------------------------------------

    Molecular point group: c1
  Charge       = 0
  Multiplicity = 1
  Basis Set: AUG-CC-PVTZ
    Blend: AUG-CC-PVTZ
  Basis Set: (AUG-CC-PVTZ AUX)
    Blend: AUG-CC-PVTZ-JKFIT

    Orbital Energies [Eh]
    ---------------------

    Doubly Occupied:

       1A    -20.547830     2A    -11.275159     3A    -11.270708
       4A    -11.213113     5A    -11.210294     6A    -11.207227
       7A     -1.363144     8A     -1.059101     9A     -0.994276
      10A     -0.934310    11A     -0.834002    12A     -0.790555
      13A     -0.675163    14A     -0.645282    15A     -0.616463
      16A     -0.592424    17A     -0.559784    18A     -0.539865
      19A     -0.535167    20A     -0.518392    21A     -0.512263
      22A     -0.485483    23A     -0.477045    24A     -0.456483
      25A     -0.414732

  @DF-RHF Final Energy:  -271.28207101500846

   => Energetics <=

    Nuclear Repulsion Energy =            259.9564051265481339
    One-Electron Energy =                -883.0204204199707192
    Two-Electron Energy =                 351.7819442784141302
    Total Energy =                       -271.2820710150084551
  Basis Set: (AUG-CC-PVTZ AUX)
    Blend: AUG-CC-PVTZ-RI
    Molecular point group: c1

    Geometry (in Angstrom), charge = 0, multiplicity = 1:

       Center              X                  Y                   Z               Mass
    ------------   -----------------  -----------------  -----------------  -----------------
         O            0.276371178651    -0.382178688139    -0.192578219177    15.994914619570
         C           -0.987585221349     0.059467311861     0.308985680823    12.000000000000
         C           -1.406097921349     1.424936411861    -0.218017719177    12.000000000000
         C           -1.972298221349    -1.019771688139    -0.096265319177    12.000000000000
         C            1.393880778651     0.291960311861     0.385187680823    12.000000000000
         C            2.640483778651    -0.371725688139    -0.158329319177    12.000000000000
         H           -0.926265221349     0.104278311861     1.409172680823     1.007825032230
         H           -2.376780221349     1.710159311861     0.129779680823     1.007825032230
         H           -0.681123221349     2.204442311861     0.074469680823     1.007825032230
         H           -1.405625221349     1.390585311861    -1.324814319177     1.007825032230
         H           -2.974486221349    -0.794551688139     0.278985680823     1.007825032230
         H           -1.654965221349    -1.987163688139     0.297789680823     1.007825032230
         H           -2.013095221349    -1.088134688139    -1.186356319177     1.007825032230
         H            1.398271778651     1.364929311861     0.147625680823     1.007825032230
         H            1.346072778651     0.196930311861     1.481828680823     1.007825032230
         H            3.538376778651     0.087287311861     0.264717680823     1.007825032230
         H            2.637529778651    -1.435012688139     0.089799680823     1.007825032230
         H            2.674382778651    -0.270837688139    -1.244731319177     1.007825032230

  Basis Set: AUG-CC-PVTZ
    Blend: AUG-CC-PVTZ
  Basis Set: (AUG-CC-PVTZ AUX)
    Blend: AUG-CC-PVTZ-JKFIT
	 Reference Energy          =    -271.2820710150084551 [Eh]
	 Singles Energy            =      -0.0000000000000000 [Eh]
	 Same-Spin Energy          =      -0.2745319806687626 [Eh]
	 Opposite-Spin Energy      =      -0.9794318936903121 [Eh]
	 Correlation Energy        =      -1.2539638743590746 [Eh]
	 Total Energy              =    -272.5360348893675564 [Eh]

	 ================> DF-SCS-MP2 Energies <==================
	-----------------------------------------------------------
	 SCS Same-Spin Scale       =       0.3333333333333333 [-]
	 SCS Opposite-Spin Scale   =       1.2000000000000000 [-]
	 SCS Same-Spin Energy      =      -0.0915106602229208 [Eh]
	 SCS Opposite-Spin Energy  =      -1.1753182724283746 [Eh]
	 SCS Correlation Energy    =      -1.2668289326512954 [Eh]
	 SCS Total Energy          =    -272.5488999476597769 [Eh]
	-----------------------------------------------------------

  Dipole Moment: [D]
     X:    -0.1099      Y:     0.9018      Z:     0.8414     Total:     1.2382

*** Psi4 exiting successfully. Buy a developer a beer!
