                               Psi4 1.3.2 release

  ==> Input File <==

--------------------------------------------------------------------------
#psi4
#
memory 32 gb

molecule  {
0 1
  O        0.2448322    -0.3348279    -0.1760253
  C       -0.9909980     0.0554680     0.3132910
  C       -1.3870120     1.4221400    -0.2277930
  C       -1.9757110    -1.0237710    -0.0919600
  C        1.3904680     0.2879610     0.3894930
  C        2.6662345    -0.3427490    -0.1248353
  H       -0.9296780     0.1002790     1.4134780
  H       -2.3801930     1.7061600     0.1340850
  H       -0.6845360     2.2004430     0.0787750
  H       -1.4090380     1.3865860    -1.3205090
  H       -2.9778990    -0.7985510     0.2832910
  H       -1.6583780    -1.9911630     0.3020950
  H       -2.0165080    -1.0921340    -1.1820510
  H        1.3948590     1.3609300     0.1519310
  H        1.3426600     0.1929310     1.4861340
  H        3.5349640     0.0832880     0.2690230
  H        2.6341170    -1.4390120     0.0941050
  H        2.6709700    -0.2748370    -1.2404260
units angstrom
no_reorient  #important for SAPT in psi4, default
symmetry c1  #important for SAPT in psi4, default
}

set PROPERTIES_ORIGIN ["COM"]
properties('MP2/aug-cc-pvtz', properties = ['dipole'])
--------------------------------------------------------------------------

    Molecular point group: c1
  Charge       = 0
  Multiplicity = 1
  Basis Set: AUG-CC-PVTZ
    Blend: AUG-CC-PVTZ
  Basis Set: (AUG-CC-PVTZ AUX)
    Blend: AUG-CC-PVTZ-JKFIT

    Orbital Energies [Eh]
    ---------------------

    Doubly Occupied:

       1A    -20.545514     2A    -11.272891     3A    -11.272134
       4A    -11.213634     5A    -11.209331     6A    -11.206894
       7A     -1.377495     8A     -1.059928     9A     -0.996015
      10A     -0.934096    11A     -0.840584    12A     -0.789672
      13A     -0.679665    14A     -0.647883    15A     -0.621394
      16A     -0.592206    17A     -0.567702    18A     -0.540347
      19A     -0.533646    20A     -0.522439    21A     -0.510837
      22A     -0.491511    23A     -0.475115    24A     -0.450607
      25A     -0.408751

  @DF-RHF Final Energy:  -271.28036330777945

   => Energetics <=

    Nuclear Repulsion Energy =            260.7805989155416455
    One-Electron Energy =                -884.6013409809471568
    Two-Electron Energy =                 352.5403787576260584
    Total Energy =                       -271.2803633077794530
  Basis Set: (AUG-CC-PVTZ AUX)
    Blend: AUG-CC-PVTZ-RI
    Molecular point group: c1

    Geometry (in Angstrom), charge = 0, multiplicity = 1:

       Center              X                  Y                   Z               Mass
    ------------   -----------------  -----------------  -----------------  -----------------
         O            0.246314310922    -0.344808652067    -0.184612621566    15.994914619570
         C           -0.989515889078     0.045487247933     0.304703678434    12.000000000000
         C           -1.385529889078     1.412159247933    -0.236380321566    12.000000000000
         C           -1.974228889078    -1.033751752067    -0.100547321566    12.000000000000
         C            1.391950110922     0.277980247933     0.380905678434    12.000000000000
         C            2.667716610922    -0.352729752067    -0.133422621566    12.000000000000
         H           -0.928195889078     0.090298247933     1.404890678434     1.007825032230
         H           -2.378710889078     1.696179247933     0.125497678434     1.007825032230
         H           -0.683053889078     2.190462247933     0.070187678434     1.007825032230
         H           -1.407555889078     1.376605247933    -1.329096321566     1.007825032230
         H           -2.976416889078    -0.808531752067     0.274703678434     1.007825032230
         H           -1.656895889078    -2.001143752067     0.293507678434     1.007825032230
         H           -2.015025889078    -1.102114752067    -1.190638321566     1.007825032230
         H            1.396341110922     1.350949247933     0.143343678434     1.007825032230
         H            1.344142110922     0.182950247933     1.477546678434     1.007825032230
         H            3.536446110922     0.073307247933     0.260435678434     1.007825032230
         H            2.635599110922    -1.448992752067     0.085517678434     1.007825032230
         H            2.672452110922    -0.284817752067    -1.249013321566     1.007825032230

  Basis Set: AUG-CC-PVTZ
    Blend: AUG-CC-PVTZ
  Basis Set: (AUG-CC-PVTZ AUX)
    Blend: AUG-CC-PVTZ-JKFIT
	 Reference Energy          =    -271.2803633077794530 [Eh]
	 Singles Energy            =      -0.0000000000000000 [Eh]
	 Same-Spin Energy          =      -0.2742096758049372 [Eh]
	 Opposite-Spin Energy      =      -0.9779673319313099 [Eh]
	 Correlation Energy        =      -1.2521770077362471 [Eh]
	 Total Energy              =    -272.5325403155156891 [Eh]

	 ================> DF-SCS-MP2 Energies <==================
	-----------------------------------------------------------
	 SCS Same-Spin Scale       =       0.3333333333333333 [-]
	 SCS Opposite-Spin Scale   =       1.2000000000000000 [-]
	 SCS Same-Spin Energy      =      -0.0914032252683124 [Eh]
	 SCS Opposite-Spin Energy  =      -1.1735607983175718 [Eh]
	 SCS Correlation Energy    =      -1.2649640235858841 [Eh]
	 SCS Total Energy          =    -272.5453273313653426 [Eh]
	-----------------------------------------------------------

  Dipole Moment: [D]
     X:     0.0672      Y:     0.7773      Z:     0.8119     Total:     1.1260

*** Psi4 exiting successfully. Buy a developer a beer!
