                               Psi4 1.4a3.dev225

  ==> Input File <==

--------------------------------------------------------------------------
#psi4
#
memory 32 gb

molecule  {
0 1
  O        0.2968820    -0.3700300    -0.2078900
  C       -1.0245837    -0.0007172     0.3493621
  C       -1.4659740     1.3243170    -0.2137670
  C       -1.9120560    -1.1518890    -0.0406980
  C        1.3836810     0.3843060     0.3164800
  C        2.6596730    -0.2598580    -0.1849460
  H       -0.8961600     0.0483700     1.4287490
  H       -2.4684560     1.5499650     0.1629670
  H       -0.8070120     2.1464590     0.0762310
  H       -1.5037200     1.2784970    -1.3059680
  H       -2.9152180    -0.9801130     0.3603010
  H       -1.5287480    -2.0957260     0.3533410
  H       -1.9776690    -1.2323490    -1.1292410
  H        1.3324290     1.4330630    -0.0082660
  H        1.3481650     0.3771000     1.4173590
  H        3.5357030     0.2822800     0.1830210
  H        2.7163030    -1.2957450     0.1558670
  H        2.6771830    -0.2537050    -1.2769390
units angstrom
no_reorient  #important for SAPT in psi4, default
symmetry c1  #important for SAPT in psi4, default
}

set PROPERTIES_ORIGIN ["COM"]
properties('MP2/aug-cc-pvtz', properties = ['dipole'])
--------------------------------------------------------------------------

    Molecular point group: c1
  Charge       = 0
  Multiplicity = 1
  Basis Set: AUG-CC-PVTZ
    Blend: AUG-CC-PVTZ
  Basis Set: (AUG-CC-PVTZ AUX)
    Blend: AUG-CC-PVTZ-JKFIT

    Orbital Energies [Eh]
    ---------------------

    Doubly Occupied:

       1A    -20.540854     2A    -11.276672     3A    -11.266708
       4A    -11.214570     5A    -11.209953     6A    -11.208066
       7A     -1.346462     8A     -1.062372     9A     -0.991265
      10A     -0.938595    11A     -0.828908    12A     -0.791507
      13A     -0.669294    14A     -0.640934    15A     -0.618695
      16A     -0.588950    17A     -0.556377    18A     -0.543382
      19A     -0.533854    20A     -0.515139    21A     -0.512997
      22A     -0.488968    23A     -0.473990    24A     -0.456740
      25A     -0.413589

  @DF-RHF Final Energy:  -271.27998749601528

   => Energetics <=

    Nuclear Repulsion Energy =            259.4992188138480742
    One-Electron Energy =                -882.1807284907811209
    Two-Electron Energy =                 351.4015221809177660
    Total Energy =                       -271.2799874960152806
  Basis Set: (AUG-CC-PVTZ AUX)
    Blend: AUG-CC-PVTZ-RI
    Molecular point group: c1

    Geometry (in Angstrom), charge = 0, multiplicity = 1:

       Center              X                  Y                   Z               Mass
    ------------   -----------------  -----------------  -----------------  -----------------
         O            0.297489642566    -0.357579474756    -0.205763495521    15.994914619570
         C           -1.023976057434     0.011733325244     0.351488604479    12.000000000000
         C           -1.465366357434     1.336767525244    -0.211640495521    12.000000000000
         C           -1.911448357434    -1.139438474756    -0.038571495521    12.000000000000
         C            1.384288642566     0.396756525244     0.318606504479    12.000000000000
         C            2.660280642566    -0.247407474756    -0.182819495521    12.000000000000
         H           -0.895552357434     0.060820525244     1.430875504479     1.007825032230
         H           -2.467848357434     1.562415525244     0.165093504479     1.007825032230
         H           -0.806404357434     2.158909525244     0.078357504479     1.007825032230
         H           -1.503112357434     1.290947525244    -1.303841495521     1.007825032230
         H           -2.914610357434    -0.967662474756     0.362427504479     1.007825032230
         H           -1.528140357434    -2.083275474756     0.355467504479     1.007825032230
         H           -1.977061357434    -1.219898474756    -1.127114495521     1.007825032230
         H            1.333036642566     1.445513525244    -0.006139495521     1.007825032230
         H            1.348772642566     0.389550525244     1.419485504479     1.007825032230
         H            3.536310642566     0.294730525244     0.185147504479     1.007825032230
         H            2.716910642566    -1.283294474756     0.157993504479     1.007825032230
         H            2.677790642566    -0.241254474756    -1.274812495521     1.007825032230

  Basis Set: AUG-CC-PVTZ
    Blend: AUG-CC-PVTZ
  Basis Set: (AUG-CC-PVTZ AUX)
    Blend: AUG-CC-PVTZ-JKFIT
	 Reference Energy          =    -271.2799874960152806 [Eh]
	 Singles Energy            =      -0.0000000000000000 [Eh]
	 Same-Spin Energy          =      -0.2747815284793347 [Eh]
	 Opposite-Spin Energy      =      -0.9802816483528893 [Eh]
	 Correlation Energy        =      -1.2550631768322240 [Eh]
	 Total Energy              =    -272.5350506728474897 [Eh]

	 ================> DF-SCS-MP2 Energies <==================
	-----------------------------------------------------------
	 SCS Same-Spin Scale       =       0.3333333333333333 [-]
	 SCS Opposite-Spin Scale   =       1.2000000000000000 [-]
	 SCS Same-Spin Energy      =      -0.0915938428264449 [Eh]
	 SCS Opposite-Spin Energy  =      -1.1763379780234671 [Eh]
	 SCS Correlation Energy    =      -1.2679318208499120 [Eh]
	 SCS Total Energy          =    -272.5479193168652046 [Eh]
	-----------------------------------------------------------

  Dipole Moment: [D]
     X:    -0.3713      Y:     0.9083      Z:     0.8658     Total:     1.3087

*** Psi4 exiting successfully. Buy a developer a beer!
