                               Psi4 1.3.2 release

  ==> Input File <==

--------------------------------------------------------------------------
#psi4
#
memory 32 gb

molecule  {
0 1
  O        0.2748750    -0.3650560    -0.2014210
  C       -0.9851797     0.0633875     0.3209788
  C       -1.3870120     1.4221400    -0.2277930
  C       -1.9757110    -1.0237710    -0.0919600
  C        1.3827626     0.2944987     0.3966852
  C        2.6370710    -0.3757250    -0.1540240
  H       -0.9296780     0.1002790     1.4134780
  H       -2.3801930     1.7061600     0.1340850
  H       -0.6845360     2.2004430     0.0787750
  H       -1.4090380     1.3865860    -1.3205090
  H       -2.9778990    -0.7985510     0.2832910
  H       -1.6583780    -1.9911630     0.3020950
  H       -2.0165080    -1.0921340    -1.1820510
  H        1.3948590     1.3609300     0.1519310
  H        1.3426600     0.1929310     1.4861340
  H        3.5349640     0.0832880     0.2690230
  H        2.6341170    -1.4390120     0.0941050
  H        2.6709700    -0.2748370    -1.2404260
units angstrom
no_reorient  #important for SAPT in psi4, default
symmetry c1  #important for SAPT in psi4, default
}

set PROPERTIES_ORIGIN ["COM"]
properties('MP2/aug-cc-pvtz', properties = ['dipole'])
--------------------------------------------------------------------------

    Molecular point group: c1
  Charge       = 0
  Multiplicity = 1
  Basis Set: AUG-CC-PVTZ
    Blend: AUG-CC-PVTZ
  Basis Set: (AUG-CC-PVTZ AUX)
    Blend: AUG-CC-PVTZ-JKFIT

    Orbital Energies [Eh]
    ---------------------

    Doubly Occupied:

       1A    -20.547217     2A    -11.274900     3A    -11.269386
       4A    -11.212341     5A    -11.210153     6A    -11.208066
       7A     -1.365054     8A     -1.057528     9A     -0.991379
      10A     -0.933776    11A     -0.834993    12A     -0.792701
      13A     -0.675628    14A     -0.646591    15A     -0.617001
      16A     -0.590101    17A     -0.555970    18A     -0.542943
      19A     -0.534547    20A     -0.517325    21A     -0.513025
      22A     -0.487003    23A     -0.474381    24A     -0.458568
      25A     -0.414959

  @DF-RHF Final Energy:  -271.28311940915802

   => Energetics <=

    Nuclear Repulsion Energy =            260.1163465028581072
    One-Electron Energy =                -883.3478584738221571
    Two-Electron Energy =                 351.9483925618059743
    Total Energy =                       -271.2831194091580187
  Basis Set: (AUG-CC-PVTZ AUX)
    Blend: AUG-CC-PVTZ-RI
    Molecular point group: c1

    Geometry (in Angstrom), charge = 0, multiplicity = 1:

       Center              X                  Y                   Z               Mass
    ------------   -----------------  -----------------  -----------------  -----------------
         O            0.275131929031    -0.367025275485    -0.203447824037    15.994914619570
         C           -0.984922770969     0.061418224515     0.318951975963    12.000000000000
         C           -1.386755070969     1.420170724515    -0.229819824037    12.000000000000
         C           -1.975454070969    -1.025740275485    -0.093986824037    12.000000000000
         C            1.383019529031     0.292529424515     0.394658375963    12.000000000000
         C            2.637327929031    -0.377694275485    -0.156050824037    12.000000000000
         H           -0.929421070969     0.098309724515     1.411451175963     1.007825032230
         H           -2.379936070969     1.704190724515     0.132058175963     1.007825032230
         H           -0.684279070969     2.198473724515     0.076748175963     1.007825032230
         H           -1.408781070969     1.384616724515    -1.322535824037     1.007825032230
         H           -2.977642070969    -0.800520275485     0.281264175963     1.007825032230
         H           -1.658121070969    -1.993132275485     0.300068175963     1.007825032230
         H           -2.016251070969    -1.094103275485    -1.184077824037     1.007825032230
         H            1.395115929031     1.358960724515     0.149904175963     1.007825032230
         H            1.342916929031     0.190961724515     1.484107175963     1.007825032230
         H            3.535220929031     0.081318724515     0.266996175963     1.007825032230
         H            2.634373929031    -1.440981275485     0.092078175963     1.007825032230
         H            2.671226929031    -0.276806275485    -1.242452824037     1.007825032230

  Basis Set: AUG-CC-PVTZ
    Blend: AUG-CC-PVTZ
  Basis Set: (AUG-CC-PVTZ AUX)
    Blend: AUG-CC-PVTZ-JKFIT
	 Reference Energy          =    -271.2831194091580187 [Eh]
	 Singles Energy            =      -0.0000000000000000 [Eh]
	 Same-Spin Energy          =      -0.2743796478177264 [Eh]
	 Opposite-Spin Energy      =      -0.9792180927784961 [Eh]
	 Correlation Energy        =      -1.2535977405962226 [Eh]
	 Total Energy              =    -272.5367171497542245 [Eh]

	 ================> DF-SCS-MP2 Energies <==================
	-----------------------------------------------------------
	 SCS Same-Spin Scale       =       0.3333333333333333 [-]
	 SCS Opposite-Spin Scale   =       1.2000000000000000 [-]
	 SCS Same-Spin Energy      =      -0.0914598826059088 [Eh]
	 SCS Opposite-Spin Energy  =      -1.1750617113341952 [Eh]
	 SCS Correlation Energy    =      -1.2665215939401040 [Eh]
	 SCS Total Energy          =    -272.5496410030981451 [Eh]
	-----------------------------------------------------------

  Dipole Moment: [D]
     X:    -0.1329      Y:     0.8725      Z:     0.8802     Total:     1.2465

*** Psi4 exiting successfully. Buy a developer a beer!
