                               Psi4 1.3.2 release

  ==> Input File <==

--------------------------------------------------------------------------
#psi4
#
memory 32 gb

molecule  {
0 1
  O        0.2462232    -0.3602092    -0.2704036
  C       -0.9909980     0.0554680     0.3132910
  C       -1.3870120     1.4221400    -0.2277930
  C       -1.9757110    -1.0237710    -0.0919600
  C        1.3904680     0.2879610     0.3894930
  C        2.6370710    -0.3757250    -0.1540240
  H       -0.9848259     0.1173501     1.4143415
  H       -2.3801930     1.7061600     0.1340850
  H       -0.6845360     2.2004430     0.0787750
  H       -1.4090380     1.3865860    -1.3205090
  H       -2.9778990    -0.7985510     0.2832910
  H       -1.6583780    -1.9911630     0.3020950
  H       -2.0165080    -1.0921340    -1.1820510
  H        1.3948590     1.3609300     0.1519310
  H        1.3426600     0.1929310     1.4861340
  H        3.5349640     0.0832880     0.2690230
  H        2.6341170    -1.4390120     0.0941050
  H        2.6709700    -0.2748370    -1.2404260
units angstrom
no_reorient  #important for SAPT in psi4, default
symmetry c1  #important for SAPT in psi4, default
}

set PROPERTIES_ORIGIN ["COM"]
properties('MP2/aug-cc-pvtz', properties = ['dipole'])
--------------------------------------------------------------------------

    Molecular point group: c1
  Charge       = 0
  Multiplicity = 1
  Basis Set: AUG-CC-PVTZ
    Blend: AUG-CC-PVTZ
  Basis Set: (AUG-CC-PVTZ AUX)
    Blend: AUG-CC-PVTZ-JKFIT

    Orbital Energies [Eh]
    ---------------------

    Doubly Occupied:

       1A    -20.549947     2A    -11.275146     3A    -11.273217
       4A    -11.212106     5A    -11.209674     6A    -11.205318
       7A     -1.352687     8A     -1.055187     9A     -0.995867
      10A     -0.932837    11A     -0.833312    12A     -0.788072
      13A     -0.671512    14A     -0.643546    15A     -0.613713
      16A     -0.588147    17A     -0.556661    18A     -0.539966
      19A     -0.533526    20A     -0.515313    21A     -0.509866
      22A     -0.488822    23A     -0.478310    24A     -0.457137
      25A     -0.415496

  @DF-RHF Final Energy:  -271.27750749561653

   => Energetics <=

    Nuclear Repulsion Energy =            259.5002125512382349
    One-Electron Energy =                -882.1646659624599351
    Two-Electron Energy =                 351.3869459156052244
    Total Energy =                       -271.2775074956165327
  Basis Set: (AUG-CC-PVTZ AUX)
    Blend: AUG-CC-PVTZ-RI
    Molecular point group: c1

    Geometry (in Angstrom), charge = 0, multiplicity = 1:

       Center              X                  Y                   Z               Mass
    ------------   -----------------  -----------------  -----------------  -----------------
         O            0.252056516098    -0.361284405495    -0.257887595413    15.994914619570
         C           -0.985164683902     0.054392794505     0.325807004587    12.000000000000
         C           -1.381178683902     1.421064794505    -0.215276995413    12.000000000000
         C           -1.969877683902    -1.024846205495    -0.079443995413    12.000000000000
         C            1.396301316098     0.286885794505     0.402009004587    12.000000000000
         C            2.642904316098    -0.376800205495    -0.141507995413    12.000000000000
         H           -0.978992583902     0.116274894505     1.426857504587     1.007825032230
         H           -2.374359683902     1.705084794505     0.146601004587     1.007825032230
         H           -0.678702683902     2.199367794505     0.091291004587     1.007825032230
         H           -1.403204683902     1.385510794505    -1.307992995413     1.007825032230
         H           -2.972065683902    -0.799626205495     0.295807004587     1.007825032230
         H           -1.652544683902    -1.992238205495     0.314611004587     1.007825032230
         H           -2.010674683902    -1.093209205495    -1.169534995413     1.007825032230
         H            1.400692316098     1.359854794505     0.164447004587     1.007825032230
         H            1.348493316098     0.191855794505     1.498650004587     1.007825032230
         H            3.540797316098     0.082212794505     0.281539004587     1.007825032230
         H            2.639950316098    -1.440087205495     0.106621004587     1.007825032230
         H            2.676803316098    -0.275912205495    -1.227909995413     1.007825032230

  Basis Set: AUG-CC-PVTZ
    Blend: AUG-CC-PVTZ
  Basis Set: (AUG-CC-PVTZ AUX)
    Blend: AUG-CC-PVTZ-JKFIT
	 Reference Energy          =    -271.2775074956165327 [Eh]
	 Singles Energy            =      -0.0000000000000000 [Eh]
	 Same-Spin Energy          =      -0.2748904260850908 [Eh]
	 Opposite-Spin Energy      =      -0.9809647315180015 [Eh]
	 Correlation Energy        =      -1.2558551576030923 [Eh]
	 Total Energy              =    -272.5333626532196263 [Eh]

	 ================> DF-SCS-MP2 Energies <==================
	-----------------------------------------------------------
	 SCS Same-Spin Scale       =       0.3333333333333333 [-]
	 SCS Opposite-Spin Scale   =       1.2000000000000000 [-]
	 SCS Same-Spin Energy      =      -0.0916301420283636 [Eh]
	 SCS Opposite-Spin Energy  =      -1.1771576778216017 [Eh]
	 SCS Correlation Energy    =      -1.2687878198499654 [Eh]
	 SCS Total Energy          =    -272.5462953154665229 [Eh]
	-----------------------------------------------------------

  Dipole Moment: [D]
     X:     0.0737      Y:     0.8585      Z:     1.0308     Total:     1.3435

*** Psi4 exiting successfully. Buy a developer a beer!
