                               Psi4 1.3.2 release

  ==> Input File <==

--------------------------------------------------------------------------
#psi4
#
memory 32 gb

molecule  {
0 1
  O        0.2748750    -0.3650560    -0.2014210
  C       -0.9671509     0.0869480     0.3438013
  C       -1.3870120     1.4221400    -0.2277930
  C       -1.9757110    -1.0237710    -0.0919600
  C        1.3591425     0.3138083     0.4179865
  C        2.6370710    -0.3757250    -0.1540240
  H       -0.9296780     0.1002790     1.4134780
  H       -2.3801930     1.7061600     0.1340850
  H       -0.6845360     2.2004430     0.0787750
  H       -1.4090380     1.3865860    -1.3205090
  H       -2.9778990    -0.7985510     0.2832910
  H       -1.6583780    -1.9911630     0.3020950
  H       -2.0165080    -1.0921340    -1.1820510
  H        1.3948590     1.3609300     0.1519310
  H        1.3426600     0.1929310     1.4861340
  H        3.5349640     0.0832880     0.2690230
  H        2.6341170    -1.4390120     0.0941050
  H        2.6709700    -0.2748370    -1.2404260
units angstrom
no_reorient  #important for SAPT in psi4, default
symmetry c1  #important for SAPT in psi4, default
}

set PROPERTIES_ORIGIN ["COM"]
properties('MP2/aug-cc-pvtz', properties = ['dipole'])
--------------------------------------------------------------------------

    Molecular point group: c1
  Charge       = 0
  Multiplicity = 1
  Basis Set: AUG-CC-PVTZ
    Blend: AUG-CC-PVTZ
  Basis Set: (AUG-CC-PVTZ AUX)
    Blend: AUG-CC-PVTZ-JKFIT

    Orbital Energies [Eh]
    ---------------------

    Doubly Occupied:

       1A    -20.549674     2A    -11.273660     3A    -11.267978
       4A    -11.212597     5A    -11.210569     6A    -11.208010
       7A     -1.367403     8A     -1.052858     9A     -0.986126
      10A     -0.930530    11A     -0.837637    12A     -0.798529
      13A     -0.677707    14A     -0.649092    15A     -0.613666
      16A     -0.589273    17A     -0.552716    18A     -0.544408
      19A     -0.533259    20A     -0.518183    21A     -0.512916
      22A     -0.491802    23A     -0.465847    24A     -0.456837
      25A     -0.418706

  @DF-RHF Final Energy:  -271.27780784725218

   => Energetics <=

    Nuclear Repulsion Energy =            259.9560284845676961
    One-Electron Energy =                -883.0277082961080168
    Two-Electron Energy =                 351.7938719642881438
    Total Energy =                       -271.2778078472521770
  Basis Set: (AUG-CC-PVTZ AUX)
    Blend: AUG-CC-PVTZ-RI
    Molecular point group: c1

    Geometry (in Angstrom), charge = 0, multiplicity = 1:

       Center              X                  Y                   Z               Mass
    ------------   -----------------  -----------------  -----------------  -----------------
         O            0.275893610295    -0.372865304097    -0.209458639371    15.994914619570
         C           -0.966132289705     0.079138695903     0.335763660629    12.000000000000
         C           -1.385993389705     1.414330695903    -0.235830639371    12.000000000000
         C           -1.974692389705    -1.031580304097    -0.099997639371    12.000000000000
         C            1.360161110295     0.305998995903     0.409948860629    12.000000000000
         C            2.638089610295    -0.383534304097    -0.162061639371    12.000000000000
         H           -0.928659389705     0.092469695903     1.405440360629     1.007825032230
         H           -2.379174389705     1.698350695903     0.126047360629     1.007825032230
         H           -0.683517389705     2.192633695903     0.070737360629     1.007825032230
         H           -1.408019389705     1.378776695903    -1.328546639371     1.007825032230
         H           -2.976880389705    -0.806360304097     0.275253360629     1.007825032230
         H           -1.657359389705    -1.998972304097     0.294057360629     1.007825032230
         H           -2.015489389705    -1.099943304097    -1.190088639371     1.007825032230
         H            1.395877610295     1.353120695903     0.143893360629     1.007825032230
         H            1.343678610295     0.185121695903     1.478096360629     1.007825032230
         H            3.535982610295     0.075478695903     0.260985360629     1.007825032230
         H            2.635135610295    -1.446821304097     0.086067360629     1.007825032230
         H            2.671988610295    -0.282646304097    -1.248463639371     1.007825032230

  Basis Set: AUG-CC-PVTZ
    Blend: AUG-CC-PVTZ
  Basis Set: (AUG-CC-PVTZ AUX)
    Blend: AUG-CC-PVTZ-JKFIT
	 Reference Energy          =    -271.2778078472521770 [Eh]
	 Singles Energy            =      -0.0000000000000000 [Eh]
	 Same-Spin Energy          =      -0.2743543417024684 [Eh]
	 Opposite-Spin Energy      =      -0.9797006196904958 [Eh]
	 Correlation Energy        =      -1.2540549613929644 [Eh]
	 Total Energy              =    -272.5318628086451440 [Eh]

	 ================> DF-SCS-MP2 Energies <==================
	-----------------------------------------------------------
	 SCS Same-Spin Scale       =       0.3333333333333333 [-]
	 SCS Opposite-Spin Scale   =       1.2000000000000000 [-]
	 SCS Same-Spin Energy      =      -0.0914514472341561 [Eh]
	 SCS Opposite-Spin Energy  =      -1.1756407436285949 [Eh]
	 SCS Correlation Energy    =      -1.2670921908627510 [Eh]
	 SCS Total Energy          =    -272.5449000381149176 [Eh]
	-----------------------------------------------------------

  Dipole Moment: [D]
     X:    -0.1383      Y:     0.9392      Z:     0.9360     Total:     1.3332

*** Psi4 exiting successfully. Buy a developer a beer!
