                               Psi4 1.3.2 release

  ==> Input File <==

--------------------------------------------------------------------------
#psi4
#
memory 32 gb

molecule  {
0 1
  O        0.2904537    -0.4077629    -0.1815544
  C       -0.9909980     0.0554680     0.3132910
  C       -1.3870120     1.4221400    -0.2277930
  C       -1.9757110    -1.0237710    -0.0919600
  C        1.3904680     0.2879610     0.3894930
  C        2.6370710    -0.3757250    -0.1540240
  H       -0.9296780     0.1002790     1.4134780
  H       -2.3801930     1.7061600     0.1340850
  H       -0.6845360     2.2004430     0.0787750
  H       -1.4090380     1.3865860    -1.3205090
  H       -2.9778990    -0.7985510     0.2832910
  H       -1.6583780    -1.9911630     0.3020950
  H       -2.0165080    -1.0921340    -1.1820510
  H        1.4270883     1.3646440     0.1723980
  H        1.3426600     0.1929310     1.4861340
  H        3.5349640     0.0832880     0.2690230
  H        2.6341170    -1.4390120     0.0941050
  H        2.6709700    -0.2748370    -1.2404260
units angstrom
no_reorient  #important for SAPT in psi4, default
symmetry c1  #important for SAPT in psi4, default
}

set PROPERTIES_ORIGIN ["COM"]
properties('MP2/aug-cc-pvtz', properties = ['dipole'])
--------------------------------------------------------------------------

    Molecular point group: c1
  Charge       = 0
  Multiplicity = 1
  Basis Set: AUG-CC-PVTZ
    Blend: AUG-CC-PVTZ
  Basis Set: (AUG-CC-PVTZ AUX)
    Blend: AUG-CC-PVTZ-JKFIT

    Orbital Energies [Eh]
    ---------------------

    Doubly Occupied:

       1A    -20.548656     2A    -11.277360     3A    -11.268918
       4A    -11.214792     5A    -11.208503     6A    -11.208331
       7A     -1.359628     8A     -1.059358     9A     -0.993256
      10A     -0.935432    11A     -0.831558    12A     -0.791452
      13A     -0.674253    14A     -0.643511    15A     -0.617214
      16A     -0.590893    17A     -0.557280    18A     -0.543413
      19A     -0.534855    20A     -0.516544    21A     -0.512400
      22A     -0.483538    23A     -0.474585    24A     -0.460387
      25A     -0.416214

  @DF-RHF Final Energy:  -271.28122424307759

   => Energetics <=

    Nuclear Repulsion Energy =            259.7173250020593400
    One-Electron Energy =                -882.5524364240872046
    Two-Electron Energy =                 351.5538871789503332
    Total Energy =                       -271.2812242430775882
  Basis Set: (AUG-CC-PVTZ AUX)
    Blend: AUG-CC-PVTZ-RI
    Molecular point group: c1

    Geometry (in Angstrom), charge = 0, multiplicity = 1:

       Center              X                  Y                   Z               Mass
    ------------   -----------------  -----------------  -----------------  -----------------
         O            0.287256085209    -0.400050622192    -0.185395662405    15.994914619570
         C           -0.994195614791     0.063180277808     0.309449737595    12.000000000000
         C           -1.390209614791     1.429852277808    -0.231634262405    12.000000000000
         C           -1.978908614791    -1.016058722192    -0.095801262405    12.000000000000
         C            1.387270385209     0.295673277808     0.385651737595    12.000000000000
         C            2.633873385209    -0.368012722192    -0.157865262405    12.000000000000
         H           -0.932875614791     0.107991277808     1.409636737595     1.007825032230
         H           -2.383390614791     1.713872277808     0.130243737595     1.007825032230
         H           -0.687733614791     2.208155277808     0.074933737595     1.007825032230
         H           -1.412235614791     1.394298277808    -1.324350262405     1.007825032230
         H           -2.981096614791    -0.790838722192     0.279449737595     1.007825032230
         H           -1.661575614791    -1.983450722192     0.298253737595     1.007825032230
         H           -2.019705614791    -1.084421722192    -1.185892262405     1.007825032230
         H            1.423890685209     1.372356277808     0.168556737595     1.007825032230
         H            1.339462385209     0.200643277808     1.482292737595     1.007825032230
         H            3.531766385209     0.091000277808     0.265181737595     1.007825032230
         H            2.630919385209    -1.431299722192     0.090263737595     1.007825032230
         H            2.667772385209    -0.267124722192    -1.244267262405     1.007825032230

  Basis Set: AUG-CC-PVTZ
    Blend: AUG-CC-PVTZ
  Basis Set: (AUG-CC-PVTZ AUX)
    Blend: AUG-CC-PVTZ-JKFIT
	 Reference Energy          =    -271.2812242430775882 [Eh]
	 Singles Energy            =      -0.0000000000000000 [Eh]
	 Same-Spin Energy          =      -0.2746553546973744 [Eh]
	 Opposite-Spin Energy      =      -0.9798872087665260 [Eh]
	 Correlation Energy        =      -1.2545425634639005 [Eh]
	 Total Energy              =    -272.5357668065415169 [Eh]

	 ================> DF-SCS-MP2 Energies <==================
	-----------------------------------------------------------
	 SCS Same-Spin Scale       =       0.3333333333333333 [-]
	 SCS Opposite-Spin Scale   =       1.2000000000000000 [-]
	 SCS Same-Spin Energy      =      -0.0915517848991248 [Eh]
	 SCS Opposite-Spin Energy  =      -1.1758646505198311 [Eh]
	 SCS Correlation Energy    =      -1.2674164354189559 [Eh]
	 SCS Total Energy          =    -272.5486406784965538 [Eh]
	-----------------------------------------------------------

  Dipole Moment: [D]
     X:    -0.2324      Y:     0.9544      Z:     0.8226     Total:     1.2812

*** Psi4 exiting successfully. Buy a developer a beer!
