                               Psi4 1.3.2 release

  ==> Input File <==

--------------------------------------------------------------------------
#psi4
#
memory 32 gb

molecule  {
0 1
  O        0.2561547    -0.3619521    -0.2475779
  C       -0.9909980     0.0554680     0.3132910
  C       -1.3870120     1.4221400    -0.2277930
  C       -1.9757110    -1.0237710    -0.0919600
  C        1.3904680     0.2879610     0.3894930
  C        2.6370710    -0.3757250    -0.1540240
  H       -0.9664339     0.1116763     1.4143890
  H       -2.3801930     1.7061600     0.1340850
  H       -0.6845360     2.2004430     0.0787750
  H       -1.4090380     1.3865860    -1.3205090
  H       -2.9778990    -0.7985510     0.2832910
  H       -1.6583780    -1.9911630     0.3020950
  H       -2.0165080    -1.0921340    -1.1820510
  H        1.3948590     1.3609300     0.1519310
  H        1.3426600     0.1929310     1.4861340
  H        3.5349640     0.0832880     0.2690230
  H        2.6341170    -1.4390120     0.0941050
  H        2.6709700    -0.2748370    -1.2404260
units angstrom
no_reorient  #important for SAPT in psi4, default
symmetry c1  #important for SAPT in psi4, default
}

set PROPERTIES_ORIGIN ["COM"]
properties('MP2/aug-cc-pvtz', properties = ['dipole'])
--------------------------------------------------------------------------

    Molecular point group: c1
  Charge       = 0
  Multiplicity = 1
  Basis Set: AUG-CC-PVTZ
    Blend: AUG-CC-PVTZ
  Basis Set: (AUG-CC-PVTZ AUX)
    Blend: AUG-CC-PVTZ-JKFIT

    Orbital Energies [Eh]
    ---------------------

    Doubly Occupied:

       1A    -20.548818     2A    -11.273934     3A    -11.273374
       4A    -11.211377     5A    -11.210553     6A    -11.206231
       7A     -1.356430     8A     -1.056527     9A     -0.994996
      10A     -0.933480    11A     -0.833424    12A     -0.789052
      13A     -0.672645    14A     -0.644313    15A     -0.615201
      16A     -0.588901    17A     -0.556707    18A     -0.540881
      19A     -0.533993    20A     -0.515925    21A     -0.510946
      22A     -0.488299    23A     -0.476713    24A     -0.458455
      25A     -0.414959

  @DF-RHF Final Energy:  -271.28023808732650

   => Energetics <=

    Nuclear Repulsion Energy =            259.7245953189901115
    One-Electron Energy =                -882.5973989877609256
    Two-Electron Energy =                 351.5925655814442621
    Total Energy =                       -271.2802380873264951
  Basis Set: (AUG-CC-PVTZ AUX)
    Blend: AUG-CC-PVTZ-RI
    Molecular point group: c1

    Geometry (in Angstrom), charge = 0, multiplicity = 1:

       Center              X                  Y                   Z               Mass
    ------------   -----------------  -----------------  -----------------  -----------------
         O            0.259974259726    -0.362645920704    -0.239207064062    15.994914619570
         C           -0.987178440274     0.054774179296     0.321661835938    12.000000000000
         C           -1.383192440274     1.421446179296    -0.219422164062    12.000000000000
         C           -1.971891440274    -1.024464820704    -0.083589164062    12.000000000000
         C            1.394287559726     0.287267179296     0.397863835938    12.000000000000
         C            2.640890559726    -0.376418820704    -0.145653164062    12.000000000000
         H           -0.962614340274     0.110982479296     1.422759835938     1.007825032230
         H           -2.376373440274     1.705466179296     0.142455835938     1.007825032230
         H           -0.680716440274     2.199749179296     0.087145835938     1.007825032230
         H           -1.405218440274     1.385892179296    -1.312138164062     1.007825032230
         H           -2.974079440274    -0.799244820704     0.291661835938     1.007825032230
         H           -1.654558440274    -1.991856820704     0.310465835938     1.007825032230
         H           -2.012688440274    -1.092827820704    -1.173680164062     1.007825032230
         H            1.398678559726     1.360236179296     0.160301835938     1.007825032230
         H            1.346479559726     0.192237179296     1.494504835938     1.007825032230
         H            3.538783559726     0.082594179296     0.277393835938     1.007825032230
         H            2.637936559726    -1.439705820704     0.102475835938     1.007825032230
         H            2.674789559726    -0.275530820704    -1.232055164062     1.007825032230

  Basis Set: AUG-CC-PVTZ
    Blend: AUG-CC-PVTZ
  Basis Set: (AUG-CC-PVTZ AUX)
    Blend: AUG-CC-PVTZ-JKFIT
	 Reference Energy          =    -271.2802380873264951 [Eh]
	 Singles Energy            =      -0.0000000000000000 [Eh]
	 Same-Spin Energy          =      -0.2747113523400894 [Eh]
	 Opposite-Spin Energy      =      -0.9803024978798660 [Eh]
	 Correlation Energy        =      -1.2550138502199555 [Eh]
	 Total Energy              =    -272.5352519375464340 [Eh]

	 ================> DF-SCS-MP2 Energies <==================
	-----------------------------------------------------------
	 SCS Same-Spin Scale       =       0.3333333333333333 [-]
	 SCS Opposite-Spin Scale   =       1.2000000000000000 [-]
	 SCS Same-Spin Energy      =      -0.0915704507800298 [Eh]
	 SCS Opposite-Spin Energy  =      -1.1763629974558392 [Eh]
	 SCS Correlation Energy    =      -1.2679334482358691 [Eh]
	 SCS Total Energy          =    -272.5481715355623464 [Eh]
	-----------------------------------------------------------

  Dipole Moment: [D]
     X:     0.0051      Y:     0.8563      Z:     0.9760     Total:     1.2984

*** Psi4 exiting successfully. Buy a developer a beer!
