                               Psi4 1.3.2 release

  ==> Input File <==

--------------------------------------------------------------------------
#psi4
#
memory 32 gb

molecule  {
0 1
  O        0.2606555    -0.3215535    -0.2205676
  C       -0.9909980     0.0554680     0.3132910
  C       -1.3870120     1.4221400    -0.2277930
  C       -1.9757110    -1.0237710    -0.0919600
  C        1.3904680     0.2879610     0.3894930
  C        2.6370710    -0.3757250    -0.1540240
  H       -0.9296780     0.1002790     1.4134780
  H       -2.3801930     1.7061600     0.1340850
  H       -0.6845360     2.2004430     0.0787750
  H       -1.4090380     1.3865860    -1.3205090
  H       -2.9778990    -0.7985510     0.2832910
  H       -1.6583780    -1.9911630     0.3020950
  H       -2.0165080    -1.0921340    -1.1820510
  H        1.3626244     1.3559088     0.1317534
  H        1.3426600     0.1929310     1.4861340
  H        3.5349640     0.0832880     0.2690230
  H        2.6341170    -1.4390120     0.0941050
  H        2.6709700    -0.2748370    -1.2404260
units angstrom
no_reorient  #important for SAPT in psi4, default
symmetry c1  #important for SAPT in psi4, default
}

set PROPERTIES_ORIGIN ["COM"]
properties('MP2/aug-cc-pvtz', properties = ['dipole'])
--------------------------------------------------------------------------

    Molecular point group: c1
  Charge       = 0
  Multiplicity = 1
  Basis Set: AUG-CC-PVTZ
    Blend: AUG-CC-PVTZ
  Basis Set: (AUG-CC-PVTZ AUX)
    Blend: AUG-CC-PVTZ-JKFIT

    Orbital Energies [Eh]
    ---------------------

    Doubly Occupied:

       1A    -20.544156     2A    -11.273746     3A    -11.270995
       4A    -11.211589     5A    -11.209919     6A    -11.207727
       7A     -1.368883     8A     -1.059313     9A     -0.993330
      10A     -0.934170    11A     -0.836884    12A     -0.790053
      13A     -0.675313    14A     -0.648633    15A     -0.619113
      16A     -0.590184    17A     -0.556923    18A     -0.542038
      19A     -0.535088    20A     -0.516946    21A     -0.514285
      22A     -0.491433    23A     -0.476446    24A     -0.455825
      25A     -0.409568

  @DF-RHF Final Energy:  -271.28336164760174

   => Energetics <=

    Nuclear Repulsion Energy =            260.6105717306946303
    One-Electron Energy =                -884.3227498511322437
    Two-Electron Energy =                 352.4288164728358197
    Total Energy =                       -271.2833616476017369
  Basis Set: (AUG-CC-PVTZ AUX)
    Blend: AUG-CC-PVTZ-RI
    Molecular point group: c1

    Geometry (in Angstrom), charge = 0, multiplicity = 1:

       Center              X                  Y                   Z               Mass
    ------------   -----------------  -----------------  -----------------  -----------------
         O            0.263606089119    -0.329394938508    -0.216859942053    15.994914619570
         C           -0.988047410881     0.047626561492     0.316998657947    12.000000000000
         C           -1.384061410881     1.414298561492    -0.224085342053    12.000000000000
         C           -1.972760410881    -1.031612438508    -0.088252342053    12.000000000000
         C            1.393418589119     0.280119561492     0.393200657947    12.000000000000
         C            2.640021589119    -0.383566438508    -0.150316342053    12.000000000000
         H           -0.926727410881     0.092437561492     1.417185657947     1.007825032230
         H           -2.377242410881     1.698318561492     0.137792657947     1.007825032230
         H           -0.681585410881     2.192601561492     0.082482657947     1.007825032230
         H           -1.406087410881     1.378744561492    -1.316801342053     1.007825032230
         H           -2.974948410881    -0.806392438508     0.286998657947     1.007825032230
         H           -1.655427410881    -1.999004438508     0.305802657947     1.007825032230
         H           -2.013557410881    -1.099975438508    -1.178343342053     1.007825032230
         H            1.365574989119     1.348067361492     0.135461057947     1.007825032230
         H            1.345610589119     0.185089561492     1.489841657947     1.007825032230
         H            3.537914589119     0.075446561492     0.272730657947     1.007825032230
         H            2.637067589119    -1.446853438508     0.097812657947     1.007825032230
         H            2.673920589119    -0.282678438508    -1.236718342053     1.007825032230

  Basis Set: AUG-CC-PVTZ
    Blend: AUG-CC-PVTZ
  Basis Set: (AUG-CC-PVTZ AUX)
    Blend: AUG-CC-PVTZ-JKFIT
	 Reference Energy          =    -271.2833616476017369 [Eh]
	 Singles Energy            =      -0.0000000000000000 [Eh]
	 Same-Spin Energy          =      -0.2743242766199940 [Eh]
	 Opposite-Spin Energy      =      -0.9786392740266001 [Eh]
	 Correlation Energy        =      -1.2529635506465941 [Eh]
	 Total Energy              =    -272.5363251982483348 [Eh]

	 ================> DF-SCS-MP2 Energies <==================
	-----------------------------------------------------------
	 SCS Same-Spin Scale       =       0.3333333333333333 [-]
	 SCS Opposite-Spin Scale   =       1.2000000000000000 [-]
	 SCS Same-Spin Energy      =      -0.0914414255399980 [Eh]
	 SCS Opposite-Spin Energy  =      -1.1743671288319202 [Eh]
	 SCS Correlation Energy    =      -1.2658085543719182 [Eh]
	 SCS Total Energy          =    -272.5491702019736522 [Eh]
	-----------------------------------------------------------

  Dipole Moment: [D]
     X:    -0.0355      Y:     0.7402      Z:     0.8964     Total:     1.1630

*** Psi4 exiting successfully. Buy a developer a beer!
