                               Psi4 1.4a3.dev225

  ==> Input File <==

--------------------------------------------------------------------------
#psi4
#
memory 32 gb

molecule  {
0 1
  O        0.2968820    -0.3700300    -0.2078900
  C       -0.9799680    -0.0131860     0.3305480
  C       -1.4659740     1.3243170    -0.2137670
  C       -1.9120560    -1.1518890    -0.0406980
  C        1.3454959     0.3578021     0.2980561
  C        2.6596730    -0.2598580    -0.1849460
  H       -0.8961600     0.0483700     1.4287490
  H       -2.4684560     1.5499650     0.1629670
  H       -0.8070120     2.1464590     0.0762310
  H       -1.5037200     1.2784970    -1.3059680
  H       -2.9152180    -0.9801130     0.3603010
  H       -1.5287480    -2.0957260     0.3533410
  H       -1.9776690    -1.2323490    -1.1292410
  H        1.3324290     1.4330630    -0.0082660
  H        1.3481650     0.3771000     1.4173590
  H        3.5357030     0.2822800     0.1830210
  H        2.7163030    -1.2957450     0.1558670
  H        2.6771830    -0.2537050    -1.2769390
units angstrom
no_reorient  #important for SAPT in psi4, default
symmetry c1  #important for SAPT in psi4, default
}

set PROPERTIES_ORIGIN ["COM"]
properties('MP2/aug-cc-pvtz', properties = ['dipole'])
--------------------------------------------------------------------------

    Molecular point group: c1
  Charge       = 0
  Multiplicity = 1
  Basis Set: AUG-CC-PVTZ
    Blend: AUG-CC-PVTZ
  Basis Set: (AUG-CC-PVTZ AUX)
    Blend: AUG-CC-PVTZ-JKFIT

    Orbital Energies [Eh]
    ---------------------

    Doubly Occupied:

       1A    -20.551124     2A    -11.278988     3A    -11.270861
       4A    -11.214218     5A    -11.210383     6A    -11.209066
       7A     -1.382209     8A     -1.061862     9A     -0.988842
      10A     -0.936597    11A     -0.833515    12A     -0.793504
      13A     -0.681083    14A     -0.648460    15A     -0.619174
      16A     -0.594605    17A     -0.557779    18A     -0.544367
      19A     -0.535950    20A     -0.518562    21A     -0.516401
      22A     -0.486193    23A     -0.470763    24A     -0.458797
      25A     -0.411029

  @DF-RHF Final Energy:  -271.28194383778680

   => Energetics <=

    Nuclear Repulsion Energy =            260.7421028613816816
    One-Electron Energy =                -884.4994290311831264
    Two-Electron Energy =                 352.4753823320146466
    Total Energy =                       -271.2819438377867982
  Basis Set: (AUG-CC-PVTZ AUX)
    Blend: AUG-CC-PVTZ-RI
    Molecular point group: c1

    Geometry (in Angstrom), charge = 0, multiplicity = 1:

       Center              X                  Y                   Z               Mass
    ------------   -----------------  -----------------  -----------------  -----------------
         O            0.296613626695    -0.352270373936    -0.200690706201    15.994914619570
         C           -0.980236373305     0.004573626064     0.337747293799    12.000000000000
         C           -1.466242373305     1.342076626064    -0.206567706201    12.000000000000
         C           -1.912324373305    -1.134129373936    -0.033498706201    12.000000000000
         C            1.345227526695     0.375561726064     0.305255393799    12.000000000000
         C            2.659404626695    -0.242098373936    -0.177746706201    12.000000000000
         H           -0.896428373305     0.066129626064     1.435948293799     1.007825032230
         H           -2.468724373305     1.567724626064     0.170166293799     1.007825032230
         H           -0.807280373305     2.164218626064     0.083430293799     1.007825032230
         H           -1.503988373305     1.296256626064    -1.298768706201     1.007825032230
         H           -2.915486373305    -0.962353373936     0.367500293799     1.007825032230
         H           -1.529016373305    -2.077966373936     0.360540293799     1.007825032230
         H           -1.977937373305    -1.214589373936    -1.122041706201     1.007825032230
         H            1.332160626695     1.450822626064    -0.001066706201     1.007825032230
         H            1.347896626695     0.394859626064     1.424558293799     1.007825032230
         H            3.535434626695     0.300039626064     0.190220293799     1.007825032230
         H            2.716034626695    -1.277985373936     0.163066293799     1.007825032230
         H            2.676914626695    -0.235945373936    -1.269739706201     1.007825032230

  Basis Set: AUG-CC-PVTZ
    Blend: AUG-CC-PVTZ
  Basis Set: (AUG-CC-PVTZ AUX)
    Blend: AUG-CC-PVTZ-JKFIT
	 Reference Energy          =    -271.2819438377867982 [Eh]
	 Singles Energy            =      -0.0000000000000000 [Eh]
	 Same-Spin Energy          =      -0.2743778890746106 [Eh]
	 Opposite-Spin Energy      =      -0.9785750999298408 [Eh]
	 Correlation Energy        =      -1.2529529890044513 [Eh]
	 Total Energy              =    -272.5348968267912255 [Eh]

	 ================> DF-SCS-MP2 Energies <==================
	-----------------------------------------------------------
	 SCS Same-Spin Scale       =       0.3333333333333333 [-]
	 SCS Opposite-Spin Scale   =       1.2000000000000000 [-]
	 SCS Same-Spin Energy      =      -0.0914592963582035 [Eh]
	 SCS Opposite-Spin Energy  =      -1.1742901199158089 [Eh]
	 SCS Correlation Energy    =      -1.2657494162740124 [Eh]
	 SCS Total Energy          =    -272.5476932540607891 [Eh]
	-----------------------------------------------------------

  Dipole Moment: [D]
     X:    -0.3644      Y:     0.8019      Z:     0.7761     Total:     1.1739

*** Psi4 exiting successfully. Buy a developer a beer!
