                               Psi4 1.3.2 release

  ==> Input File <==

--------------------------------------------------------------------------
#psi4
#
memory 32 gb

molecule  {
0 1
  O        0.2748750    -0.3650560    -0.2014210
  C       -0.9792655     0.0712744     0.3286269
  C       -1.3870120     1.4221400    -0.2277930
  C       -1.9757110    -1.0237710    -0.0919600
  C        1.3749728     0.3009861     0.4038319
  C        2.6370710    -0.3757250    -0.1540240
  H       -0.9296780     0.1002790     1.4134780
  H       -2.3801930     1.7061600     0.1340850
  H       -0.6845360     2.2004430     0.0787750
  H       -1.4090380     1.3865860    -1.3205090
  H       -2.9778990    -0.7985510     0.2832910
  H       -1.6583780    -1.9911630     0.3020950
  H       -2.0165080    -1.0921340    -1.1820510
  H        1.3948590     1.3609300     0.1519310
  H        1.3426600     0.1929310     1.4861340
  H        3.5349640     0.0832880     0.2690230
  H        2.6341170    -1.4390120     0.0941050
  H        2.6709700    -0.2748370    -1.2404260
units angstrom
no_reorient  #important for SAPT in psi4, default
symmetry c1  #important for SAPT in psi4, default
}

set PROPERTIES_ORIGIN ["COM"]
properties('MP2/aug-cc-pvtz', properties = ['dipole'])
--------------------------------------------------------------------------

    Molecular point group: c1
  Charge       = 0
  Multiplicity = 1
  Basis Set: AUG-CC-PVTZ
    Blend: AUG-CC-PVTZ
  Basis Set: (AUG-CC-PVTZ AUX)
    Blend: AUG-CC-PVTZ-JKFIT

    Orbital Energies [Eh]
    ---------------------

    Doubly Occupied:

       1A    -20.548016     2A    -11.274420     3A    -11.268845
       4A    -11.212398     5A    -11.210296     6A    -11.208057
       7A     -1.365802     8A     -1.055880     9A     -0.989523
      10A     -0.932727    11A     -0.835835    12A     -0.794648
      13A     -0.676302    14A     -0.647334    15A     -0.615873
      16A     -0.589707    17A     -0.554857    18A     -0.543341
      19A     -0.534108    20A     -0.517643    21A     -0.512933
      22A     -0.488056    23A     -0.471484    24A     -0.458840
      25A     -0.416410

  @DF-RHF Final Energy:  -271.28205129666571

   => Energetics <=

    Nuclear Repulsion Energy =            260.0603766326278787
    One-Electron Energy =                -883.2381853875489242
    Two-Electron Energy =                 351.8957574582552752
    Total Energy =                       -271.2820512966657134
  Basis Set: (AUG-CC-PVTZ AUX)
    Blend: AUG-CC-PVTZ-RI
    Molecular point group: c1

    Geometry (in Angstrom), charge = 0, multiplicity = 1:

       Center              X                  Y                   Z               Mass
    ------------   -----------------  -----------------  -----------------  -----------------
         O            0.275387434795    -0.368983431012    -0.205463262660    15.994914619570
         C           -0.978753065205     0.067346968988     0.324584637340    12.000000000000
         C           -1.386499565205     1.418212568988    -0.231835262660    12.000000000000
         C           -1.975198565205    -1.027698431012    -0.096002262660    12.000000000000
         C            1.375485234795     0.297058668988     0.399789637340    12.000000000000
         C            2.637583434795    -0.379652431012    -0.158066262660    12.000000000000
         H           -0.929165565205     0.096351568988     1.409435737340     1.007825032230
         H           -2.379680565205     1.702232568988     0.130042737340     1.007825032230
         H           -0.684023565205     2.196515568988     0.074732737340     1.007825032230
         H           -1.408525565205     1.382658568988    -1.324551262660     1.007825032230
         H           -2.977386565205    -0.802478431012     0.279248737340     1.007825032230
         H           -1.657865565205    -1.995090431012     0.298052737340     1.007825032230
         H           -2.015995565205    -1.096061431012    -1.186093262660     1.007825032230
         H            1.395371434795     1.357002568988     0.147888737340     1.007825032230
         H            1.343172434795     0.189003568988     1.482091737340     1.007825032230
         H            3.535476434795     0.079360568988     0.264980737340     1.007825032230
         H            2.634629434795    -1.442939431012     0.090062737340     1.007825032230
         H            2.671482434795    -0.278764431012    -1.244468262660     1.007825032230

  Basis Set: AUG-CC-PVTZ
    Blend: AUG-CC-PVTZ
  Basis Set: (AUG-CC-PVTZ AUX)
    Blend: AUG-CC-PVTZ-JKFIT
	 Reference Energy          =    -271.2820512966657134 [Eh]
	 Singles Energy            =      -0.0000000000000000 [Eh]
	 Same-Spin Energy          =      -0.2743443603084855 [Eh]
	 Opposite-Spin Energy      =      -0.9793289257998383 [Eh]
	 Correlation Energy        =      -1.2536732861083237 [Eh]
	 Total Energy              =    -272.5357245827740371 [Eh]

	 ================> DF-SCS-MP2 Energies <==================
	-----------------------------------------------------------
	 SCS Same-Spin Scale       =       0.3333333333333333 [-]
	 SCS Opposite-Spin Scale   =       1.2000000000000000 [-]
	 SCS Same-Spin Energy      =      -0.0914481201028285 [Eh]
	 SCS Opposite-Spin Energy  =      -1.1751947109598060 [Eh]
	 SCS Correlation Energy    =      -1.2666428310626345 [Eh]
	 SCS Total Energy          =    -272.5486941277283677 [Eh]
	-----------------------------------------------------------

  Dipole Moment: [D]
     X:    -0.1349      Y:     0.8953      Z:     0.8997     Total:     1.2764

*** Psi4 exiting successfully. Buy a developer a beer!
