                               Psi4 1.3.2 release

  ==> Input File <==

--------------------------------------------------------------------------
#psi4
#
memory 32 gb

molecule  {
0 1
  O        0.2748750    -0.3650560    -0.2014210
  C       -0.9909980     0.0554680     0.3132910
  C       -1.3870120     1.4221400    -0.2277930
  C       -1.9757110    -1.0237710    -0.0919600
  C        1.3904680     0.2879610     0.3894930
  C        2.6370710    -0.3757250    -0.1540240
  H       -0.9296780     0.1002790     1.4134780
  H       -2.3801930     1.7061600     0.1340850
  H       -0.6845360     2.2004430     0.0787750
  H       -1.4090380     1.3865860    -1.3205090
  H       -2.9778990    -0.7985510     0.2832910
  H       -1.6583780    -1.9911630     0.3020950
  H       -2.0165080    -1.0921340    -1.1820510
  H        1.3948590     1.3609300     0.1519310
  H        1.3426600     0.1929310     1.4861340
  H        3.5349640     0.0832880     0.2690230
  H        2.6341170    -1.4390120     0.0941050
  H        2.6709700    -0.2748370    -1.2404260
units angstrom
no_reorient  #important for SAPT in psi4, default
symmetry c1  #important for SAPT in psi4, default
}

set PROPERTIES_ORIGIN ["COM"]
properties('MP2/aug-cc-pvtz', properties = ['dipole'])
--------------------------------------------------------------------------

    Molecular point group: c1
  Charge       = 0
  Multiplicity = 1
  Basis Set: AUG-CC-PVTZ
    Blend: AUG-CC-PVTZ
  Basis Set: (AUG-CC-PVTZ AUX)
    Blend: AUG-CC-PVTZ-JKFIT

    Orbital Energies [Eh]
    ---------------------

    Doubly Occupied:

       1A    -20.546438     2A    -11.275447     3A    -11.269997
       4A    -11.212311     5A    -11.210005     6A    -11.208067
       7A     -1.364340     8A     -1.059271     9A     -0.993346
      10A     -0.934786    11A     -0.834190    12A     -0.790752
      13A     -0.674974    14A     -0.645949    15A     -0.618144
      16A     -0.590617    17A     -0.557097    18A     -0.542641
      19A     -0.534994    20A     -0.516974    21A     -0.513166
      22A     -0.487598    23A     -0.475738    24A     -0.457906
      25A     -0.413340

  @DF-RHF Final Energy:  -271.28346541656663

   => Energetics <=

    Nuclear Repulsion Energy =            260.1748999959575599
    One-Electron Energy =                -883.4605567023785397
    Two-Electron Energy =                 352.0021912898542951
    Total Energy =                       -271.2834654165666279
  Basis Set: (AUG-CC-PVTZ AUX)
    Blend: AUG-CC-PVTZ-RI
    Molecular point group: c1

    Geometry (in Angstrom), charge = 0, multiplicity = 1:

       Center              X                  Y                   Z               Mass
    ------------   -----------------  -----------------  -----------------  -----------------
         O            0.274874856666    -0.365055826810    -0.201420778946    15.994914619570
         C           -0.990998143334     0.055468173190     0.313291221054    12.000000000000
         C           -1.387012143334     1.422140173190    -0.227792778946    12.000000000000
         C           -1.975711143334    -1.023770826810    -0.091959778946    12.000000000000
         C            1.390467856666     0.287961173190     0.389493221054    12.000000000000
         C            2.637070856666    -0.375724826810    -0.154023778946    12.000000000000
         H           -0.929678143334     0.100279173190     1.413478221054     1.007825032230
         H           -2.380193143334     1.706160173190     0.134085221054     1.007825032230
         H           -0.684536143334     2.200443173190     0.078775221054     1.007825032230
         H           -1.409038143334     1.386586173190    -1.320508778946     1.007825032230
         H           -2.977899143334    -0.798550826810     0.283291221054     1.007825032230
         H           -1.658378143334    -1.991162826810     0.302095221054     1.007825032230
         H           -2.016508143334    -1.092133826810    -1.182050778946     1.007825032230
         H            1.394858856666     1.360930173190     0.151931221054     1.007825032230
         H            1.342659856666     0.192931173190     1.486134221054     1.007825032230
         H            3.534963856666     0.083288173190     0.269023221054     1.007825032230
         H            2.634116856666    -1.439011826810     0.094105221054     1.007825032230
         H            2.670969856666    -0.274836826810    -1.240425778946     1.007825032230

  Basis Set: AUG-CC-PVTZ
    Blend: AUG-CC-PVTZ
  Basis Set: (AUG-CC-PVTZ AUX)
    Blend: AUG-CC-PVTZ-JKFIT
	 Reference Energy          =    -271.2834654165666279 [Eh]
	 Singles Energy            =      -0.0000000000000000 [Eh]
	 Same-Spin Energy          =      -0.2744417560642393 [Eh]
	 Opposite-Spin Energy      =      -0.9791572507675579 [Eh]
	 Correlation Energy        =      -1.2535990068317973 [Eh]
	 Total Energy              =    -272.5370644233984194 [Eh]

	 ================> DF-SCS-MP2 Energies <==================
	-----------------------------------------------------------
	 SCS Same-Spin Scale       =       0.3333333333333333 [-]
	 SCS Opposite-Spin Scale   =       1.2000000000000000 [-]
	 SCS Same-Spin Energy      =      -0.0914805853547464 [Eh]
	 SCS Opposite-Spin Energy  =      -1.1749887009210693 [Eh]
	 SCS Correlation Energy    =      -1.2664692862758158 [Eh]
	 SCS Total Energy          =    -272.5499347028424495 [Eh]
	-----------------------------------------------------------

  Dipole Moment: [D]
     X:    -0.1307      Y:     0.8492      Z:     0.8599     Total:     1.2156

*** Psi4 exiting successfully. Buy a developer a beer!
