                               Psi4 1.4a3.dev225

  ==> Input File <==

--------------------------------------------------------------------------
#psi4
#
memory 32 gb

molecule  {
0 1
  O        0.2968820    -0.3700300    -0.2078900
  C       -0.9799680    -0.0131860     0.3305480
  C       -1.4659740     1.3243170    -0.2137670
  C       -1.9120560    -1.1518890    -0.0406980
  C        1.4218661     0.4108099     0.3349039
  C        2.6596730    -0.2598580    -0.1849460
  H       -0.8961600     0.0483700     1.4287490
  H       -2.4684560     1.5499650     0.1629670
  H       -0.8070120     2.1464590     0.0762310
  H       -1.5037200     1.2784970    -1.3059680
  H       -2.9152180    -0.9801130     0.3603010
  H       -1.5287480    -2.0957260     0.3533410
  H       -1.9776690    -1.2323490    -1.1292410
  H        1.3324290     1.4330630    -0.0082660
  H        1.3481650     0.3771000     1.4173590
  H        3.5357030     0.2822800     0.1830210
  H        2.7163030    -1.2957450     0.1558670
  H        2.6771830    -0.2537050    -1.2769390
units angstrom
no_reorient  #important for SAPT in psi4, default
symmetry c1  #important for SAPT in psi4, default
}

set PROPERTIES_ORIGIN ["COM"]
properties('MP2/aug-cc-pvtz', properties = ['dipole'])
--------------------------------------------------------------------------

    Molecular point group: c1
  Charge       = 0
  Multiplicity = 1
  Basis Set: AUG-CC-PVTZ
    Blend: AUG-CC-PVTZ
  Basis Set: (AUG-CC-PVTZ AUX)
    Blend: AUG-CC-PVTZ-JKFIT

    Orbital Energies [Eh]
    ---------------------

    Doubly Occupied:

       1A    -20.541869     2A    -11.272843     3A    -11.270455
       4A    -11.211712     5A    -11.211238     6A    -11.206533
       7A     -1.346858     8A     -1.056243     9A     -0.996911
      10A     -0.932829    11A     -0.836236    12A     -0.786689
      13A     -0.669541    14A     -0.643061    15A     -0.615012
      16A     -0.589889    17A     -0.556194    18A     -0.540013
      19A     -0.534012    20A     -0.518826    21A     -0.509147
      22A     -0.488340    23A     -0.480455    24A     -0.452658
      25A     -0.413765

  @DF-RHF Final Energy:  -271.28017456481058

   => Energetics <=

    Nuclear Repulsion Energy =            259.3047745071786494
    One-Electron Energy =                -881.8072460555704311
    Two-Electron Energy =                 351.2222969835812023
    Total Energy =                       -271.2801745648105793
  Basis Set: (AUG-CC-PVTZ AUX)
    Blend: AUG-CC-PVTZ-RI
    Molecular point group: c1

    Geometry (in Angstrom), charge = 0, multiplicity = 1:

       Center              X                  Y                   Z               Mass
    ------------   -----------------  -----------------  -----------------  -----------------
         O            0.286210008484    -0.359491422374    -0.205710340078    15.994914619570
         C           -0.990639991516    -0.002647422374     0.332727659922    12.000000000000
         C           -1.476645991516     1.334855577626    -0.211587340078    12.000000000000
         C           -1.922727991516    -1.141350422374    -0.038518340078    12.000000000000
         C            1.411194108484     0.421348477626     0.337083559922    12.000000000000
         C            2.649001008484    -0.249319422374    -0.182766340078    12.000000000000
         H           -0.906831991516     0.058908577626     1.430928659922     1.007825032230
         H           -2.479127991516     1.560503577626     0.165146659922     1.007825032230
         H           -0.817683991516     2.156997577626     0.078410659922     1.007825032230
         H           -1.514391991516     1.289035577626    -1.303788340078     1.007825032230
         H           -2.925889991516    -0.969574422374     0.362480659922     1.007825032230
         H           -1.539419991516    -2.085187422374     0.355520659922     1.007825032230
         H           -1.988340991516    -1.221810422374    -1.127061340078     1.007825032230
         H            1.321757008484     1.443601577626    -0.006086340078     1.007825032230
         H            1.337493008484     0.387638577626     1.419538659922     1.007825032230
         H            3.525031008484     0.292818577626     0.185200659922     1.007825032230
         H            2.705631008484    -1.285206422374     0.158046659922     1.007825032230
         H            2.666511008484    -0.243166422374    -1.274759340078     1.007825032230

  Basis Set: AUG-CC-PVTZ
    Blend: AUG-CC-PVTZ
  Basis Set: (AUG-CC-PVTZ AUX)
    Blend: AUG-CC-PVTZ-JKFIT
	 Reference Energy          =    -271.2801745648105793 [Eh]
	 Singles Energy            =      -0.0000000000000000 [Eh]
	 Same-Spin Energy          =      -0.2746511132258806 [Eh]
	 Opposite-Spin Energy      =      -0.9802102995878619 [Eh]
	 Correlation Energy        =      -1.2548614128137425 [Eh]
	 Total Energy              =    -272.5350359776243181 [Eh]

	 ================> DF-SCS-MP2 Energies <==================
	-----------------------------------------------------------
	 SCS Same-Spin Scale       =       0.3333333333333333 [-]
	 SCS Opposite-Spin Scale   =       1.2000000000000000 [-]
	 SCS Same-Spin Energy      =      -0.0915503710752935 [Eh]
	 SCS Opposite-Spin Energy  =      -1.1762523595054342 [Eh]
	 SCS Correlation Energy    =      -1.2678027305807278 [Eh]
	 SCS Total Energy          =    -272.5479772953913198 [Eh]
	-----------------------------------------------------------

  Dipole Moment: [D]
     X:     0.0211      Y:     0.9456      Z:     0.8790     Total:     1.2912

*** Psi4 exiting successfully. Buy a developer a beer!
