                               Psi4 1.3.2 release

  ==> Input File <==

--------------------------------------------------------------------------
#psi4
#
memory 32 gb

molecule  {
0 1
  O        0.2679709    -0.4280120    -0.1615224
  C       -0.9909980     0.0554680     0.3132910
  C       -1.4541188     1.4172840    -0.1850741
  C       -1.9757110    -1.0237710    -0.0919600
  C        1.3904680     0.2879610     0.3894930
  C        2.6370710    -0.3757250    -0.1540240
  H       -0.9296780     0.1002790     1.4134780
  H       -2.3801930     1.7061600     0.1340850
  H       -0.6845360     2.2004430     0.0787750
  H       -1.4090380     1.3865860    -1.3205090
  H       -2.9778990    -0.7985510     0.2832910
  H       -1.6583780    -1.9911630     0.3020950
  H       -2.0165080    -1.0921340    -1.1820510
  H        1.3948590     1.3609300     0.1519310
  H        1.3426600     0.1929310     1.4861340
  H        3.5349640     0.0832880     0.2690230
  H        2.6341170    -1.4390120     0.0941050
  H        2.6709700    -0.2748370    -1.2404260
units angstrom
no_reorient  #important for SAPT in psi4, default
symmetry c1  #important for SAPT in psi4, default
}

set PROPERTIES_ORIGIN ["COM"]
properties('MP2/aug-cc-pvtz', properties = ['dipole'])
--------------------------------------------------------------------------

    Molecular point group: c1
  Charge       = 0
  Multiplicity = 1
  Basis Set: AUG-CC-PVTZ
    Blend: AUG-CC-PVTZ
  Basis Set: (AUG-CC-PVTZ AUX)
    Blend: AUG-CC-PVTZ-JKFIT

    Orbital Energies [Eh]
    ---------------------

    Doubly Occupied:

       1A    -20.550828     2A    -11.274898     3A    -11.272399
       4A    -11.215463     5A    -11.211044     6A    -11.205573
       7A     -1.360735     8A     -1.058902     9A     -0.996440
      10A     -0.933706    11A     -0.833780    12A     -0.790828
      13A     -0.675692    14A     -0.644343    15A     -0.613318
      16A     -0.598939    17A     -0.564308    18A     -0.540248
      19A     -0.529963    20A     -0.520182    21A     -0.508898
      22A     -0.482727    23A     -0.478662    24A     -0.452741
      25A     -0.416559

  @DF-RHF Final Energy:  -271.27267764271528

   => Energetics <=

    Nuclear Repulsion Energy =            259.5191976564562424
    One-Electron Energy =                -882.1213987111368624
    Two-Electron Energy =                 351.3295234119652832
    Total Energy =                       -271.2726776427152799
  Basis Set: (AUG-CC-PVTZ AUX)
    Blend: AUG-CC-PVTZ-RI
    Molecular point group: c1

    Geometry (in Angstrom), charge = 0, multiplicity = 1:

       Center              X                  Y                   Z               Mass
    ------------   -----------------  -----------------  -----------------  -----------------
         O            0.278366084268    -0.415918942546    -0.174586283627    15.994914619570
         C           -0.980602815732     0.067561057454     0.300227116373    12.000000000000
         C           -1.443723615732     1.429377057454    -0.198137983627    12.000000000000
         C           -1.965315815732    -1.011677942546    -0.105023883627    12.000000000000
         C            1.400863184268     0.300054057454     0.376429116373    12.000000000000
         C            2.647466184268    -0.363631942546    -0.167087883627    12.000000000000
         H           -0.919282815732     0.112372057454     1.400414116373     1.007825032230
         H           -2.369797815732     1.718253057454     0.121021116373     1.007825032230
         H           -0.674140815732     2.212536057454     0.065711116373     1.007825032230
         H           -1.398642815732     1.398679057454    -1.333572883627     1.007825032230
         H           -2.967503815732    -0.786457942546     0.270227116373     1.007825032230
         H           -1.647982815732    -1.979069942546     0.289031116373     1.007825032230
         H           -2.006112815732    -1.080040942546    -1.195114883627     1.007825032230
         H            1.405254184268     1.373023057454     0.138867116373     1.007825032230
         H            1.353055184268     0.205024057454     1.473070116373     1.007825032230
         H            3.545359184268     0.095381057454     0.255959116373     1.007825032230
         H            2.644512184268    -1.426918942546     0.081041116373     1.007825032230
         H            2.681365184268    -0.262743942546    -1.253489883627     1.007825032230

  Basis Set: AUG-CC-PVTZ
    Blend: AUG-CC-PVTZ
  Basis Set: (AUG-CC-PVTZ AUX)
    Blend: AUG-CC-PVTZ-JKFIT
	 Reference Energy          =    -271.2726776427152799 [Eh]
	 Singles Energy            =      -0.0000000000000000 [Eh]
	 Same-Spin Energy          =      -0.2748508080513947 [Eh]
	 Opposite-Spin Energy      =      -0.9803703818641484 [Eh]
	 Correlation Energy        =      -1.2552211899155430 [Eh]
	 Total Energy              =    -272.5278988326307967 [Eh]

	 ================> DF-SCS-MP2 Energies <==================
	-----------------------------------------------------------
	 SCS Same-Spin Scale       =       0.3333333333333333 [-]
	 SCS Opposite-Spin Scale   =       1.2000000000000000 [-]
	 SCS Same-Spin Energy      =      -0.0916169360171316 [Eh]
	 SCS Opposite-Spin Energy  =      -1.1764444582369780 [Eh]
	 SCS Correlation Energy    =      -1.2680613942541095 [Eh]
	 SCS Total Energy          =    -272.5407390369693985 [Eh]
	-----------------------------------------------------------

  Dipole Moment: [D]
     X:    -0.0515      Y:     0.9949      Z:     0.8047     Total:     1.2806

*** Psi4 exiting successfully. Buy a developer a beer!
