                               Psi4 1.3.2 release

  ==> Input File <==

--------------------------------------------------------------------------
#psi4
#
memory 32 gb

molecule  {
0 1
  O        0.2786430    -0.3758094    -0.1965209
  C       -0.9909980     0.0554680     0.3132910
  C       -1.3870120     1.4221400    -0.2277930
  C       -1.9757110    -1.0237710    -0.0919600
  C        1.3904680     0.2879610     0.3894930
  C        2.6370710    -0.3757250    -0.1540240
  H       -0.9296780     0.1002790     1.4134780
  H       -2.3801930     1.7061600     0.1340850
  H       -0.6845360     2.2004430     0.0787750
  H       -1.4090380     1.3865860    -1.3205090
  H       -2.9778990    -0.7985510     0.2832910
  H       -1.6583780    -1.9911630     0.3020950
  H       -2.0165080    -1.0921340    -1.1820510
  H        1.4029184     1.3619812     0.1570216
  H        1.3426600     0.1929310     1.4861340
  H        3.5349640     0.0832880     0.2690230
  H        2.6341170    -1.4390120     0.0941050
  H        2.6709700    -0.2748370    -1.2404260
units angstrom
no_reorient  #important for SAPT in psi4, default
symmetry c1  #important for SAPT in psi4, default
}

set PROPERTIES_ORIGIN ["COM"]
properties('MP2/aug-cc-pvtz', properties = ['dipole'])
--------------------------------------------------------------------------

    Molecular point group: c1
  Charge       = 0
  Multiplicity = 1
  Basis Set: AUG-CC-PVTZ
    Blend: AUG-CC-PVTZ
  Basis Set: (AUG-CC-PVTZ AUX)
    Blend: AUG-CC-PVTZ-JKFIT

    Orbital Energies [Eh]
    ---------------------

    Doubly Occupied:

       1A    -20.547001     2A    -11.275905     3A    -11.269734
       4A    -11.212925     5A    -11.209594     6A    -11.208167
       7A     -1.363176     8A     -1.059280     9A     -0.993334
      10A     -0.934945    11A     -0.833524    12A     -0.790929
      13A     -0.674829    14A     -0.645314    15A     -0.617908
      16A     -0.590699    17A     -0.557143    18A     -0.542821
      19A     -0.534961    20A     -0.516907    21A     -0.512948
      22A     -0.486572    23A     -0.475508    24A     -0.458498
      25A     -0.414146

  @DF-RHF Final Energy:  -271.28312435505757

   => Energetics <=

    Nuclear Repulsion Energy =            260.0624268692881174
    One-Electron Energy =                -883.2375704662226781
    Two-Electron Energy =                 351.8920192418769375
    Total Energy =                       -271.2831243550575664
  Basis Set: (AUG-CC-PVTZ AUX)
    Blend: AUG-CC-PVTZ-RI
    Molecular point group: c1

    Geometry (in Angstrom), charge = 0, multiplicity = 1:

       Center              X                  Y                   Z               Mass
    ------------   -----------------  -----------------  -----------------  -----------------
         O            0.277866466345    -0.373868682041    -0.197468666670    15.994914619570
         C           -0.991774533655     0.057408717959     0.312343233330    12.000000000000
         C           -1.387788533655     1.424080717959    -0.228740766670    12.000000000000
         C           -1.976487533655    -1.021830282041    -0.092907766670    12.000000000000
         C            1.389691466345     0.289901717959     0.388545233330    12.000000000000
         C            2.636294466345    -0.373784282041    -0.154971766670    12.000000000000
         H           -0.930454533655     0.102219717959     1.412530233330     1.007825032230
         H           -2.380969533655     1.708100717959     0.133137233330     1.007825032230
         H           -0.685312533655     2.202383717959     0.077827233330     1.007825032230
         H           -1.409814533655     1.388526717959    -1.321456766670     1.007825032230
         H           -2.978675533655    -0.796610282041     0.282343233330     1.007825032230
         H           -1.659154533655    -1.989222282041     0.301147233330     1.007825032230
         H           -2.017284533655    -1.090193282041    -1.182998766670     1.007825032230
         H            1.402141866345     1.363921917959     0.156073833330     1.007825032230
         H            1.341883466345     0.194871717959     1.485186233330     1.007825032230
         H            3.534187466345     0.085228717959     0.268075233330     1.007825032230
         H            2.633340466345    -1.437071282041     0.093157233330     1.007825032230
         H            2.670193466345    -0.272896282041    -1.241373766670     1.007825032230

  Basis Set: AUG-CC-PVTZ
    Blend: AUG-CC-PVTZ
  Basis Set: (AUG-CC-PVTZ AUX)
    Blend: AUG-CC-PVTZ-JKFIT
	 Reference Energy          =    -271.2831243550575664 [Eh]
	 Singles Energy            =      -0.0000000000000000 [Eh]
	 Same-Spin Energy          =      -0.2744862091414746 [Eh]
	 Opposite-Spin Energy      =      -0.9793198817759450 [Eh]
	 Correlation Energy        =      -1.2538060909174196 [Eh]
	 Total Energy              =    -272.5369304459749742 [Eh]

	 ================> DF-SCS-MP2 Energies <==================
	-----------------------------------------------------------
	 SCS Same-Spin Scale       =       0.3333333333333333 [-]
	 SCS Opposite-Spin Scale   =       1.2000000000000000 [-]
	 SCS Same-Spin Energy      =      -0.0914954030471582 [Eh]
	 SCS Opposite-Spin Energy  =      -1.1751838581311340 [Eh]
	 SCS Correlation Energy    =      -1.2666792611782922 [Eh]
	 SCS Total Energy          =    -272.5498036162358630 [Eh]
	-----------------------------------------------------------

  Dipole Moment: [D]
     X:    -0.1556      Y:     0.8759      Z:     0.8507     Total:     1.2309

*** Psi4 exiting successfully. Buy a developer a beer!
