                               Psi4 1.3.2 release

  ==> Input File <==

--------------------------------------------------------------------------
#psi4
#
memory 32 gb

molecule  {
0 1
  O        0.2596814    -0.3500391    -0.1888112
  C       -0.9909980     0.0554680     0.3132910
  C       -1.3870120     1.4221400    -0.2277930
  C       -1.9757110    -1.0237710    -0.0919600
  C        1.3904680     0.2879610     0.3894930
  C        2.6518449    -0.3593356    -0.1395102
  H       -0.9296780     0.1002790     1.4134780
  H       -2.3801930     1.7061600     0.1340850
  H       -0.6845360     2.2004430     0.0787750
  H       -1.4090380     1.3865860    -1.3205090
  H       -2.9778990    -0.7985510     0.2832910
  H       -1.6583780    -1.9911630     0.3020950
  H       -2.0165080    -1.0921340    -1.1820510
  H        1.3948590     1.3609300     0.1519310
  H        1.3426600     0.1929310     1.4861340
  H        3.5349640     0.0832880     0.2690230
  H        2.6341170    -1.4390120     0.0941050
  H        2.6709700    -0.2748370    -1.2404260
units angstrom
no_reorient  #important for SAPT in psi4, default
symmetry c1  #important for SAPT in psi4, default
}

set PROPERTIES_ORIGIN ["COM"]
properties('MP2/aug-cc-pvtz', properties = ['dipole'])
--------------------------------------------------------------------------

    Molecular point group: c1
  Charge       = 0
  Multiplicity = 1
  Basis Set: AUG-CC-PVTZ
    Blend: AUG-CC-PVTZ
  Basis Set: (AUG-CC-PVTZ AUX)
    Blend: AUG-CC-PVTZ-JKFIT

    Orbital Energies [Eh]
    ---------------------

    Doubly Occupied:

       1A    -20.545973     2A    -11.273758     3A    -11.271325
       4A    -11.211667     5A    -11.210825     6A    -11.207471
       7A     -1.370687     8A     -1.059493     9A     -0.994681
      10A     -0.934419    11A     -0.837064    12A     -0.790232
      13A     -0.677289    14A     -0.646815    15A     -0.619409
      16A     -0.591363    17A     -0.561951    18A     -0.541477
      19A     -0.534315    20A     -0.519363    21A     -0.512235
      22A     -0.489659    23A     -0.476290    24A     -0.454357
      25A     -0.411110

  @DF-RHF Final Energy:  -271.28332162167374

   => Energetics <=

    Nuclear Repulsion Energy =            260.4710618077796198
    One-Electron Energy =                -884.0223131551284723
    Two-Electron Energy =                 352.2679297256751170
    Total Energy =                       -271.2833216216737355
  Basis Set: (AUG-CC-PVTZ AUX)
    Blend: AUG-CC-PVTZ-RI
    Molecular point group: c1

    Geometry (in Angstrom), charge = 0, multiplicity = 1:

       Center              X                  Y                   Z               Mass
    ------------   -----------------  -----------------  -----------------  -----------------
         O            0.260427475522    -0.354998317322    -0.193077789373    15.994914619570
         C           -0.990251924478     0.050508782678     0.309024410627    12.000000000000
         C           -1.386265924478     1.417180782678    -0.232059589373    12.000000000000
         C           -1.974964924478    -1.028730217322    -0.096226589373    12.000000000000
         C            1.391214075522     0.283001782678     0.385226410627    12.000000000000
         C            2.652590975522    -0.364294817322    -0.143776789373    12.000000000000
         H           -0.928931924478     0.095319782678     1.409211410627     1.007825032230
         H           -2.379446924478     1.701200782678     0.129818410627     1.007825032230
         H           -0.683789924478     2.195483782678     0.074508410627     1.007825032230
         H           -1.408291924478     1.381626782678    -1.324775589373     1.007825032230
         H           -2.977152924478    -0.803510217322     0.279024410627     1.007825032230
         H           -1.657631924478    -1.996122217322     0.297828410627     1.007825032230
         H           -2.015761924478    -1.097093217322    -1.186317589373     1.007825032230
         H            1.395605075522     1.355970782678     0.147664410627     1.007825032230
         H            1.343406075522     0.187971782678     1.481867410627     1.007825032230
         H            3.535710075522     0.078328782678     0.264756410627     1.007825032230
         H            2.634863075522    -1.443971217322     0.089838410627     1.007825032230
         H            2.671716075522    -0.279796217322    -1.244692589373     1.007825032230

  Basis Set: AUG-CC-PVTZ
    Blend: AUG-CC-PVTZ
  Basis Set: (AUG-CC-PVTZ AUX)
    Blend: AUG-CC-PVTZ-JKFIT
	 Reference Energy          =    -271.2833216216737355 [Eh]
	 Singles Energy            =      -0.0000000000000000 [Eh]
	 Same-Spin Energy          =      -0.2742924894357835 [Eh]
	 Opposite-Spin Energy      =      -0.9784837921734761 [Eh]
	 Correlation Energy        =      -1.2527762816092596 [Eh]
	 Total Energy              =    -272.5360979032830073 [Eh]

	 ================> DF-SCS-MP2 Energies <==================
	-----------------------------------------------------------
	 SCS Same-Spin Scale       =       0.3333333333333333 [-]
	 SCS Opposite-Spin Scale   =       1.2000000000000000 [-]
	 SCS Same-Spin Energy      =      -0.0914308298119278 [Eh]
	 SCS Opposite-Spin Energy  =      -1.1741805506081713 [Eh]
	 SCS Correlation Energy    =      -1.2656113804200990 [Eh]
	 SCS Total Energy          =    -272.5489330020938610 [Eh]
	-----------------------------------------------------------

  Dipole Moment: [D]
     X:    -0.0308      Y:     0.8140      Z:     0.8369     Total:     1.1679

*** Psi4 exiting successfully. Buy a developer a beer!
