                               Psi4 1.3.2 release

  ==> Input File <==

--------------------------------------------------------------------------
#psi4
#
memory 32 gb

molecule  {
0 1
  O        0.2748750    -0.3650560    -0.2014210
  C       -0.9909980     0.0554680     0.3132910
  C       -1.3870120     1.4221400    -0.2277930
  C       -1.9757110    -1.0237710    -0.0919600
  C        1.5474475     0.3798496     0.4726429
  C        2.6370710    -0.3757250    -0.1540240
  H       -0.9296780     0.1002790     1.4134780
  H       -2.3801930     1.7061600     0.1340850
  H       -0.6845360     2.2004430     0.0787750
  H       -1.4090380     1.3865860    -1.3205090
  H       -2.9778990    -0.7985510     0.2832910
  H       -1.6583780    -1.9911630     0.3020950
  H       -2.0165080    -1.0921340    -1.1820510
  H        1.3948590     1.3609300     0.1519310
  H        1.3426600     0.1929310     1.4861340
  H        3.5349640     0.0832880     0.2690230
  H        2.6341170    -1.4390120     0.0941050
  H        2.6709700    -0.2748370    -1.2404260
units angstrom
no_reorient  #important for SAPT in psi4, default
symmetry c1  #important for SAPT in psi4, default
}

set PROPERTIES_ORIGIN ["COM"]
properties('MP2/aug-cc-pvtz', properties = ['dipole'])
--------------------------------------------------------------------------

    Molecular point group: c1
  Charge       = 0
  Multiplicity = 1
  Basis Set: AUG-CC-PVTZ
    Blend: AUG-CC-PVTZ
  Basis Set: (AUG-CC-PVTZ AUX)
    Blend: AUG-CC-PVTZ-JKFIT

    Orbital Energies [Eh]
    ---------------------

    Doubly Occupied:

       1A    -20.526696     2A    -11.276871     3A    -11.263867
       4A    -11.217241     5A    -11.206545     6A    -11.200590
       7A     -1.308995     8A     -1.055632     9A     -1.003947
      10A     -0.927549    11A     -0.845972    12A     -0.776047
      13A     -0.665800    14A     -0.638885    15A     -0.610817
      16A     -0.584721    17A     -0.555992    18A     -0.551008
      19A     -0.530150    20A     -0.522002    21A     -0.498029
      22A     -0.491254    23A     -0.480071    24A     -0.427321
      25A     -0.406902

  @DF-RHF Final Energy:  -271.25202112128375

   => Energetics <=

    Nuclear Repulsion Energy =            257.4781985168106075
    One-Electron Energy =                -878.3146306233471705
    Two-Electron Energy =                 349.5844109852528163
    Total Energy =                       -271.2520211212837467
  Basis Set: (AUG-CC-PVTZ AUX)
    Blend: AUG-CC-PVTZ-RI
    Molecular point group: c1

    Geometry (in Angstrom), charge = 0, multiplicity = 1:

       Center              X                  Y                   Z               Mass
    ------------   -----------------  -----------------  -----------------  -----------------
         O            0.253490143977    -0.377573456885    -0.212747969577    15.994914619570
         C           -1.012382856023     0.042950543115     0.301964030423    12.000000000000
         C           -1.408396856023     1.409622543115    -0.239119969577    12.000000000000
         C           -1.997095856023    -1.036288456885    -0.103286969577    12.000000000000
         C            1.526062643977     0.367332143115     0.461315930423    12.000000000000
         C            2.615686143977    -0.388242456885    -0.165350969577    12.000000000000
         H           -0.951062856023     0.087761543115     1.402151030423     1.007825032230
         H           -2.401577856023     1.693642543115     0.122758030423     1.007825032230
         H           -0.705920856023     2.187925543115     0.067448030423     1.007825032230
         H           -1.430422856023     1.374068543115    -1.331835969577     1.007825032230
         H           -2.999283856023    -0.811068456885     0.271964030423     1.007825032230
         H           -1.679762856023    -2.003680456885     0.290768030423     1.007825032230
         H           -2.037892856023    -1.104651456885    -1.193377969577     1.007825032230
         H            1.373474143977     1.348412543115     0.140604030423     1.007825032230
         H            1.321275143977     0.180413543115     1.474807030423     1.007825032230
         H            3.513579143977     0.070770543115     0.257696030423     1.007825032230
         H            2.612732143977    -1.451529456885     0.082778030423     1.007825032230
         H            2.649585143977    -0.287354456885    -1.251752969577     1.007825032230

  Basis Set: AUG-CC-PVTZ
    Blend: AUG-CC-PVTZ
  Basis Set: (AUG-CC-PVTZ AUX)
    Blend: AUG-CC-PVTZ-JKFIT
	 Reference Energy          =    -271.2520211212837467 [Eh]
	 Singles Energy            =      -0.0000000000000000 [Eh]
	 Same-Spin Energy          =      -0.2761572610819604 [Eh]
	 Opposite-Spin Energy      =      -0.9843564435304089 [Eh]
	 Correlation Energy        =      -1.2605137046123693 [Eh]
	 Total Energy              =    -272.5125348258961253 [Eh]

	 ================> DF-SCS-MP2 Energies <==================
	-----------------------------------------------------------
	 SCS Same-Spin Scale       =       0.3333333333333333 [-]
	 SCS Opposite-Spin Scale   =       1.2000000000000000 [-]
	 SCS Same-Spin Energy      =      -0.0920524203606535 [Eh]
	 SCS Opposite-Spin Energy  =      -1.1812277322364906 [Eh]
	 SCS Correlation Energy    =      -1.2732801525971440 [Eh]
	 SCS Total Energy          =    -272.5253012738808707 [Eh]
	-----------------------------------------------------------

  Dipole Moment: [D]
     X:     0.5383      Y:     1.0098      Z:     1.0438     Total:     1.5489

*** Psi4 exiting successfully. Buy a developer a beer!
