                               Psi4 1.3.2 release

  ==> Input File <==

--------------------------------------------------------------------------
#psi4
#
memory 32 gb

molecule  {
0 1
  O        0.2703387    -0.3643279    -0.2130212
  C       -0.9909980     0.0554680     0.3132910
  C       -1.3870120     1.4221400    -0.2277930
  C       -1.9757110    -1.0237710    -0.0919600
  C        1.3904680     0.2879610     0.3894930
  C        2.6370710    -0.3757250    -0.1540240
  H       -0.9388617     0.1031340     1.4138315
  H       -2.3801930     1.7061600     0.1340850
  H       -0.6845360     2.2004430     0.0787750
  H       -1.4090380     1.3865860    -1.3205090
  H       -2.9778990    -0.7985510     0.2832910
  H       -1.6583780    -1.9911630     0.3020950
  H       -2.0165080    -1.0921340    -1.1820510
  H        1.3948590     1.3609300     0.1519310
  H        1.3426600     0.1929310     1.4861340
  H        3.5349640     0.0832880     0.2690230
  H        2.6341170    -1.4390120     0.0941050
  H        2.6709700    -0.2748370    -1.2404260
units angstrom
no_reorient  #important for SAPT in psi4, default
symmetry c1  #important for SAPT in psi4, default
}

set PROPERTIES_ORIGIN ["COM"]
properties('MP2/aug-cc-pvtz', properties = ['dipole'])
--------------------------------------------------------------------------

    Molecular point group: c1
  Charge       = 0
  Multiplicity = 1
  Basis Set: AUG-CC-PVTZ
    Blend: AUG-CC-PVTZ
  Basis Set: (AUG-CC-PVTZ AUX)
    Blend: AUG-CC-PVTZ-JKFIT

    Orbital Energies [Eh]
    ---------------------

    Doubly Occupied:

       1A    -20.547046     2A    -11.275059     3A    -11.270820
       4A    -11.211871     5A    -11.210338     6A    -11.207607
       7A     -1.362312     8A     -1.058578     9A     -0.993745
      10A     -0.934457    11A     -0.833925    12A     -0.790365
      13A     -0.674383    14A     -0.645529    15A     -0.617415
      16A     -0.590163    17A     -0.556964    18A     -0.542211
      19A     -0.534736    20A     -0.516734    21A     -0.512603
      22A     -0.487730    23A     -0.475663    24A     -0.458472
      25A     -0.413818

  @DF-RHF Final Energy:  -271.28294598503317

   => Energetics <=

    Nuclear Repulsion Energy =            260.0622963237367458
    One-Electron Energy =                -883.2453953471393788
    Two-Electron Energy =                 351.9001530383694671
    Total Energy =                       -271.2829459850331659
  Basis Set: (AUG-CC-PVTZ AUX)
    Blend: AUG-CC-PVTZ-RI
    Molecular point group: c1

    Geometry (in Angstrom), charge = 0, multiplicity = 1:

       Center              X                  Y                   Z               Mass
    ------------   -----------------  -----------------  -----------------  -----------------
         O            0.271267315827    -0.364492597206    -0.210918692266    15.994914619570
         C           -0.990069384173     0.055303302794     0.315393507734    12.000000000000
         C           -1.386083384173     1.421975302794    -0.225690492266    12.000000000000
         C           -1.974782384173    -1.023935697206    -0.089857492266    12.000000000000
         C            1.391396615827     0.287796302794     0.391595507734    12.000000000000
         C            2.637999615827    -0.375889697206    -0.151921492266    12.000000000000
         H           -0.937933084173     0.102969302794     1.415934007734     1.007825032230
         H           -2.379264384173     1.705995302794     0.136187507734     1.007825032230
         H           -0.683607384173     2.200278302794     0.080877507734     1.007825032230
         H           -1.408109384173     1.386421302794    -1.318406492266     1.007825032230
         H           -2.976970384173    -0.798715697206     0.285393507734     1.007825032230
         H           -1.657449384173    -1.991327697206     0.304197507734     1.007825032230
         H           -2.015579384173    -1.092298697206    -1.179948492266     1.007825032230
         H            1.395787615827     1.360765302794     0.154033507734     1.007825032230
         H            1.343588615827     0.192766302794     1.488236507734     1.007825032230
         H            3.535892615827     0.083123302794     0.271125507734     1.007825032230
         H            2.635045615827    -1.439176697206     0.096207507734     1.007825032230
         H            2.671898615827    -0.275001697206    -1.238323492266     1.007825032230

  Basis Set: AUG-CC-PVTZ
    Blend: AUG-CC-PVTZ
  Basis Set: (AUG-CC-PVTZ AUX)
    Blend: AUG-CC-PVTZ-JKFIT
	 Reference Energy          =    -271.2829459850331659 [Eh]
	 Singles Energy            =      -0.0000000000000000 [Eh]
	 Same-Spin Energy          =      -0.2744979813376467 [Eh]
	 Opposite-Spin Energy      =      -0.9794208609673257 [Eh]
	 Correlation Energy        =      -1.2539188423049725 [Eh]
	 Total Energy              =    -272.5368648273381496 [Eh]

	 ================> DF-SCS-MP2 Energies <==================
	-----------------------------------------------------------
	 SCS Same-Spin Scale       =       0.3333333333333333 [-]
	 SCS Opposite-Spin Scale   =       1.2000000000000000 [-]
	 SCS Same-Spin Energy      =      -0.0914993271125489 [Eh]
	 SCS Opposite-Spin Energy  =      -1.1753050331607908 [Eh]
	 SCS Correlation Energy    =      -1.2668043602733396 [Eh]
	 SCS Total Energy          =    -272.5497503453065065 [Eh]
	-----------------------------------------------------------

  Dipole Moment: [D]
     X:    -0.0970      Y:     0.8513      Z:     0.8898     Total:     1.2352

*** Psi4 exiting successfully. Buy a developer a beer!
