                               Psi4 1.3.2 release

  ==> Input File <==

--------------------------------------------------------------------------
#psi4
#
memory 32 gb

molecule  {
0 1
  O        0.2672354    -0.3575721    -0.1951384
  C       -0.9909980     0.0554680     0.3132910
  C       -1.3870120     1.4221400    -0.2277930
  C       -1.9757110    -1.0237710    -0.0919600
  C        1.3904680     0.2879610     0.3894930
  C        2.6445057    -0.3675553    -0.1467875
  H       -0.9296780     0.1002790     1.4134780
  H       -2.3801930     1.7061600     0.1340850
  H       -0.6845360     2.2004430     0.0787750
  H       -1.4090380     1.3865860    -1.3205090
  H       -2.9778990    -0.7985510     0.2832910
  H       -1.6583780    -1.9911630     0.3020950
  H       -2.0165080    -1.0921340    -1.1820510
  H        1.3948590     1.3609300     0.1519310
  H        1.3426600     0.1929310     1.4861340
  H        3.5349640     0.0832880     0.2690230
  H        2.6341170    -1.4390120     0.0941050
  H        2.6709700    -0.2748370    -1.2404260
units angstrom
no_reorient  #important for SAPT in psi4, default
symmetry c1  #important for SAPT in psi4, default
}

set PROPERTIES_ORIGIN ["COM"]
properties('MP2/aug-cc-pvtz', properties = ['dipole'])
--------------------------------------------------------------------------

    Molecular point group: c1
  Charge       = 0
  Multiplicity = 1
  Basis Set: AUG-CC-PVTZ
    Blend: AUG-CC-PVTZ
  Basis Set: (AUG-CC-PVTZ AUX)
    Blend: AUG-CC-PVTZ-JKFIT

    Orbital Energies [Eh]
    ---------------------

    Doubly Occupied:

       1A    -20.546205     2A    -11.274595     3A    -11.270632
       4A    -11.211569     5A    -11.210797     6A    -11.207766
       7A     -1.367455     8A     -1.059357     9A     -0.994013
      10A     -0.934597    11A     -0.835546    12A     -0.790499
      13A     -0.676122    14A     -0.646355    15A     -0.618697
      16A     -0.590981    17A     -0.559388    18A     -0.542055
      19A     -0.534655    20A     -0.517976    21A     -0.512860
      22A     -0.488588    23A     -0.476307    24A     -0.456158
      25A     -0.412241

  @DF-RHF Final Energy:  -271.28373450652470

   => Energetics <=

    Nuclear Repulsion Energy =            260.3212876235684803
    One-Electron Energy =                -883.7392180580985723
    Two-Electron Energy =                 352.1341959280053402
    Total Energy =                       -271.2837345065246950
  Basis Set: (AUG-CC-PVTZ AUX)
    Blend: AUG-CC-PVTZ-RI
    Molecular point group: c1

    Geometry (in Angstrom), charge = 0, multiplicity = 1:

       Center              X                  Y                   Z               Mass
    ------------   -----------------  -----------------  -----------------  -----------------
         O            0.267609632797    -0.360043758693    -0.197264755976    15.994914619570
         C           -0.990623767203     0.052996341307     0.311164644024    12.000000000000
         C           -1.386637767203     1.419668341307    -0.229919355976    12.000000000000
         C           -1.975336767203    -1.026242658693    -0.094086355976    12.000000000000
         C            1.390842232797     0.285489341307     0.387366644024    12.000000000000
         C            2.644879932797    -0.370026958693    -0.148913855976    12.000000000000
         H           -0.929303767203     0.097807341307     1.411351644024     1.007825032230
         H           -2.379818767203     1.703688341307     0.131958644024     1.007825032230
         H           -0.684161767203     2.197971341307     0.076648644024     1.007825032230
         H           -1.408663767203     1.384114341307    -1.322635355976     1.007825032230
         H           -2.977524767203    -0.801022658693     0.281164644024     1.007825032230
         H           -1.658003767203    -1.993634658693     0.299968644024     1.007825032230
         H           -2.016133767203    -1.094605658693    -1.184177355976     1.007825032230
         H            1.395233232797     1.358458341307     0.149804644024     1.007825032230
         H            1.343034232797     0.190459341307     1.484007644024     1.007825032230
         H            3.535338232797     0.080816341307     0.266896644024     1.007825032230
         H            2.634491232797    -1.441483658693     0.091978644024     1.007825032230
         H            2.671344232797    -0.277308658693    -1.242552355976     1.007825032230

  Basis Set: AUG-CC-PVTZ
    Blend: AUG-CC-PVTZ
  Basis Set: (AUG-CC-PVTZ AUX)
    Blend: AUG-CC-PVTZ-JKFIT
	 Reference Energy          =    -271.2837345065246950 [Eh]
	 Singles Energy            =      -0.0000000000000000 [Eh]
	 Same-Spin Energy          =      -0.2743588296949276 [Eh]
	 Opposite-Spin Energy      =      -0.9788010204594081 [Eh]
	 Correlation Energy        =      -1.2531598501543357 [Eh]
	 Total Energy              =    -272.5368943566790563 [Eh]

	 ================> DF-SCS-MP2 Energies <==================
	-----------------------------------------------------------
	 SCS Same-Spin Scale       =       0.3333333333333333 [-]
	 SCS Opposite-Spin Scale   =       1.2000000000000000 [-]
	 SCS Same-Spin Energy      =      -0.0914529432316425 [Eh]
	 SCS Opposite-Spin Energy  =      -1.1745612245512898 [Eh]
	 SCS Correlation Energy    =      -1.2660141677829322 [Eh]
	 SCS Total Energy          =    -272.5497486743076365 [Eh]
	-----------------------------------------------------------

  Dipole Moment: [D]
     X:    -0.0805      Y:     0.8318      Z:     0.8487     Total:     1.1911

*** Psi4 exiting successfully. Buy a developer a beer!
