                               Psi4 1.4a3.dev225

  ==> Input File <==

--------------------------------------------------------------------------
#psi4
#
memory 32 gb

molecule  {
0 1
  O        0.2968820    -0.3700300    -0.2078900
  C       -0.9621217    -0.0181735     0.3230224
  C       -1.4659740     1.3243170    -0.2137670
  C       -1.9120560    -1.1518890    -0.0406980
  C        1.3836810     0.3843060     0.3164800
  C        2.6596730    -0.2598580    -0.1849460
  H       -0.8961600     0.0483700     1.4287490
  H       -2.4684560     1.5499650     0.1629670
  H       -0.8070120     2.1464590     0.0762310
  H       -1.5037200     1.2784970    -1.3059680
  H       -2.9152180    -0.9801130     0.3603010
  H       -1.5287480    -2.0957260     0.3533410
  H       -1.9776690    -1.2323490    -1.1292410
  H        1.3324290     1.4330630    -0.0082660
  H        1.3481650     0.3771000     1.4173590
  H        3.5357030     0.2822800     0.1830210
  H        2.7163030    -1.2957450     0.1558670
  H        2.6771830    -0.2537050    -1.2769390
units angstrom
no_reorient  #important for SAPT in psi4, default
symmetry c1  #important for SAPT in psi4, default
}

set PROPERTIES_ORIGIN ["COM"]
properties('MP2/aug-cc-pvtz', properties = ['dipole'])
--------------------------------------------------------------------------

    Molecular point group: c1
  Charge       = 0
  Multiplicity = 1
  Basis Set: AUG-CC-PVTZ
    Blend: AUG-CC-PVTZ
  Basis Set: (AUG-CC-PVTZ AUX)
    Blend: AUG-CC-PVTZ-JKFIT

    Orbital Energies [Eh]
    ---------------------

    Doubly Occupied:

       1A    -20.548702     2A    -11.275752     3A    -11.271597
       4A    -11.211955     5A    -11.211194     6A    -11.207857
       7A     -1.370669     8A     -1.057375     9A     -0.993689
      10A     -0.933139    11A     -0.836448    12A     -0.789989
      13A     -0.677145    14A     -0.646928    15A     -0.616204
      16A     -0.593535    17A     -0.557179    18A     -0.541566
      19A     -0.534377    20A     -0.518512    21A     -0.513936
      22A     -0.487730    23A     -0.476911    24A     -0.455583
      25A     -0.412725

  @DF-RHF Final Energy:  -271.28342314037297

   => Energetics <=

    Nuclear Repulsion Energy =            260.2176070599377908
    One-Electron Energy =                -883.5206700325819611
    Two-Electron Energy =                 352.0196398322711957
    Total Energy =                       -271.2834231403729746
  Basis Set: (AUG-CC-PVTZ AUX)
    Blend: AUG-CC-PVTZ-RI
    Molecular point group: c1

    Geometry (in Angstrom), charge = 0, multiplicity = 1:

       Center              X                  Y                   Z               Mass
    ------------   -----------------  -----------------  -----------------  -----------------
         O            0.288980684875    -0.355201470239    -0.202175339636    15.994914619570
         C           -0.970023015125    -0.003344970239     0.328737060364    12.000000000000
         C           -1.473875315125     1.339145529761    -0.208052339636    12.000000000000
         C           -1.919957315125    -1.137060470239    -0.034983339636    12.000000000000
         C            1.375779684875     0.399134529761     0.322194660364    12.000000000000
         C            2.651771684875    -0.245029470239    -0.179231339636    12.000000000000
         H           -0.904061315125     0.063198529761     1.434463660364     1.007825032230
         H           -2.476357315125     1.564793529761     0.168681660364     1.007825032230
         H           -0.814913315125     2.161287529761     0.081945660364     1.007825032230
         H           -1.511621315125     1.293325529761    -1.300253339636     1.007825032230
         H           -2.923119315125    -0.965284470239     0.366015660364     1.007825032230
         H           -1.536649315125    -2.080897470239     0.359055660364     1.007825032230
         H           -1.985570315125    -1.217520470239    -1.123526339636     1.007825032230
         H            1.324527684875     1.447891529761    -0.002551339636     1.007825032230
         H            1.340263684875     0.391928529761     1.423073660364     1.007825032230
         H            3.527801684875     0.297108529761     0.188735660364     1.007825032230
         H            2.708401684875    -1.280916470239     0.161581660364     1.007825032230
         H            2.669281684875    -0.238876470239    -1.271224339636     1.007825032230

  Basis Set: AUG-CC-PVTZ
    Blend: AUG-CC-PVTZ
  Basis Set: (AUG-CC-PVTZ AUX)
    Blend: AUG-CC-PVTZ-JKFIT
	 Reference Energy          =    -271.2834231403729746 [Eh]
	 Singles Energy            =      -0.0000000000000000 [Eh]
	 Same-Spin Energy          =      -0.2743424623418597 [Eh]
	 Opposite-Spin Energy      =      -0.9789180395491385 [Eh]
	 Correlation Energy        =      -1.2532605018909981 [Eh]
	 Total Energy              =    -272.5366836422639949 [Eh]

	 ================> DF-SCS-MP2 Energies <==================
	-----------------------------------------------------------
	 SCS Same-Spin Scale       =       0.3333333333333333 [-]
	 SCS Opposite-Spin Scale   =       1.2000000000000000 [-]
	 SCS Same-Spin Energy      =      -0.0914474874472866 [Eh]
	 SCS Opposite-Spin Energy  =      -1.1747016474589662 [Eh]
	 SCS Correlation Energy    =      -1.2661491349062528 [Eh]
	 SCS Total Energy          =    -272.5495722752792176 [Eh]
	-----------------------------------------------------------

  Dipole Moment: [D]
     X:    -0.0767      Y:     0.8668      Z:     0.8158     Total:     1.1928

*** Psi4 exiting successfully. Buy a developer a beer!
