                               Psi4 1.4a3.dev225

  ==> Input File <==

--------------------------------------------------------------------------
#psi4
#
memory 32 gb

molecule  {
0 1
  O        0.2968820    -0.3700300    -0.2078900
  C       -0.9978143    -0.0081985     0.3380736
  C       -1.4659740     1.3243170    -0.2137670
  C       -1.9120560    -1.1518890    -0.0406980
  C        1.3836810     0.3843060     0.3164800
  C        2.6596730    -0.2598580    -0.1849460
  H       -0.8961600     0.0483700     1.4287490
  H       -2.4684560     1.5499650     0.1629670
  H       -0.8070120     2.1464590     0.0762310
  H       -1.5037200     1.2784970    -1.3059680
  H       -2.9152180    -0.9801130     0.3603010
  H       -1.5287480    -2.0957260     0.3533410
  H       -1.9776690    -1.2323490    -1.1292410
  H        1.3324290     1.4330630    -0.0082660
  H        1.3481650     0.3771000     1.4173590
  H        3.5357030     0.2822800     0.1830210
  H        2.7163030    -1.2957450     0.1558670
  H        2.6771830    -0.2537050    -1.2769390
units angstrom
no_reorient  #important for SAPT in psi4, default
symmetry c1  #important for SAPT in psi4, default
}

set PROPERTIES_ORIGIN ["COM"]
properties('MP2/aug-cc-pvtz', properties = ['dipole'])
--------------------------------------------------------------------------

    Molecular point group: c1
  Charge       = 0
  Multiplicity = 1
  Basis Set: AUG-CC-PVTZ
    Blend: AUG-CC-PVTZ
  Basis Set: (AUG-CC-PVTZ AUX)
    Blend: AUG-CC-PVTZ-JKFIT

    Orbital Energies [Eh]
    ---------------------

    Doubly Occupied:

       1A    -20.544281     2A    -11.276059     3A    -11.268780
       4A    -11.213436     5A    -11.209401     6A    -11.209005
       7A     -1.356334     8A     -1.059996     9A     -0.992462
      10A     -0.936224    11A     -0.832021    12A     -0.790704
      13A     -0.672541    14A     -0.643370    15A     -0.617274
      16A     -0.590924    17A     -0.556735    18A     -0.542065
      19A     -0.534490    20A     -0.516410    21A     -0.513196
      22A     -0.487870    23A     -0.474046    24A     -0.458654
      25A     -0.413818

  @DF-RHF Final Energy:  -271.28246354777099

   => Energetics <=

    Nuclear Repulsion Energy =            259.8017545724954971
    One-Electron Energy =                -882.7482461010461066
    Two-Electron Energy =                 351.6640279807796219
    Total Energy =                       -271.2824635477709876
  Basis Set: (AUG-CC-PVTZ AUX)
    Blend: AUG-CC-PVTZ-RI
    Molecular point group: c1

    Geometry (in Angstrom), charge = 0, multiplicity = 1:

       Center              X                  Y                   Z               Mass
    ------------   -----------------  -----------------  -----------------  -----------------
         O            0.293842950305    -0.356560326071    -0.204225706643    15.994914619570
         C           -1.000853349695     0.005271173929     0.341737893357    12.000000000000
         C           -1.469013049695     1.337786673929    -0.210102706643    12.000000000000
         C           -1.915095049695    -1.138419326071    -0.037033706643    12.000000000000
         C            1.380641950305     0.397775673929     0.320144293357    12.000000000000
         C            2.656633950305    -0.246388326071    -0.181281706643    12.000000000000
         H           -0.899199049695     0.061839673929     1.432413293357     1.007825032230
         H           -2.471495049695     1.563434673929     0.166631293357     1.007825032230
         H           -0.810051049695     2.159928673929     0.079895293357     1.007825032230
         H           -1.506759049695     1.291966673929    -1.302303706643     1.007825032230
         H           -2.918257049695    -0.966643326071     0.363965293357     1.007825032230
         H           -1.531787049695    -2.082256326071     0.357005293357     1.007825032230
         H           -1.980708049695    -1.218879326071    -1.125576706643     1.007825032230
         H            1.329389950305     1.446532673929    -0.004601706643     1.007825032230
         H            1.345125950305     0.390569673929     1.421023293357     1.007825032230
         H            3.532663950305     0.295749673929     0.186685293357     1.007825032230
         H            2.713263950305    -1.282275326071     0.159531293357     1.007825032230
         H            2.674143950305    -0.240235326071    -1.273274706643     1.007825032230

  Basis Set: AUG-CC-PVTZ
    Blend: AUG-CC-PVTZ
  Basis Set: (AUG-CC-PVTZ AUX)
    Blend: AUG-CC-PVTZ-JKFIT
	 Reference Energy          =    -271.2824635477709876 [Eh]
	 Singles Energy            =      -0.0000000000000000 [Eh]
	 Same-Spin Energy          =      -0.2745495644291669 [Eh]
	 Opposite-Spin Energy      =      -0.9796288376302145 [Eh]
	 Correlation Energy        =      -1.2541784020593814 [Eh]
	 Total Energy              =    -272.5366419498303685 [Eh]

	 ================> DF-SCS-MP2 Energies <==================
	-----------------------------------------------------------
	 SCS Same-Spin Scale       =       0.3333333333333333 [-]
	 SCS Opposite-Spin Scale   =       1.2000000000000000 [-]
	 SCS Same-Spin Energy      =      -0.0915165214763890 [Eh]
	 SCS Opposite-Spin Energy  =      -1.1755546051562573 [Eh]
	 SCS Correlation Energy    =      -1.2670711266326462 [Eh]
	 SCS Total Energy          =    -272.5495346744036169 [Eh]
	-----------------------------------------------------------

  Dipole Moment: [D]
     X:    -0.2484      Y:     0.8914      Z:     0.8458     Total:     1.2537

*** Psi4 exiting successfully. Buy a developer a beer!
