                               Psi4 1.3.2 release

  ==> Input File <==

--------------------------------------------------------------------------
#psi4
#
memory 32 gb

molecule  {
0 1
  O        0.2657062    -0.3635679    -0.2245814
  C       -0.9909980     0.0554680     0.3132910
  C       -1.3870120     1.4221400    -0.2277930
  C       -1.9757110    -1.0237710    -0.0919600
  C        1.3904680     0.2879610     0.3894930
  C        2.6370710    -0.3757250    -0.1540240
  H       -0.9480494     0.1059853     1.4141012
  H       -2.3801930     1.7061600     0.1340850
  H       -0.6845360     2.2004430     0.0787750
  H       -1.4090380     1.3865860    -1.3205090
  H       -2.9778990    -0.7985510     0.2832910
  H       -1.6583780    -1.9911630     0.3020950
  H       -2.0165080    -1.0921340    -1.1820510
  H        1.3948590     1.3609300     0.1519310
  H        1.3426600     0.1929310     1.4861340
  H        3.5349640     0.0832880     0.2690230
  H        2.6341170    -1.4390120     0.0941050
  H        2.6709700    -0.2748370    -1.2404260
units angstrom
no_reorient  #important for SAPT in psi4, default
symmetry c1  #important for SAPT in psi4, default
}

set PROPERTIES_ORIGIN ["COM"]
properties('MP2/aug-cc-pvtz', properties = ['dipole'])
--------------------------------------------------------------------------

    Molecular point group: c1
  Charge       = 0
  Multiplicity = 1
  Basis Set: AUG-CC-PVTZ
    Blend: AUG-CC-PVTZ
  Basis Set: (AUG-CC-PVTZ AUX)
    Blend: AUG-CC-PVTZ-JKFIT

    Orbital Energies [Eh]
    ---------------------

    Doubly Occupied:

       1A    -20.547646     2A    -11.274677     3A    -11.271657
       4A    -11.211432     5A    -11.210677     6A    -11.207148
       7A     -1.360317     8A     -1.057890     9A     -0.994154
      10A     -0.934130    11A     -0.833711    12A     -0.789951
      13A     -0.673798    14A     -0.645116    15A     -0.616681
      16A     -0.589725    17A     -0.556854    18A     -0.541774
      19A     -0.534483    20A     -0.516479    21A     -0.512045
      22A     -0.487892    23A     -0.475797    24A     -0.458758
      25A     -0.414246

  @DF-RHF Final Energy:  -271.28223283098379

   => Energetics <=

    Nuclear Repulsion Energy =            259.9496649172551201
    One-Electron Energy =                -883.0297209297705194
    Two-Electron Energy =                 351.7978231815315553
    Total Energy =                       -271.2822328309837872
  Basis Set: (AUG-CC-PVTZ AUX)
    Blend: AUG-CC-PVTZ-RI
    Molecular point group: c1

    Geometry (in Angstrom), charge = 0, multiplicity = 1:

       Center              X                  Y                   Z               Mass
    ------------   -----------------  -----------------  -----------------  -----------------
         O            0.267581088473    -0.363903217580    -0.220382909915    15.994914619570
         C           -0.989123111527     0.055132682420     0.317489490085    12.000000000000
         C           -1.385137111527     1.421804682420    -0.223594509915    12.000000000000
         C           -1.973836111527    -1.024106317580    -0.087761509915    12.000000000000
         C            1.392342888473     0.287625682420     0.393691490085    12.000000000000
         C            2.638945888473    -0.376060317580    -0.149825509915    12.000000000000
         H           -0.946174511527     0.105649982420     1.418299690085     1.007825032230
         H           -2.378318111527     1.705824682420     0.138283490085     1.007825032230
         H           -0.682661111527     2.200107682420     0.082973490085     1.007825032230
         H           -1.407163111527     1.386250682420    -1.316310509915     1.007825032230
         H           -2.976024111527    -0.798886317580     0.287489490085     1.007825032230
         H           -1.656503111527    -1.991498317580     0.306293490085     1.007825032230
         H           -2.014633111527    -1.092469317580    -1.177852509915     1.007825032230
         H            1.396733888473     1.360594682420     0.156129490085     1.007825032230
         H            1.344534888473     0.192595682420     1.490332490085     1.007825032230
         H            3.536838888473     0.082952682420     0.273221490085     1.007825032230
         H            2.635991888473    -1.439347317580     0.098303490085     1.007825032230
         H            2.672844888473    -0.275172317580    -1.236227509915     1.007825032230

  Basis Set: AUG-CC-PVTZ
    Blend: AUG-CC-PVTZ
  Basis Set: (AUG-CC-PVTZ AUX)
    Blend: AUG-CC-PVTZ-JKFIT
	 Reference Energy          =    -271.2822328309837872 [Eh]
	 Singles Energy            =      -0.0000000000000000 [Eh]
	 Same-Spin Energy          =      -0.2745616841578034 [Eh]
	 Opposite-Spin Energy      =      -0.9796996929107615 [Eh]
	 Correlation Energy        =      -1.2542613770685649 [Eh]
	 Total Energy              =    -272.5364942080523747 [Eh]

	 ================> DF-SCS-MP2 Energies <==================
	-----------------------------------------------------------
	 SCS Same-Spin Scale       =       0.3333333333333333 [-]
	 SCS Opposite-Spin Scale   =       1.2000000000000000 [-]
	 SCS Same-Spin Energy      =      -0.0915205613859345 [Eh]
	 SCS Opposite-Spin Energy  =      -1.1756396314929138 [Eh]
	 SCS Correlation Energy    =      -1.2671601928788483 [Eh]
	 SCS Total Energy          =    -272.5493930238626490 [Eh]
	-----------------------------------------------------------

  Dipole Moment: [D]
     X:    -0.0631      Y:     0.8531      Z:     0.9191     Total:     1.2556

*** Psi4 exiting successfully. Buy a developer a beer!
