                               Psi4 1.4a3.dev225

  ==> Input File <==

--------------------------------------------------------------------------
#psi4
#
memory 32 gb

molecule  {
0 1
  O        0.2968820    -0.3700300    -0.2078900
  C       -0.9353523    -0.0256548     0.3117339
  C       -1.4659740     1.3243170    -0.2137670
  C       -1.9120560    -1.1518890    -0.0406980
  C        1.3836810     0.3843060     0.3164800
  C        2.6596730    -0.2598580    -0.1849460
  H       -0.8961600     0.0483700     1.4287490
  H       -2.4684560     1.5499650     0.1629670
  H       -0.8070120     2.1464590     0.0762310
  H       -1.5037200     1.2784970    -1.3059680
  H       -2.9152180    -0.9801130     0.3603010
  H       -1.5287480    -2.0957260     0.3533410
  H       -1.9776690    -1.2323490    -1.1292410
  H        1.3324290     1.4330630    -0.0082660
  H        1.3481650     0.3771000     1.4173590
  H        3.5357030     0.2822800     0.1830210
  H        2.7163030    -1.2957450     0.1558670
  H        2.6771830    -0.2537050    -1.2769390
units angstrom
no_reorient  #important for SAPT in psi4, default
symmetry c1  #important for SAPT in psi4, default
}

set PROPERTIES_ORIGIN ["COM"]
properties('MP2/aug-cc-pvtz', properties = ['dipole'])
--------------------------------------------------------------------------

    Molecular point group: c1
  Charge       = 0
  Multiplicity = 1
  Basis Set: AUG-CC-PVTZ
    Blend: AUG-CC-PVTZ
  Basis Set: (AUG-CC-PVTZ AUX)
    Blend: AUG-CC-PVTZ-JKFIT

    Orbital Energies [Eh]
    ---------------------

    Doubly Occupied:

       1A    -20.551957     2A    -11.275899     3A    -11.273774
       4A    -11.212567     5A    -11.210839     6A    -11.207065
       7A     -1.382420     8A     -1.055932     9A     -0.994253
      10A     -0.930885    11A     -0.840000    12A     -0.789779
      13A     -0.680784    14A     -0.649794    15A     -0.616393
      16A     -0.595225    17A     -0.557456    18A     -0.542191
      19A     -0.533512    20A     -0.520405    21A     -0.514631
      22A     -0.489682    23A     -0.478543    24A     -0.451007
      25A     -0.410691

  @DF-RHF Final Energy:  -271.28215589402907

   => Energetics <=

    Nuclear Repulsion Energy =            260.5409454122232660
    One-Electron Energy =                -884.1148340579532032
    Two-Electron Energy =                 352.2917327517009198
    Total Energy =                       -271.2821558940290743
  Basis Set: (AUG-CC-PVTZ AUX)
    Blend: AUG-CC-PVTZ-RI
    Molecular point group: c1

    Geometry (in Angstrom), charge = 0, multiplicity = 1:

       Center              X                  Y                   Z               Mass
    ------------   -----------------  -----------------  -----------------  -----------------
         O            0.285333992613    -0.354182321554    -0.200637550758    15.994914619570
         C           -0.946900307387    -0.009807121554     0.318986349242    12.000000000000
         C           -1.477522007387     1.340164678446    -0.206514550758    12.000000000000
         C           -1.923604007387    -1.136041321554    -0.033445550758    12.000000000000
         C            1.372132992613     0.400153678446     0.323732449242    12.000000000000
         C            2.648124992613    -0.244010321554    -0.177693550758    12.000000000000
         H           -0.907708007387     0.064217678446     1.436001449242     1.007825032230
         H           -2.480004007387     1.565812678446     0.170219449242     1.007825032230
         H           -0.818560007387     2.162306678446     0.083483449242     1.007825032230
         H           -1.515268007387     1.294344678446    -1.298715550758     1.007825032230
         H           -2.926766007387    -0.964265321554     0.367553449242     1.007825032230
         H           -1.540296007387    -2.079878321554     0.360593449242     1.007825032230
         H           -1.989217007387    -1.216501321554    -1.121988550758     1.007825032230
         H            1.320880992613     1.448910678446    -0.001013550758     1.007825032230
         H            1.336616992613     0.392947678446     1.424611449242     1.007825032230
         H            3.524154992613     0.298127678446     0.190273449242     1.007825032230
         H            2.704754992613    -1.279897321554     0.163119449242     1.007825032230
         H            2.665634992613    -0.237857321554    -1.269686550758     1.007825032230

  Basis Set: AUG-CC-PVTZ
    Blend: AUG-CC-PVTZ
  Basis Set: (AUG-CC-PVTZ AUX)
    Blend: AUG-CC-PVTZ-JKFIT
	 Reference Energy          =    -271.2821558940290743 [Eh]
	 Singles Energy            =      -0.0000000000000000 [Eh]
	 Same-Spin Energy          =      -0.2742691780000273 [Eh]
	 Opposite-Spin Energy      =      -0.9785174655746616 [Eh]
	 Correlation Energy        =      -1.2527866435746888 [Eh]
	 Total Energy              =    -272.5349425376037402 [Eh]

	 ================> DF-SCS-MP2 Energies <==================
	-----------------------------------------------------------
	 SCS Same-Spin Scale       =       0.3333333333333333 [-]
	 SCS Opposite-Spin Scale   =       1.2000000000000000 [-]
	 SCS Same-Spin Energy      =      -0.0914230593333424 [Eh]
	 SCS Opposite-Spin Energy  =      -1.1742209586895938 [Eh]
	 SCS Correlation Energy    =      -1.2656440180229362 [Eh]
	 SCS Total Energy          =    -272.5477999120520280 [Eh]
	-----------------------------------------------------------

  Dipole Moment: [D]
     X:     0.0591      Y:     0.8465      Z:     0.7905     Total:     1.1597

*** Psi4 exiting successfully. Buy a developer a beer!
