                               Psi4 1.3.2 release

  ==> Input File <==

--------------------------------------------------------------------------
#psi4
#
memory 32 gb

molecule  {
0 1
  O        0.3062770    -0.3944885    -0.2260968
  C       -0.9909980     0.0554680     0.3132910
  C       -1.3870120     1.4221400    -0.2277930
  C       -1.9757110    -1.0237710    -0.0919600
  C        1.3904680     0.2879610     0.3894930
  C        2.6063887    -0.4078924    -0.1825505
  H       -0.9296780     0.1002790     1.4134780
  H       -2.3801930     1.7061600     0.1340850
  H       -0.6845360     2.2004430     0.0787750
  H       -1.4090380     1.3865860    -1.3205090
  H       -2.9778990    -0.7985510     0.2832910
  H       -1.6583780    -1.9911630     0.3020950
  H       -2.0165080    -1.0921340    -1.1820510
  H        1.3948590     1.3609300     0.1519310
  H        1.3426600     0.1929310     1.4861340
  H        3.5349640     0.0832880     0.2690230
  H        2.6341170    -1.4390120     0.0941050
  H        2.6709700    -0.2748370    -1.2404260
units angstrom
no_reorient  #important for SAPT in psi4, default
symmetry c1  #important for SAPT in psi4, default
}

set PROPERTIES_ORIGIN ["COM"]
properties('MP2/aug-cc-pvtz', properties = ['dipole'])
--------------------------------------------------------------------------

    Molecular point group: c1
  Charge       = 0
  Multiplicity = 1
  Basis Set: AUG-CC-PVTZ
    Blend: AUG-CC-PVTZ
  Basis Set: (AUG-CC-PVTZ AUX)
    Blend: AUG-CC-PVTZ-JKFIT

    Orbital Energies [Eh]
    ---------------------

    Doubly Occupied:

       1A    -20.547398     2A    -11.279000     3A    -11.268018
       4A    -11.215274     5A    -11.209342     6A    -11.207645
       7A     -1.353095     8A     -1.059406     9A     -0.990697
      10A     -0.935658    11A     -0.830342    12A     -0.791594
      13A     -0.670696    14A     -0.644914    15A     -0.617159
      16A     -0.589291    17A     -0.551096    18A     -0.545043
      19A     -0.536306    20A     -0.518736    21A     -0.509110
      22A     -0.486293    23A     -0.466706    24A     -0.463556
      25A     -0.417428

  @DF-RHF Final Energy:  -271.27600317617197

   => Energetics <=

    Nuclear Repulsion Energy =            259.6239712692442367
    One-Electron Energy =                -882.3923441977069615
    Two-Electron Energy =                 351.4923697522906991
    Total Energy =                       -271.2760031761719688
  Basis Set: (AUG-CC-PVTZ AUX)
    Blend: AUG-CC-PVTZ-RI
    Molecular point group: c1

    Geometry (in Angstrom), charge = 0, multiplicity = 1:

       Center              X                  Y                   Z               Mass
    ------------   -----------------  -----------------  -----------------  -----------------
         O            0.304754703043    -0.384762016784    -0.217729962661    15.994914619570
         C           -0.992520296957     0.065194483216     0.321657837339    12.000000000000
         C           -1.388534296957     1.431866483216    -0.219426162661    12.000000000000
         C           -1.977233296957    -1.014044516784    -0.083593162661    12.000000000000
         C            1.388945703043     0.297687483216     0.397859837339    12.000000000000
         C            2.604866403043    -0.398165916784    -0.174183662661    12.000000000000
         H           -0.931200296957     0.110005483216     1.421844837339     1.007825032230
         H           -2.381715296957     1.715886483216     0.142451837339     1.007825032230
         H           -0.686058296957     2.210169483216     0.087141837339     1.007825032230
         H           -1.410560296957     1.396312483216    -1.312142162661     1.007825032230
         H           -2.979421296957    -0.788824516784     0.291657837339     1.007825032230
         H           -1.659900296957    -1.981436516784     0.310461837339     1.007825032230
         H           -2.018030296957    -1.082407516784    -1.173684162661     1.007825032230
         H            1.393336703043     1.370656483216     0.160297837339     1.007825032230
         H            1.341137703043     0.202657483216     1.494500837339     1.007825032230
         H            3.533441703043     0.093014483216     0.277389837339     1.007825032230
         H            2.632594703043    -1.429285516784     0.102471837339     1.007825032230
         H            2.669447703043    -0.265110516784    -1.232059162661     1.007825032230

  Basis Set: AUG-CC-PVTZ
    Blend: AUG-CC-PVTZ
  Basis Set: (AUG-CC-PVTZ AUX)
    Blend: AUG-CC-PVTZ-JKFIT
	 Reference Energy          =    -271.2760031761719688 [Eh]
	 Singles Energy            =      -0.0000000000000000 [Eh]
	 Same-Spin Energy          =      -0.2749393102604843 [Eh]
	 Opposite-Spin Energy      =      -0.9809675028114068 [Eh]
	 Correlation Energy        =      -1.2559068130718911 [Eh]
	 Total Energy              =    -272.5319099892438430 [Eh]

	 ================> DF-SCS-MP2 Energies <==================
	-----------------------------------------------------------
	 SCS Same-Spin Scale       =       0.3333333333333333 [-]
	 SCS Opposite-Spin Scale   =       1.2000000000000000 [-]
	 SCS Same-Spin Energy      =      -0.0916464367534948 [Eh]
	 SCS Opposite-Spin Energy  =      -1.1771610033736881 [Eh]
	 SCS Correlation Energy    =      -1.2688074401271829 [Eh]
	 SCS Total Energy          =    -272.5448106162991735 [Eh]
	-----------------------------------------------------------

  Dipole Moment: [D]
     X:    -0.3371      Y:     0.9140      Z:     0.8999     Total:     1.3262

*** Psi4 exiting successfully. Buy a developer a beer!
