                               Psi4 1.3.2 release

  ==> Input File <==

--------------------------------------------------------------------------
#psi4
#
memory 32 gb

molecule  {
0 1
  O        0.2303320    -0.3194269    -0.1630671
  C       -0.9909980     0.0554680     0.3132910
  C       -1.3870120     1.4221400    -0.2277930
  C       -1.9757110    -1.0237710    -0.0919600
  C        1.3904680     0.2879610     0.3894930
  C        2.6802355    -0.3259703    -0.1100037
  H       -0.9296780     0.1002790     1.4134780
  H       -2.3801930     1.7061600     0.1340850
  H       -0.6845360     2.2004430     0.0787750
  H       -1.4090380     1.3865860    -1.3205090
  H       -2.9778990    -0.7985510     0.2832910
  H       -1.6583780    -1.9911630     0.3020950
  H       -2.0165080    -1.0921340    -1.1820510
  H        1.3948590     1.3609300     0.1519310
  H        1.3426600     0.1929310     1.4861340
  H        3.5349640     0.0832880     0.2690230
  H        2.6341170    -1.4390120     0.0941050
  H        2.6709700    -0.2748370    -1.2404260
units angstrom
no_reorient  #important for SAPT in psi4, default
symmetry c1  #important for SAPT in psi4, default
}

set PROPERTIES_ORIGIN ["COM"]
properties('MP2/aug-cc-pvtz', properties = ['dipole'])
--------------------------------------------------------------------------

    Molecular point group: c1
  Charge       = 0
  Multiplicity = 1
  Basis Set: AUG-CC-PVTZ
    Blend: AUG-CC-PVTZ
  Basis Set: (AUG-CC-PVTZ AUX)
    Blend: AUG-CC-PVTZ-JKFIT

    Orbital Energies [Eh]
    ---------------------

    Doubly Occupied:

       1A    -20.545063     2A    -11.274705     3A    -11.270580
       4A    -11.215897     5A    -11.207829     6A    -11.206329
       7A     -1.384750     8A     -1.060588     9A     -0.997344
      10A     -0.933815    11A     -0.844741    12A     -0.789103
      13A     -0.682076    14A     -0.649119    15A     -0.624302
      16A     -0.593216    17A     -0.573863    18A     -0.539251
      19A     -0.533040    20A     -0.525429    21A     -0.509622
      22A     -0.492645    23A     -0.472992    24A     -0.446673
      25A     -0.406261

  @DF-RHF Final Energy:  -271.27441827420915

   => Energetics <=

    Nuclear Repulsion Energy =            261.1031389469330861
    One-Electron Energy =                -885.1966484482504711
    Two-Electron Energy =                 352.8190912271082311
    Total Energy =                       -271.2744182742091539
  Basis Set: (AUG-CC-PVTZ AUX)
    Blend: AUG-CC-PVTZ-RI
    Molecular point group: c1

    Geometry (in Angstrom), charge = 0, multiplicity = 1:

       Center              X                  Y                   Z               Mass
    ------------   -----------------  -----------------  -----------------  -----------------
         O            0.232539713383    -0.334489819196    -0.176027786137    15.994914619570
         C           -0.988790286617     0.040405080804     0.300330313863    12.000000000000
         C           -1.384804286617     1.407077080804    -0.240753686137    12.000000000000
         C           -1.973503286617    -1.038833919196    -0.104920686137    12.000000000000
         C            1.392675713383     0.272898080804     0.376532313863    12.000000000000
         C            2.682443213383    -0.341033219196    -0.122964386137    12.000000000000
         H           -0.927470286617     0.085216080804     1.400517313863     1.007825032230
         H           -2.377985286617     1.691097080804     0.121124313863     1.007825032230
         H           -0.682328286617     2.185380080804     0.065814313863     1.007825032230
         H           -1.406830286617     1.371523080804    -1.333469686137     1.007825032230
         H           -2.975691286617    -0.813613919196     0.270330313863     1.007825032230
         H           -1.656170286617    -2.006225919196     0.289134313863     1.007825032230
         H           -2.014300286617    -1.107196919196    -1.195011686137     1.007825032230
         H            1.397066713383     1.345867080804     0.138970313863     1.007825032230
         H            1.344867713383     0.177868080804     1.473173313863     1.007825032230
         H            3.537171713383     0.068225080804     0.256062313863     1.007825032230
         H            2.636324713383    -1.454074919196     0.081144313863     1.007825032230
         H            2.673177713383    -0.289899919196    -1.253386686137     1.007825032230

  Basis Set: AUG-CC-PVTZ
    Blend: AUG-CC-PVTZ
  Basis Set: (AUG-CC-PVTZ AUX)
    Blend: AUG-CC-PVTZ-JKFIT
	 Reference Energy          =    -271.2744182742091539 [Eh]
	 Singles Energy            =      -0.0000000000000000 [Eh]
	 Same-Spin Energy          =      -0.2741935959948122 [Eh]
	 Opposite-Spin Energy      =      -0.9776101738812324 [Eh]
	 Correlation Energy        =      -1.2518037698760445 [Eh]
	 Total Energy              =    -272.5262220440852161 [Eh]

	 ================> DF-SCS-MP2 Energies <==================
	-----------------------------------------------------------
	 SCS Same-Spin Scale       =       0.3333333333333333 [-]
	 SCS Opposite-Spin Scale   =       1.2000000000000000 [-]
	 SCS Same-Spin Energy      =      -0.0913978653316041 [Eh]
	 SCS Opposite-Spin Energy  =      -1.1731322086574789 [Eh]
	 SCS Correlation Energy    =      -1.2645300739890830 [Eh]
	 SCS Total Energy          =    -272.5389483481982325 [Eh]
	-----------------------------------------------------------

  Dipole Moment: [D]
     X:     0.1636      Y:     0.7392      Z:     0.7851     Total:     1.0907

*** Psi4 exiting successfully. Buy a developer a beer!
