                               Psi4 1.3.2 release

  ==> Input File <==

--------------------------------------------------------------------------
#psi4
#
memory 32 gb

molecule  {
0 1
  O        0.2748750    -0.3650560    -0.2014210
  C       -0.9967199     0.0475164     0.3055640
  C       -1.3870120     1.4221400    -0.2277930
  C       -1.9757110    -1.0237710    -0.0919600
  C        1.3980885     0.2813736     0.3822558
  C        2.6370710    -0.3757250    -0.1540240
  H       -0.9296780     0.1002790     1.4134780
  H       -2.3801930     1.7061600     0.1340850
  H       -0.6845360     2.2004430     0.0787750
  H       -1.4090380     1.3865860    -1.3205090
  H       -2.9778990    -0.7985510     0.2832910
  H       -1.6583780    -1.9911630     0.3020950
  H       -2.0165080    -1.0921340    -1.1820510
  H        1.3948590     1.3609300     0.1519310
  H        1.3426600     0.1929310     1.4861340
  H        3.5349640     0.0832880     0.2690230
  H        2.6341170    -1.4390120     0.0941050
  H        2.6709700    -0.2748370    -1.2404260
units angstrom
no_reorient  #important for SAPT in psi4, default
symmetry c1  #important for SAPT in psi4, default
}

set PROPERTIES_ORIGIN ["COM"]
properties('MP2/aug-cc-pvtz', properties = ['dipole'])
--------------------------------------------------------------------------

    Molecular point group: c1
  Charge       = 0
  Multiplicity = 1
  Basis Set: AUG-CC-PVTZ
    Blend: AUG-CC-PVTZ
  Basis Set: (AUG-CC-PVTZ AUX)
    Blend: AUG-CC-PVTZ-JKFIT

    Orbital Energies [Eh]
    ---------------------

    Doubly Occupied:

       1A    -20.545680     2A    -11.276057     3A    -11.270677
       4A    -11.212308     5A    -11.209853     6A    -11.208060
       7A     -1.363661     8A     -1.061111     9A     -0.995429
      10A     -0.935752    11A     -0.833427    12A     -0.788802
      13A     -0.674343    14A     -0.645415    15A     -0.619300
      16A     -0.591256    17A     -0.558227    18A     -0.542444
      19A     -0.535448    20A     -0.516590    21A     -0.513351
      22A     -0.490155    23A     -0.475112    24A     -0.456959
      25A     -0.411569

  @DF-RHF Final Energy:  -271.28307505678646

   => Energetics <=

    Nuclear Repulsion Energy =            260.2360758543149473
    One-Electron Energy =                -883.5763313949483972
    Two-Electron Energy =                 352.0571804838470484
    Total Energy =                       -271.2830750567864584
  Basis Set: (AUG-CC-PVTZ AUX)
    Blend: AUG-CC-PVTZ-RI
    Molecular point group: c1

    Geometry (in Angstrom), charge = 0, multiplicity = 1:

       Center              X                  Y                   Z               Mass
    ------------   -----------------  -----------------  -----------------  -----------------
         O            0.274616217700    -0.363075234836    -0.199382263614    15.994914619570
         C           -0.996978682300     0.049497165164     0.307602736386    12.000000000000
         C           -1.387270782300     1.424120765164    -0.225754263614    12.000000000000
         C           -1.975969782300    -1.021790234836    -0.089921263614    12.000000000000
         C            1.397829717700     0.283354365164     0.384294536386    12.000000000000
         C            2.636812217700    -0.373744234836    -0.151985263614    12.000000000000
         H           -0.929936782300     0.102259765164     1.415516736386     1.007825032230
         H           -2.380451782300     1.708140765164     0.136123736386     1.007825032230
         H           -0.684794782300     2.202423765164     0.080813736386     1.007825032230
         H           -1.409296782300     1.388566765164    -1.318470263614     1.007825032230
         H           -2.978157782300    -0.796570234836     0.285329736386     1.007825032230
         H           -1.658636782300    -1.989182234836     0.304133736386     1.007825032230
         H           -2.016766782300    -1.090153234836    -1.180012263614     1.007825032230
         H            1.394600217700     1.362910765164     0.153969736386     1.007825032230
         H            1.342401217700     0.194911765164     1.488172736386     1.007825032230
         H            3.534705217700     0.085268765164     0.271061736386     1.007825032230
         H            2.633858217700    -1.437031234836     0.096143736386     1.007825032230
         H            2.670711217700    -0.272856234836    -1.238387263614     1.007825032230

  Basis Set: AUG-CC-PVTZ
    Blend: AUG-CC-PVTZ
  Basis Set: (AUG-CC-PVTZ AUX)
    Blend: AUG-CC-PVTZ-JKFIT
	 Reference Energy          =    -271.2830750567864584 [Eh]
	 Singles Energy            =      -0.0000000000000000 [Eh]
	 Same-Spin Energy          =      -0.2745306836760115 [Eh]
	 Opposite-Spin Energy      =      -0.9791464044250859 [Eh]
	 Correlation Energy        =      -1.2536770881010975 [Eh]
	 Total Energy              =    -272.5367521448875436 [Eh]

	 ================> DF-SCS-MP2 Energies <==================
	-----------------------------------------------------------
	 SCS Same-Spin Scale       =       0.3333333333333333 [-]
	 SCS Opposite-Spin Scale   =       1.2000000000000000 [-]
	 SCS Same-Spin Energy      =      -0.0915102278920038 [Eh]
	 SCS Opposite-Spin Energy  =      -1.1749756853101030 [Eh]
	 SCS Correlation Energy    =      -1.2664859132021069 [Eh]
	 SCS Total Energy          =    -272.5495609699885904 [Eh]
	-----------------------------------------------------------

  Dipole Moment: [D]
     X:    -0.1283      Y:     0.8252      Z:     0.8388     Total:     1.1837

*** Psi4 exiting successfully. Buy a developer a beer!
