                               Psi4 1.3.2 release

  ==> Input File <==

--------------------------------------------------------------------------
#psi4
#
memory 32 gb

molecule  {
0 1
  O        0.2706568    -0.4071654    -0.1749720
  C       -0.9909980     0.0554680     0.3132910
  C       -1.4318819     1.4193183    -0.1994713
  C       -1.9757110    -1.0237710    -0.0919600
  C        1.3904680     0.2879610     0.3894930
  C        2.6370710    -0.3757250    -0.1540240
  H       -0.9296780     0.1002790     1.4134780
  H       -2.3801930     1.7061600     0.1340850
  H       -0.6845360     2.2004430     0.0787750
  H       -1.4090380     1.3865860    -1.3205090
  H       -2.9778990    -0.7985510     0.2832910
  H       -1.6583780    -1.9911630     0.3020950
  H       -2.0165080    -1.0921340    -1.1820510
  H        1.3948590     1.3609300     0.1519310
  H        1.3426600     0.1929310     1.4861340
  H        3.5349640     0.0832880     0.2690230
  H        2.6341170    -1.4390120     0.0941050
  H        2.6709700    -0.2748370    -1.2404260
units angstrom
no_reorient  #important for SAPT in psi4, default
symmetry c1  #important for SAPT in psi4, default
}

set PROPERTIES_ORIGIN ["COM"]
properties('MP2/aug-cc-pvtz', properties = ['dipole'])
--------------------------------------------------------------------------

    Molecular point group: c1
  Charge       = 0
  Multiplicity = 1
  Basis Set: AUG-CC-PVTZ
    Blend: AUG-CC-PVTZ
  Basis Set: (AUG-CC-PVTZ AUX)
    Blend: AUG-CC-PVTZ-JKFIT

    Orbital Energies [Eh]
    ---------------------

    Doubly Occupied:

       1A    -20.549297     2A    -11.274974     3A    -11.271509
       4A    -11.214167     5A    -11.210641     6A    -11.206395
       7A     -1.361942     8A     -1.058977     9A     -0.995308
      10A     -0.933946    11A     -0.833866    12A     -0.790569
      13A     -0.675404    14A     -0.644722    15A     -0.614853
      16A     -0.595210    17A     -0.562322    18A     -0.539548
      19A     -0.532981    20A     -0.519459    21A     -0.510774
      22A     -0.483626    23A     -0.478241    24A     -0.454768
      25A     -0.415804

  @DF-RHF Final Energy:  -271.27851220154707

   => Energetics <=

    Nuclear Repulsion Energy =            259.7376988397688251
    One-Electron Energy =                -882.5738153123807024
    Two-Electron Energy =                 351.5576042710647471
    Total Energy =                       -271.2785122015470733
  Basis Set: (AUG-CC-PVTZ AUX)
    Blend: AUG-CC-PVTZ-RI
    Molecular point group: c1

    Geometry (in Angstrom), charge = 0, multiplicity = 1:

       Center              X                  Y                   Z               Mass
    ------------   -----------------  -----------------  -----------------  -----------------
         O            0.277535038999    -0.399134733295    -0.183632468691    15.994914619570
         C           -0.984119761001     0.063498666705     0.304630531309    12.000000000000
         C           -1.425003661001     1.427348966705    -0.208131768691    12.000000000000
         C           -1.968832761001    -1.015740333295    -0.100620468691    12.000000000000
         C            1.397346238999     0.295991666705     0.380832531309    12.000000000000
         C            2.643949238999    -0.367694333295    -0.162684468691    12.000000000000
         H           -0.922799761001     0.108309666705     1.404817531309     1.007825032230
         H           -2.373314761001     1.714190666705     0.125424531309     1.007825032230
         H           -0.677657761001     2.208473666705     0.070114531309     1.007825032230
         H           -1.402159761001     1.394616666705    -1.329169468691     1.007825032230
         H           -2.971020761001    -0.790520333295     0.274630531309     1.007825032230
         H           -1.651499761001    -1.983132333295     0.293434531309     1.007825032230
         H           -2.009629761001    -1.084103333295    -1.190711468691     1.007825032230
         H            1.401737238999     1.368960666705     0.143270531309     1.007825032230
         H            1.349538238999     0.200961666705     1.477473531309     1.007825032230
         H            3.541842238999     0.091318666705     0.260362531309     1.007825032230
         H            2.640995238999    -1.430981333295     0.085444531309     1.007825032230
         H            2.677848238999    -0.266806333295    -1.249086468691     1.007825032230

  Basis Set: AUG-CC-PVTZ
    Blend: AUG-CC-PVTZ
  Basis Set: (AUG-CC-PVTZ AUX)
    Blend: AUG-CC-PVTZ-JKFIT
	 Reference Energy          =    -271.2785122015470733 [Eh]
	 Singles Energy            =      -0.0000000000000000 [Eh]
	 Same-Spin Energy          =      -0.2746682374527996 [Eh]
	 Opposite-Spin Energy      =      -0.9798352701131858 [Eh]
	 Correlation Energy        =      -1.2545035075659854 [Eh]
	 Total Energy              =    -272.5330157091130445 [Eh]

	 ================> DF-SCS-MP2 Energies <==================
	-----------------------------------------------------------
	 SCS Same-Spin Scale       =       0.3333333333333333 [-]
	 SCS Opposite-Spin Scale   =       1.2000000000000000 [-]
	 SCS Same-Spin Energy      =      -0.0915560791509332 [Eh]
	 SCS Opposite-Spin Energy  =      -1.1758023241358229 [Eh]
	 SCS Correlation Energy    =      -1.2673584032867560 [Eh]
	 SCS Total Energy          =    -272.5458706048338513 [Eh]
	-----------------------------------------------------------

  Dipole Moment: [D]
     X:    -0.0833      Y:     0.9504      Z:     0.8229     Total:     1.2599

*** Psi4 exiting successfully. Buy a developer a beer!
