                               Psi4 1.3.2 release

  ==> Input File <==

--------------------------------------------------------------------------
#psi4
#
memory 32 gb

molecule  {
0 1
  O        0.2904084    -0.3798740    -0.2138508
  C       -0.9909980     0.0554680     0.3132910
  C       -1.3870120     1.4221400    -0.2277930
  C       -1.9757110    -1.0237710    -0.0919600
  C        1.3904680     0.2879610     0.3894930
  C        2.6219174    -0.3919122    -0.1683722
  H       -0.9296780     0.1002790     1.4134780
  H       -2.3801930     1.7061600     0.1340850
  H       -0.6845360     2.2004430     0.0787750
  H       -1.4090380     1.3865860    -1.3205090
  H       -2.9778990    -0.7985510     0.2832910
  H       -1.6583780    -1.9911630     0.3020950
  H       -2.0165080    -1.0921340    -1.1820510
  H        1.3948590     1.3609300     0.1519310
  H        1.3426600     0.1929310     1.4861340
  H        3.5349640     0.0832880     0.2690230
  H        2.6341170    -1.4390120     0.0941050
  H        2.6709700    -0.2748370    -1.2404260
units angstrom
no_reorient  #important for SAPT in psi4, default
symmetry c1  #important for SAPT in psi4, default
}

set PROPERTIES_ORIGIN ["COM"]
properties('MP2/aug-cc-pvtz', properties = ['dipole'])
--------------------------------------------------------------------------

    Molecular point group: c1
  Charge       = 0
  Multiplicity = 1
  Basis Set: AUG-CC-PVTZ
    Blend: AUG-CC-PVTZ
  Basis Set: (AUG-CC-PVTZ AUX)
    Blend: AUG-CC-PVTZ-JKFIT

    Orbital Energies [Eh]
    ---------------------

    Doubly Occupied:

       1A    -20.546911     2A    -11.277195     3A    -11.268899
       4A    -11.213793     5A    -11.208689     6A    -11.208660
       7A     -1.358472     8A     -1.059247     9A     -0.992017
      10A     -0.935198    11A     -0.831956    12A     -0.791210
      13A     -0.672759    14A     -0.645309    15A     -0.617436
      16A     -0.589932    17A     -0.553444    18A     -0.543832
      19A     -0.535655    20A     -0.517202    21A     -0.511729
      22A     -0.486419    23A     -0.472307    24A     -0.461213
      25A     -0.415443

  @DF-RHF Final Energy:  -271.28096812775254

   => Energetics <=

    Nuclear Repulsion Energy =            259.8924393878646697
    One-Electron Energy =                -882.9169637649781635
    Two-Electron Energy =                 351.7435562493609496
    Total Energy =                       -271.2809681277525442
  Basis Set: (AUG-CC-PVTZ AUX)
    Blend: AUG-CC-PVTZ-RI
    Molecular point group: c1

    Geometry (in Angstrom), charge = 0, multiplicity = 1:

       Center              X                  Y                   Z               Mass
    ------------   -----------------  -----------------  -----------------  -----------------
         O            0.289652062968    -0.374978096917    -0.209639011454    15.994914619570
         C           -0.991754337032     0.060363903083     0.317502788546    12.000000000000
         C           -1.387768337032     1.427035903083    -0.223581211454    12.000000000000
         C           -1.976467337032    -1.018875096917    -0.087748211454    12.000000000000
         C            1.389711662968     0.292856903083     0.393704788546    12.000000000000
         C            2.621161062968    -0.387016296917    -0.164160411454    12.000000000000
         H           -0.930434337032     0.105174903083     1.417689788546     1.007825032230
         H           -2.380949337032     1.711055903083     0.138296788546     1.007825032230
         H           -0.685292337032     2.205338903083     0.082986788546     1.007825032230
         H           -1.409794337032     1.391481903083    -1.316297211454     1.007825032230
         H           -2.978655337032    -0.793655096917     0.287502788546     1.007825032230
         H           -1.659134337032    -1.986267096917     0.306306788546     1.007825032230
         H           -2.017264337032    -1.087238096917    -1.177839211454     1.007825032230
         H            1.394102662968     1.365825903083     0.156142788546     1.007825032230
         H            1.341903662968     0.197826903083     1.490345788546     1.007825032230
         H            3.534207662968     0.088183903083     0.273234788546     1.007825032230
         H            2.633360662968    -1.434116096917     0.098316788546     1.007825032230
         H            2.670213662968    -0.269941096917    -1.236214211454     1.007825032230

  Basis Set: AUG-CC-PVTZ
    Blend: AUG-CC-PVTZ
  Basis Set: (AUG-CC-PVTZ AUX)
    Blend: AUG-CC-PVTZ-JKFIT
	 Reference Energy          =    -271.2809681277525442 [Eh]
	 Singles Energy            =      -0.0000000000000000 [Eh]
	 Same-Spin Energy          =      -0.2746573308628373 [Eh]
	 Opposite-Spin Energy      =      -0.9799858013899444 [Eh]
	 Correlation Energy        =      -1.2546431322527818 [Eh]
	 Total Energy              =    -272.5356112600053393 [Eh]

	 ================> DF-SCS-MP2 Energies <==================
	-----------------------------------------------------------
	 SCS Same-Spin Scale       =       0.3333333333333333 [-]
	 SCS Opposite-Spin Scale   =       1.2000000000000000 [-]
	 SCS Same-Spin Energy      =      -0.0915524436209458 [Eh]
	 SCS Opposite-Spin Energy  =      -1.1759829616679331 [Eh]
	 SCS Correlation Energy    =      -1.2675354052888790 [Eh]
	 SCS Total Energy          =    -272.5485035330414121 [Eh]
	-----------------------------------------------------------

  Dipole Moment: [D]
     X:    -0.2327      Y:     0.8826      Z:     0.8810     Total:     1.2685

*** Psi4 exiting successfully. Buy a developer a beer!
