                               Psi4 1.3.2 release

  ==> Input File <==

--------------------------------------------------------------------------
#psi4
#
memory 32 gb

molecule  {
0 1
  O        0.2825995    -0.3724901    -0.2076586
  C       -0.9909980     0.0554680     0.3132910
  C       -1.3870120     1.4221400    -0.2277930
  C       -1.9757110    -1.0237710    -0.0919600
  C        1.3904680     0.2879610     0.3894930
  C        2.6295414    -0.3838442    -0.1612191
  H       -0.9296780     0.1002790     1.4134780
  H       -2.3801930     1.7061600     0.1340850
  H       -0.6845360     2.2004430     0.0787750
  H       -1.4090380     1.3865860    -1.3205090
  H       -2.9778990    -0.7985510     0.2832910
  H       -1.6583780    -1.9911630     0.3020950
  H       -2.0165080    -1.0921340    -1.1820510
  H        1.3948590     1.3609300     0.1519310
  H        1.3426600     0.1929310     1.4861340
  H        3.5349640     0.0832880     0.2690230
  H        2.6341170    -1.4390120     0.0941050
  H        2.6709700    -0.2748370    -1.2404260
units angstrom
no_reorient  #important for SAPT in psi4, default
symmetry c1  #important for SAPT in psi4, default
}

set PROPERTIES_ORIGIN ["COM"]
properties('MP2/aug-cc-pvtz', properties = ['dipole'])
--------------------------------------------------------------------------

    Molecular point group: c1
  Charge       = 0
  Multiplicity = 1
  Basis Set: AUG-CC-PVTZ
    Blend: AUG-CC-PVTZ
  Basis Set: (AUG-CC-PVTZ AUX)
    Blend: AUG-CC-PVTZ-JKFIT

    Orbital Energies [Eh]
    ---------------------

    Doubly Occupied:

       1A    -20.546673     2A    -11.276313     3A    -11.269420
       4A    -11.213053     5A    -11.209292     6A    -11.208374
       7A     -1.361346     8A     -1.059235     9A     -0.992680
      10A     -0.934986    11A     -0.832994    12A     -0.790990
      13A     -0.673851    14A     -0.645599    15A     -0.617729
      16A     -0.590268    17A     -0.555109    18A     -0.543233
      19A     -0.535328    20A     -0.516749    21A     -0.512760
      22A     -0.486849    23A     -0.474421    24A     -0.459596
      25A     -0.414407

  @DF-RHF Final Energy:  -271.28253605959458

   => Energetics <=

    Nuclear Repulsion Energy =            260.0319388154447324
    One-Electron Energy =                -883.1864386865510141
    Two-Electron Energy =                 351.8719638115117050
    Total Energy =                       -271.2825360595945767
  Basis Set: (AUG-CC-PVTZ AUX)
    Blend: AUG-CC-PVTZ-RI
    Molecular point group: c1

    Geometry (in Angstrom), charge = 0, multiplicity = 1:

       Center              X                  Y                   Z               Mass
    ------------   -----------------  -----------------  -----------------  -----------------
         O            0.282222492498    -0.370034016888    -0.205545612650    15.994914619570
         C           -0.991375007502     0.057924083112     0.315403987350    12.000000000000
         C           -1.387389007502     1.424596083112    -0.225680012650    12.000000000000
         C           -1.976088007502    -1.021314916888    -0.089847012650    12.000000000000
         C            1.390090992498     0.290417083112     0.391605987350    12.000000000000
         C            2.629164392498    -0.381388116888    -0.159106112650    12.000000000000
         H           -0.930055007502     0.102735083112     1.415590987350     1.007825032230
         H           -2.380570007502     1.708616083112     0.136197987350     1.007825032230
         H           -0.684913007502     2.202899083112     0.080887987350     1.007825032230
         H           -1.409415007502     1.389042083112    -1.318396012650     1.007825032230
         H           -2.978276007502    -0.796094916888     0.285403987350     1.007825032230
         H           -1.658755007502    -1.988706916888     0.304207987350     1.007825032230
         H           -2.016885007502    -1.089677916888    -1.179938012650     1.007825032230
         H            1.394481992498     1.363386083112     0.154043987350     1.007825032230
         H            1.342282992498     0.195387083112     1.488246987350     1.007825032230
         H            3.534586992498     0.085744083112     0.271135987350     1.007825032230
         H            2.633739992498    -1.436555916888     0.096217987350     1.007825032230
         H            2.670592992498    -0.272380916888    -1.238313012650     1.007825032230

  Basis Set: AUG-CC-PVTZ
    Blend: AUG-CC-PVTZ
  Basis Set: (AUG-CC-PVTZ AUX)
    Blend: AUG-CC-PVTZ-JKFIT
	 Reference Energy          =    -271.2825360595945767 [Eh]
	 Singles Energy            =      -0.0000000000000000 [Eh]
	 Same-Spin Energy          =      -0.2745412549360156 [Eh]
	 Opposite-Spin Energy      =      -0.9795522526265561 [Eh]
	 Correlation Energy        =      -1.2540935075625717 [Eh]
	 Total Energy              =    -272.5366295671571493 [Eh]

	 ================> DF-SCS-MP2 Energies <==================
	-----------------------------------------------------------
	 SCS Same-Spin Scale       =       0.3333333333333333 [-]
	 SCS Opposite-Spin Scale   =       1.2000000000000000 [-]
	 SCS Same-Spin Energy      =      -0.0915137516453385 [Eh]
	 SCS Opposite-Spin Energy  =      -1.1754627031518672 [Eh]
	 SCS Correlation Energy    =      -1.2669764547972058 [Eh]
	 SCS Total Energy          =    -272.5495125143917790 [Eh]
	-----------------------------------------------------------

  Dipole Moment: [D]
     X:    -0.1814      Y:     0.8661      Z:     0.8707     Total:     1.2414

*** Psi4 exiting successfully. Buy a developer a beer!
