                               Psi4 1.3.2 release

  ==> Input File <==

--------------------------------------------------------------------------
#psi4
#
memory 32 gb

molecule  {
0 1
  O        0.2748750    -0.3650560    -0.2014210
  C       -1.0133028     0.0234757     0.2821537
  C       -1.3870120     1.4221400    -0.2277930
  C       -1.9757110    -1.0237710    -0.0919600
  C        1.4204344     0.2613181     0.3602796
  C        2.6370710    -0.3757250    -0.1540240
  H       -0.9296780     0.1002790     1.4134780
  H       -2.3801930     1.7061600     0.1340850
  H       -0.6845360     2.2004430     0.0787750
  H       -1.4090380     1.3865860    -1.3205090
  H       -2.9778990    -0.7985510     0.2832910
  H       -1.6583780    -1.9911630     0.3020950
  H       -2.0165080    -1.0921340    -1.1820510
  H        1.3948590     1.3609300     0.1519310
  H        1.3426600     0.1929310     1.4861340
  H        3.5349640     0.0832880     0.2690230
  H        2.6341170    -1.4390120     0.0941050
  H        2.6709700    -0.2748370    -1.2404260
units angstrom
no_reorient  #important for SAPT in psi4, default
symmetry c1  #important for SAPT in psi4, default
}

set PROPERTIES_ORIGIN ["COM"]
properties('MP2/aug-cc-pvtz', properties = ['dipole'])
--------------------------------------------------------------------------

    Molecular point group: c1
  Charge       = 0
  Multiplicity = 1
  Basis Set: AUG-CC-PVTZ
    Blend: AUG-CC-PVTZ
  Basis Set: (AUG-CC-PVTZ AUX)
    Blend: AUG-CC-PVTZ-JKFIT

    Orbital Energies [Eh]
    ---------------------

    Doubly Occupied:

       1A    -20.543534     2A    -11.278255     3A    -11.273108
       4A    -11.212454     5A    -11.209378     6A    -11.207999
       7A     -1.361816     8A     -1.067226     9A     -1.002405
      10A     -0.938344    11A     -0.831379    12A     -0.782954
      13A     -0.672611    14A     -0.644531    15A     -0.622846
      16A     -0.593902    17A     -0.561546    18A     -0.542679
      19A     -0.536814    20A     -0.515475    21A     -0.513993
      22A     -0.501558    23A     -0.468757    24A     -0.452699
      25A     -0.405487

  @DF-RHF Final Energy:  -271.27734912341884

   => Energetics <=

    Nuclear Repulsion Energy =            260.4357008237795412
    One-Electron Energy =                -883.9425993018110148
    Two-Electron Energy =                 352.2295493546125726
    Total Energy =                       -271.2773491234188441
  Basis Set: (AUG-CC-PVTZ AUX)
    Blend: AUG-CC-PVTZ-RI
    Molecular point group: c1

    Geometry (in Angstrom), charge = 0, multiplicity = 1:

       Center              X                  Y                   Z               Mass
    ------------   -----------------  -----------------  -----------------  -----------------
         O            0.273831146406    -0.357068179343    -0.193199435522    15.994914619570
         C           -1.014346653594     0.031463520657     0.290375264478    12.000000000000
         C           -1.388055853594     1.430127820657    -0.219571435522    12.000000000000
         C           -1.976754853594    -1.015783179343    -0.083738435522    12.000000000000
         C            1.419390546406     0.269305920657     0.368501164478    12.000000000000
         C            2.636027146406    -0.367737179343    -0.145802435522    12.000000000000
         H           -0.930721853594     0.108266820657     1.421699564478     1.007825032230
         H           -2.381236853594     1.714147820657     0.142306564478     1.007825032230
         H           -0.685579853594     2.208430820657     0.086996564478     1.007825032230
         H           -1.410081853594     1.394573820657    -1.312287435522     1.007825032230
         H           -2.978942853594    -0.790563179343     0.291512564478     1.007825032230
         H           -1.659421853594    -1.983175179343     0.310316564478     1.007825032230
         H           -2.017551853594    -1.084146179343    -1.173829435522     1.007825032230
         H            1.393815146406     1.368917820657     0.160152564478     1.007825032230
         H            1.341616146406     0.200918820657     1.494355564478     1.007825032230
         H            3.533920146406     0.091275820657     0.277244564478     1.007825032230
         H            2.633073146406    -1.431024179343     0.102326564478     1.007825032230
         H            2.669926146406    -0.266849179343    -1.232204435522     1.007825032230

  Basis Set: AUG-CC-PVTZ
    Blend: AUG-CC-PVTZ
  Basis Set: (AUG-CC-PVTZ AUX)
    Blend: AUG-CC-PVTZ-JKFIT
	 Reference Energy          =    -271.2773491234188441 [Eh]
	 Singles Energy            =      -0.0000000000000000 [Eh]
	 Same-Spin Energy          =      -0.2749585886289697 [Eh]
	 Opposite-Spin Energy      =      -0.9794139921731927 [Eh]
	 Correlation Energy        =      -1.2543725808021624 [Eh]
	 Total Energy              =    -272.5317217042210132 [Eh]

	 ================> DF-SCS-MP2 Energies <==================
	-----------------------------------------------------------
	 SCS Same-Spin Scale       =       0.3333333333333333 [-]
	 SCS Opposite-Spin Scale   =       1.2000000000000000 [-]
	 SCS Same-Spin Energy      =      -0.0916528628763232 [Eh]
	 SCS Opposite-Spin Energy  =      -1.1752967906078311 [Eh]
	 SCS Correlation Energy    =      -1.2669496534841542 [Eh]
	 SCS Total Energy          =    -272.5442987769030196 [Eh]
	-----------------------------------------------------------

  Dipole Moment: [D]
     X:    -0.1203      Y:     0.7497      Z:     0.7697     Total:     1.0812

*** Psi4 exiting successfully. Buy a developer a beer!
