                               Psi4 1.3.2 release

  ==> Input File <==

--------------------------------------------------------------------------
#psi4
#
memory 32 gb

molecule  {
0 1
  O        0.2987469    -0.4288016    -0.1713587
  C       -0.9909980     0.0554680     0.3132910
  C       -1.3870120     1.4221400    -0.2277930
  C       -1.9757110    -1.0237710    -0.0919600
  C        1.3904680     0.2879610     0.3894930
  C        2.6370710    -0.3757250    -0.1540240
  H       -0.9296780     0.1002790     1.4134780
  H       -2.3801930     1.7061600     0.1340850
  H       -0.6845360     2.2004430     0.0787750
  H       -1.4090380     1.3865860    -1.3205090
  H       -2.9778990    -0.7985510     0.2832910
  H       -1.6583780    -1.9911630     0.3020950
  H       -2.0165080    -1.0921340    -1.1820510
  H        1.4431886     1.3660092     0.1827323
  H        1.3426600     0.1929310     1.4861340
  H        3.5349640     0.0832880     0.2690230
  H        2.6341170    -1.4390120     0.0941050
  H        2.6709700    -0.2748370    -1.2404260
units angstrom
no_reorient  #important for SAPT in psi4, default
symmetry c1  #important for SAPT in psi4, default
}

set PROPERTIES_ORIGIN ["COM"]
properties('MP2/aug-cc-pvtz', properties = ['dipole'])
--------------------------------------------------------------------------

    Molecular point group: c1
  Charge       = 0
  Multiplicity = 1
  Basis Set: AUG-CC-PVTZ
    Blend: AUG-CC-PVTZ
  Basis Set: (AUG-CC-PVTZ AUX)
    Blend: AUG-CC-PVTZ-JKFIT

    Orbital Energies [Eh]
    ---------------------

    Doubly Occupied:

       1A    -20.549723     2A    -11.278391     3A    -11.268361
       4A    -11.216053     5A    -11.208757     6A    -11.207468
       7A     -1.357227     8A     -1.059455     9A     -0.993165
      10A     -0.935766    11A     -0.830285    12A     -0.791789
      13A     -0.673756    14A     -0.642403    15A     -0.616764
      16A     -0.590988    17A     -0.557359    18A     -0.543837
      19A     -0.534789    20A     -0.516182    21A     -0.512099
      22A     -0.481758    23A     -0.473669    24A     -0.461657
      25A     -0.417297

  @DF-RHF Final Energy:  -271.27923146087903

   => Energetics <=

    Nuclear Repulsion Energy =            259.4813996229141821
    One-Electron Energy =                -882.0832700003485343
    Two-Electron Energy =                 351.3226389165553201
    Total Energy =                       -271.2792314608790321
  Basis Set: (AUG-CC-PVTZ AUX)
    Blend: AUG-CC-PVTZ-RI
    Molecular point group: c1

    Geometry (in Angstrom), charge = 0, multiplicity = 1:

       Center              X                  Y                   Z               Mass
    ------------   -----------------  -----------------  -----------------  -----------------
         O            0.293859226019    -0.417284794597    -0.177169503228    15.994914619570
         C           -0.995885673981     0.066984805403     0.307480196772    12.000000000000
         C           -1.391899673981     1.433656805403    -0.233603803228    12.000000000000
         C           -1.980598673981    -1.012254194597    -0.097770803228    12.000000000000
         C            1.385580326019     0.299477805403     0.383682196772    12.000000000000
         C            2.632183326019    -0.364208194597    -0.159834803228    12.000000000000
         H           -0.934565673981     0.111795805403     1.407667196772     1.007825032230
         H           -2.385080673981     1.717676805403     0.128274196772     1.007825032230
         H           -0.689423673981     2.211959805403     0.072964196772     1.007825032230
         H           -1.413925673981     1.398102805403    -1.326319803228     1.007825032230
         H           -2.982786673981    -0.787034194597     0.277480196772     1.007825032230
         H           -1.663265673981    -1.979646194597     0.296284196772     1.007825032230
         H           -2.021395673981    -1.080617194597    -1.187861803228     1.007825032230
         H            1.438300926019     1.377526005403     0.176921496772     1.007825032230
         H            1.337772326019     0.204447805403     1.480323196772     1.007825032230
         H            3.530076326019     0.094804805403     0.263212196772     1.007825032230
         H            2.629229326019    -1.427495194597     0.088294196772     1.007825032230
         H            2.666082326019    -0.263320194597    -1.246236803228     1.007825032230

  Basis Set: AUG-CC-PVTZ
    Blend: AUG-CC-PVTZ
  Basis Set: (AUG-CC-PVTZ AUX)
    Blend: AUG-CC-PVTZ-JKFIT
	 Reference Energy          =    -271.2792314608790321 [Eh]
	 Singles Energy            =      -0.0000000000000000 [Eh]
	 Same-Spin Energy          =      -0.2747977698163090 [Eh]
	 Opposite-Spin Energy      =      -0.9803317592523120 [Eh]
	 Correlation Energy        =      -1.2551295290686211 [Eh]
	 Total Energy              =    -272.5343609899476292 [Eh]

	 ================> DF-SCS-MP2 Energies <==================
	-----------------------------------------------------------
	 SCS Same-Spin Scale       =       0.3333333333333333 [-]
	 SCS Opposite-Spin Scale   =       1.2000000000000000 [-]
	 SCS Same-Spin Energy      =      -0.0915992566054363 [Eh]
	 SCS Opposite-Spin Energy  =      -1.1763981111027744 [Eh]
	 SCS Correlation Energy    =      -1.2679973677082108 [Eh]
	 SCS Total Energy          =    -272.5472288285872651 [Eh]
	-----------------------------------------------------------

  Dipole Moment: [D]
     X:    -0.2852      Y:     1.0054      Z:     0.8037     Total:     1.3184

*** Psi4 exiting successfully. Buy a developer a beer!
