                               Psi4 1.3.2 release

  ==> Input File <==

--------------------------------------------------------------------------
#psi4
#
memory 32 gb

molecule  {
0 1
  O        2.2902000     1.1004440    -0.0001310
  O        2.2902000    -1.1004440     0.0000360
  N        1.7133150     0.0000000    -0.0000370
  C        0.2417644    -0.0000228    -0.3000090
  C       -0.4248660     1.2226560     0.0000420
  C       -0.4248660    -1.2226560    -0.0000210
  C       -1.8195320     1.2101310     0.0000700
  C       -1.8195320    -1.2101310     0.0000040
  C       -2.5180540     0.0000000     0.0000560
  H        0.1410100     2.1474780     0.0000480
  H        0.1410100    -2.1474780    -0.0000570
  H       -2.3614670     2.1521620     0.0001130
  H       -2.3614670    -2.1521620    -0.0000060
  H       -3.6050100     0.0000000     0.0000740
units angstrom
no_reorient  #important for SAPT in psi4, default
symmetry c1  #important for SAPT in psi4, default
}

set PROPERTIES_ORIGIN ["COM"]
properties('MP2/aug-cc-pvtz', properties = ['dipole'])
--------------------------------------------------------------------------

    Molecular point group: c1
  Charge       = 0
  Multiplicity = 1
  Basis Set: AUG-CC-PVTZ
    Blend: AUG-CC-PVTZ
  Basis Set: (AUG-CC-PVTZ AUX)
    Blend: AUG-CC-PVTZ-JKFIT

    Orbital Energies [Eh]
    ---------------------

    Doubly Occupied:

       1A    -20.602903     2A    -20.602854     3A    -15.852213
       4A    -11.319546     5A    -11.286077     6A    -11.286044
       7A    -11.281604     8A    -11.268229     9A    -11.268165
      10A     -1.584485    11A     -1.384532    12A     -1.194813
      13A     -1.087535    14A     -1.052073    15A     -0.955099
      16A     -0.860630    17A     -0.829306    18A     -0.772013
      19A     -0.720421    20A     -0.711520    21A     -0.702354
      22A     -0.651726    23A     -0.650508    24A     -0.625378
      25A     -0.558816    26A     -0.533440    27A     -0.530492
      28A     -0.492469    29A     -0.487868    30A     -0.451015
      31A     -0.379758    32A     -0.367394

  @DF-RHF Final Energy:  -434.29446893921460

   => Energetics <=

    Nuclear Repulsion Energy =            409.8259342209781266
    One-Electron Energy =               -1403.5382491450550333
    Two-Electron Energy =                 559.4178459848623106
    Total Energy =                       -434.2944689392146529
  Basis Set: (AUG-CC-PVTZ AUX)
    Blend: AUG-CC-PVTZ-RI
    Molecular point group: c1

    Geometry (in Angstrom), charge = 0, multiplicity = 1:

       Center              X                  Y                   Z               Mass
    ------------   -----------------  -----------------  -----------------  -----------------
         O            2.225461793616     1.100446223811     0.029130976181    15.994914619570
         O            2.225461793616    -1.100441776189     0.029297976181    15.994914619570
         N            1.648576793616     0.000002223811     0.029224976181    14.003074004430
         C            0.177026193616    -0.000020576189    -0.270747023819    12.000000000000
         C           -0.489604206384     1.222658223811     0.029303976181    12.000000000000
         C           -0.489604206384    -1.222653776189     0.029240976181    12.000000000000
         C           -1.884270206384     1.210133223811     0.029331976181    12.000000000000
         C           -1.884270206384    -1.210128776189     0.029265976181    12.000000000000
         C           -2.582792206384     0.000002223811     0.029317976181    12.000000000000
         H            0.076271793616     2.147480223811     0.029309976181     1.007825032230
         H            0.076271793616    -2.147475776189     0.029204976181     1.007825032230
         H           -2.426205206384     2.152164223811     0.029374976181     1.007825032230
         H           -2.426205206384    -2.152159776189     0.029255976181     1.007825032230
         H           -3.669748206384     0.000002223811     0.029335976181     1.007825032230

  Basis Set: AUG-CC-PVTZ
    Blend: AUG-CC-PVTZ
  Basis Set: (AUG-CC-PVTZ AUX)
    Blend: AUG-CC-PVTZ-JKFIT
	 Reference Energy          =    -434.2944689392145960 [Eh]
	 Singles Energy            =      -0.0000000000000000 [Eh]
	 Same-Spin Energy          =      -0.4594683488408374 [Eh]
	 Opposite-Spin Energy      =      -1.3625153840444377 [Eh]
	 Correlation Energy        =      -1.8219837328852750 [Eh]
	 Total Energy              =    -436.1164526720998538 [Eh]

	 ================> DF-SCS-MP2 Energies <==================
	-----------------------------------------------------------
	 SCS Same-Spin Scale       =       0.3333333333333333 [-]
	 SCS Opposite-Spin Scale   =       1.2000000000000000 [-]
	 SCS Same-Spin Energy      =      -0.1531561162802791 [Eh]
	 SCS Opposite-Spin Energy  =      -1.6350184608533251 [Eh]
	 SCS Correlation Energy    =      -1.7881745771336042 [Eh]
	 SCS Total Energy          =    -436.0826435163481847 [Eh]
	-----------------------------------------------------------

  Dipole Moment: [D]
     X:    -4.4780      Y:    -0.0000      Z:    -0.0811     Total:     4.4788

*** Psi4 exiting successfully. Buy a developer a beer!
