                               Psi4 1.3.2 release

  ==> Input File <==

--------------------------------------------------------------------------
#psi4
#
memory 32 gb

molecule  {
0 1
  O        2.2902000     1.1004440    -0.0001310
  O        2.2902000    -1.1004440     0.0000360
  N        1.7133150     0.0000000    -0.0000370
  C        0.2417700     0.0000000    -0.0000090
  C       -0.4248660     1.2226560     0.0000420
  C       -0.4248660    -1.2226560    -0.0000210
  C       -1.8195320     1.2101310     0.0000700
  C       -1.8195320    -1.2101310     0.0000040
  C       -2.5180540     0.0000000     0.0000560
  H        0.1410077     2.1474805    -0.0999520
  H        0.1410100    -2.1474780    -0.0000570
  H       -2.3614670     2.1521620     0.0001130
  H       -2.3614670    -2.1521620    -0.0000060
  H       -3.6050100     0.0000000     0.0000740
units angstrom
no_reorient  #important for SAPT in psi4, default
symmetry c1  #important for SAPT in psi4, default
}

set PROPERTIES_ORIGIN ["COM"]
properties('MP2/aug-cc-pvtz', properties = ['dipole'])
--------------------------------------------------------------------------

    Molecular point group: c1
  Charge       = 0
  Multiplicity = 1
  Basis Set: AUG-CC-PVTZ
    Blend: AUG-CC-PVTZ
  Basis Set: (AUG-CC-PVTZ AUX)
    Blend: AUG-CC-PVTZ-JKFIT

    Orbital Energies [Eh]
    ---------------------

    Doubly Occupied:

       1A    -20.605772     2A    -20.605722     3A    -15.855992
       4A    -11.314772     5A    -11.279260     6A    -11.278911
       7A    -11.276478     8A    -11.268713     9A    -11.268611
      10A     -1.589351    11A     -1.387973    12A     -1.199702
      13A     -1.093998    14A     -1.052942    15A     -0.962930
      16A     -0.866063    17A     -0.830233    18A     -0.778055
      19A     -0.724227    20A     -0.710002    21A     -0.707505
      22A     -0.655803    23A     -0.650633    24A     -0.625246
      25A     -0.556348    26A     -0.538063    27A     -0.531592
      28A     -0.496679    29A     -0.494730    30A     -0.453688
      31A     -0.378947    32A     -0.369959

  @DF-RHF Final Energy:  -434.32225631213026

   => Energetics <=

    Nuclear Repulsion Energy =            411.1065519479575983
    One-Electron Energy =               -1406.0398220768927331
    Two-Electron Energy =                 560.6110138168048707
    Total Energy =                       -434.3222563121303210
  Basis Set: (AUG-CC-PVTZ AUX)
    Blend: AUG-CC-PVTZ-RI
    Molecular point group: c1

    Geometry (in Angstrom), charge = 0, multiplicity = 1:

       Center              X                  Y                   Z               Mass
    ------------   -----------------  -----------------  -----------------  -----------------
         O            2.225461266257     1.100443979521     0.000689459430    15.994914619570
         O            2.225461266257    -1.100444020479     0.000856459430    15.994914619570
         N            1.648576266257    -0.000000020479     0.000783459430    14.003074004430
         C            0.177031266257    -0.000000020479     0.000811459430    12.000000000000
         C           -0.489604733743     1.222655979521     0.000862459430    12.000000000000
         C           -0.489604733743    -1.222656020479     0.000799459430    12.000000000000
         C           -1.884270733743     1.210130979521     0.000890459430    12.000000000000
         C           -1.884270733743    -1.210131020479     0.000824459430    12.000000000000
         C           -2.582792733743    -0.000000020479     0.000876459430    12.000000000000
         H            0.076268966257     2.147480479521    -0.099131540570     1.007825032230
         H            0.076271266257    -2.147478020479     0.000763459430     1.007825032230
         H           -2.426205733743     2.152161979521     0.000933459430     1.007825032230
         H           -2.426205733743    -2.152162020479     0.000814459430     1.007825032230
         H           -3.669748733743    -0.000000020479     0.000894459430     1.007825032230

  Basis Set: AUG-CC-PVTZ
    Blend: AUG-CC-PVTZ
  Basis Set: (AUG-CC-PVTZ AUX)
    Blend: AUG-CC-PVTZ-JKFIT
	 Reference Energy          =    -434.3222563121302642 [Eh]
	 Singles Energy            =      -0.0000000000000000 [Eh]
	 Same-Spin Energy          =      -0.4587485612439455 [Eh]
	 Opposite-Spin Energy      =      -1.3591949359630846 [Eh]
	 Correlation Energy        =      -1.8179434972070301 [Eh]
	 Total Energy              =    -436.1401998093372754 [Eh]

	 ================> DF-SCS-MP2 Energies <==================
	-----------------------------------------------------------
	 SCS Same-Spin Scale       =       0.3333333333333333 [-]
	 SCS Opposite-Spin Scale   =       1.2000000000000000 [-]
	 SCS Same-Spin Energy      =      -0.1529161870813152 [Eh]
	 SCS Opposite-Spin Energy  =      -1.6310339231557014 [Eh]
	 SCS Correlation Energy    =      -1.7839501102370166 [Eh]
	 SCS Total Energy          =    -436.1062064223672792 [Eh]
	-----------------------------------------------------------

  Dipole Moment: [D]
     X:    -4.3632      Y:    -0.0045      Z:    -0.0677     Total:     4.3637

*** Psi4 exiting successfully. Buy a developer a beer!
