                               Psi4 1.3.2 release

  ==> Input File <==

--------------------------------------------------------------------------
#psi4
#
memory 32 gb

molecule  {
0 1
  O        2.2902000     1.1004440    -0.0001310
  O        2.2902000    -1.1004440     0.0000360
  N        1.7133150     0.0000000    -0.0000370
  C        0.2417700     0.0000000    -0.0000090
  C       -0.4248660     1.2226560     0.0000420
  C       -0.4248660    -1.2226560    -0.0000210
  C       -1.8195320     1.2101310     0.0000700
  C       -1.8195320    -1.2101310     0.0000040
  C       -2.5180540     0.0000000     0.0000560
  H        0.1410100     2.1474780     0.0000480
  H        0.1410100    -2.1474780    -0.0000570
  H       -2.3614682     2.1521634    -0.0498870
  H       -2.3614670    -2.1521620    -0.0000060
  H       -3.6050100     0.0000000     0.0000740
units angstrom
no_reorient  #important for SAPT in psi4, default
symmetry c1  #important for SAPT in psi4, default
}

set PROPERTIES_ORIGIN ["COM"]
properties('MP2/aug-cc-pvtz', properties = ['dipole'])
--------------------------------------------------------------------------

    Molecular point group: c1
  Charge       = 0
  Multiplicity = 1
  Basis Set: AUG-CC-PVTZ
    Blend: AUG-CC-PVTZ
  Basis Set: (AUG-CC-PVTZ AUX)
    Blend: AUG-CC-PVTZ-JKFIT

    Orbital Energies [Eh]
    ---------------------

    Doubly Occupied:

       1A    -20.605806     2A    -20.605757     3A    -15.856029
       4A    -11.314738     5A    -11.278937     6A    -11.278900
       7A    -11.276488     8A    -11.268714     9A    -11.268578
      10A     -1.589385    11A     -1.388011    12A     -1.199714
      13A     -1.093990    14A     -1.053017    15A     -0.962985
      16A     -0.866196    17A     -0.830250    18A     -0.778167
      19A     -0.724273    20A     -0.709884    21A     -0.708023
      22A     -0.655801    23A     -0.650707    24A     -0.625557
      25A     -0.556349    26A     -0.537631    27A     -0.532307
      28A     -0.496700    29A     -0.494810    30A     -0.453737
      31A     -0.378951    32A     -0.370005

  @DF-RHF Final Energy:  -434.32275864460064

   => Energetics <=

    Nuclear Repulsion Energy =            411.1218990259012571
    One-Electron Energy =               -1406.0685193347367203
    Two-Electron Energy =                 560.6238616642348234
    Total Energy =                       -434.3227586446006399
  Basis Set: (AUG-CC-PVTZ AUX)
    Blend: AUG-CC-PVTZ-RI
    Molecular point group: c1

    Geometry (in Angstrom), charge = 0, multiplicity = 1:

       Center              X                  Y                   Z               Mass
    ------------   -----------------  -----------------  -----------------  -----------------
         O            2.225461257246     1.100443988532     0.000279881109    15.994914619570
         O            2.225461257246    -1.100444011468     0.000446881109    15.994914619570
         N            1.648576257246    -0.000000011468     0.000373881109    14.003074004430
         C            0.177031257246    -0.000000011468     0.000401881109    12.000000000000
         C           -0.489604742754     1.222655988532     0.000452881109    12.000000000000
         C           -0.489604742754    -1.222656011468     0.000389881109    12.000000000000
         C           -1.884270742754     1.210130988532     0.000480881109    12.000000000000
         C           -1.884270742754    -1.210131011468     0.000414881109    12.000000000000
         C           -2.582792742754    -0.000000011468     0.000466881109    12.000000000000
         H            0.076271257246     2.147477988532     0.000458881109     1.007825032230
         H            0.076271257246    -2.147478011468     0.000353881109     1.007825032230
         H           -2.426206942754     2.152163388532    -0.049476118891     1.007825032230
         H           -2.426205742754    -2.152162011468     0.000404881109     1.007825032230
         H           -3.669748742754    -0.000000011468     0.000484881109     1.007825032230

  Basis Set: AUG-CC-PVTZ
    Blend: AUG-CC-PVTZ
  Basis Set: (AUG-CC-PVTZ AUX)
    Blend: AUG-CC-PVTZ-JKFIT
	 Reference Energy          =    -434.3227586446006399 [Eh]
	 Singles Energy            =      -0.0000000000000000 [Eh]
	 Same-Spin Energy          =      -0.4587075175715670 [Eh]
	 Opposite-Spin Energy      =      -1.3591232403522870 [Eh]
	 Correlation Energy        =      -1.8178307579238542 [Eh]
	 Total Energy              =    -436.1405894025244834 [Eh]

	 ================> DF-SCS-MP2 Energies <==================
	-----------------------------------------------------------
	 SCS Same-Spin Scale       =       0.3333333333333333 [-]
	 SCS Opposite-Spin Scale   =       1.2000000000000000 [-]
	 SCS Same-Spin Energy      =      -0.1529025058571890 [Eh]
	 SCS Opposite-Spin Energy  =      -1.6309478884227444 [Eh]
	 SCS Correlation Energy    =      -1.7838503942799333 [Eh]
	 SCS Total Energy          =    -436.1066090388805492 [Eh]
	-----------------------------------------------------------

  Dipole Moment: [D]
     X:    -4.3585      Y:    -0.0016      Z:    -0.0307     Total:     4.3586

*** Psi4 exiting successfully. Buy a developer a beer!
