                               Psi4 1.3.2 release

  ==> Input File <==

--------------------------------------------------------------------------
#psi4
#
memory 32 gb

molecule  {
0 1
  O        2.2902000     1.1004440    -0.0001310
  O        2.2902000    -1.1004440     0.0000360
  N        1.7133150     0.0000000    -0.0000370
  C        0.2417700     0.0000000    -0.0000090
  C       -0.4248660     1.2226560     0.0000420
  C       -0.4248660    -1.2226560    -0.0000210
  C       -1.8195320     1.2101310     0.0000700
  C       -1.8195320    -1.2101310     0.0000040
  C       -2.5180540     0.0000000     0.0000560
  H        0.1410100     2.1474780     0.0000480
  H        0.1410100    -2.1474780    -0.0000570
  H       -2.3614670     2.1521620     0.0001130
  H       -2.3614670    -2.1521620    -0.0000060
  H       -3.6050152     0.0000068    -0.2499260
units angstrom
no_reorient  #important for SAPT in psi4, default
symmetry c1  #important for SAPT in psi4, default
}

set PROPERTIES_ORIGIN ["COM"]
properties('MP2/aug-cc-pvtz', properties = ['dipole'])
--------------------------------------------------------------------------

    Molecular point group: c1
  Charge       = 0
  Multiplicity = 1
  Basis Set: AUG-CC-PVTZ
    Blend: AUG-CC-PVTZ
  Basis Set: (AUG-CC-PVTZ AUX)
    Blend: AUG-CC-PVTZ-JKFIT

    Orbital Energies [Eh]
    ---------------------

    Doubly Occupied:

       1A    -20.606068     2A    -20.606018     3A    -15.856275
       4A    -11.315203     5A    -11.279064     6A    -11.279044
       7A    -11.278911     8A    -11.269082     9A    -11.269000
      10A     -1.589638    11A     -1.388257    12A     -1.199909
      13A     -1.093731    14A     -1.053290    15A     -0.962103
      16A     -0.866458    17A     -0.829401    18A     -0.778437
      19A     -0.724504    20A     -0.710145    21A     -0.703077
      22A     -0.656004    23A     -0.650806    24A     -0.625830
      25A     -0.556493    26A     -0.533313    27A     -0.532978
      28A     -0.496885    29A     -0.495048    30A     -0.453944
      31A     -0.378360    32A     -0.370232

  @DF-RHF Final Energy:  -434.31858437634503

   => Energetics <=

    Nuclear Repulsion Energy =            411.0210927768391684
    One-Electron Energy =               -1405.8643405997340778
    Two-Electron Energy =                 560.5246634465498801
    Total Energy =                       -434.3185843763450293
  Basis Set: (AUG-CC-PVTZ AUX)
    Blend: AUG-CC-PVTZ-RI
    Molecular point group: c1

    Geometry (in Angstrom), charge = 0, multiplicity = 1:

       Center              X                  Y                   Z               Mass
    ------------   -----------------  -----------------  -----------------  -----------------
         O            2.225461290012     1.100443944297     0.001918194393    15.994914619570
         O            2.225461290012    -1.100444055703     0.002085194393    15.994914619570
         N            1.648576290012    -0.000000055703     0.002012194393    14.003074004430
         C            0.177031290012    -0.000000055703     0.002040194393    12.000000000000
         C           -0.489604709988     1.222655944297     0.002091194393    12.000000000000
         C           -0.489604709988    -1.222656055703     0.002028194393    12.000000000000
         C           -1.884270709988     1.210130944297     0.002119194393    12.000000000000
         C           -1.884270709988    -1.210131055703     0.002053194393    12.000000000000
         C           -2.582792709988    -0.000000055703     0.002105194393    12.000000000000
         H            0.076271290012     2.147477944297     0.002097194393     1.007825032230
         H            0.076271290012    -2.147478055703     0.001992194393     1.007825032230
         H           -2.426205709988     2.152161944297     0.002162194393     1.007825032230
         H           -2.426205709988    -2.152162055703     0.002043194393     1.007825032230
         H           -3.669753909988     0.000006744297    -0.247876805607     1.007825032230

  Basis Set: AUG-CC-PVTZ
    Blend: AUG-CC-PVTZ
  Basis Set: (AUG-CC-PVTZ AUX)
    Blend: AUG-CC-PVTZ-JKFIT
	 Reference Energy          =    -434.3185843763450293 [Eh]
	 Singles Energy            =      -0.0000000000000000 [Eh]
	 Same-Spin Energy          =      -0.4589517334864796 [Eh]
	 Opposite-Spin Energy      =      -1.3597449912884914 [Eh]
	 Correlation Energy        =      -1.8186967247749708 [Eh]
	 Total Energy              =    -436.1372811011199815 [Eh]

	 ================> DF-SCS-MP2 Energies <==================
	-----------------------------------------------------------
	 SCS Same-Spin Scale       =       0.3333333333333333 [-]
	 SCS Opposite-Spin Scale   =       1.2000000000000000 [-]
	 SCS Same-Spin Energy      =      -0.1529839111621598 [Eh]
	 SCS Opposite-Spin Energy  =      -1.6316939895461895 [Eh]
	 SCS Correlation Energy    =      -1.7846779007083493 [Eh]
	 SCS Total Energy          =    -436.1032622770533749 [Eh]
	-----------------------------------------------------------

  Dipole Moment: [D]
     X:    -4.3095      Y:     0.0000      Z:    -0.1595     Total:     4.3125

*** Psi4 exiting successfully. Buy a developer a beer!
