                               Psi4 1.3.2 release

  ==> Input File <==

--------------------------------------------------------------------------
#psi4
#
memory 32 gb

molecule  {
0 1
  O        2.2902000     1.1004440    -0.0001310
  O        2.2902000    -1.1004440     0.0000360
  N        1.7133150     0.0000000    -0.0000370
  C        0.2417700     0.0000000    -0.0000090
  C       -0.4248660     1.2226560     0.0000420
  C       -0.4248649    -1.2226573     0.0499790
  C       -1.8195320     1.2101310     0.0000700
  C       -1.8195320    -1.2101310     0.0000040
  C       -2.5180540     0.0000000     0.0000560
  H        0.1410100     2.1474780     0.0000480
  H        0.1410100    -2.1474780    -0.0000570
  H       -2.3614670     2.1521620     0.0001130
  H       -2.3614670    -2.1521620    -0.0000060
  H       -3.6050100     0.0000000     0.0000740
units angstrom
no_reorient  #important for SAPT in psi4, default
symmetry c1  #important for SAPT in psi4, default
}

set PROPERTIES_ORIGIN ["COM"]
properties('MP2/aug-cc-pvtz', properties = ['dipole'])
--------------------------------------------------------------------------

    Molecular point group: c1
  Charge       = 0
  Multiplicity = 1
  Basis Set: AUG-CC-PVTZ
    Blend: AUG-CC-PVTZ
  Basis Set: (AUG-CC-PVTZ AUX)
    Blend: AUG-CC-PVTZ-JKFIT

    Orbital Energies [Eh]
    ---------------------

    Doubly Occupied:

       1A    -20.605805     2A    -20.605755     3A    -15.856007
       4A    -11.314892     5A    -11.279096     6A    -11.278860
       7A    -11.276429     8A    -11.268818     9A    -11.268669
      10A     -1.589376    11A     -1.388001    12A     -1.199591
      13A     -1.093964    14A     -1.052912    15A     -0.962936
      16A     -0.866154    17A     -0.830164    18A     -0.778106
      19A     -0.724245    20A     -0.709920    21A     -0.707803
      22A     -0.655592    23A     -0.650760    24A     -0.625406
      25A     -0.556272    26A     -0.537352    27A     -0.532371
      28A     -0.496694    29A     -0.494787    30A     -0.453718
      31A     -0.378862    32A     -0.369981

  @DF-RHF Final Energy:  -434.32211677956042

   => Energetics <=

    Nuclear Repulsion Energy =            411.0964066056645834
    One-Electron Energy =               -1406.0184483307814389
    Two-Electron Energy =                 560.5999249455564950
    Total Energy =                       -434.3221167795603606
  Basis Set: (AUG-CC-PVTZ AUX)
    Blend: AUG-CC-PVTZ-RI
    Molecular point group: c1

    Geometry (in Angstrom), charge = 0, multiplicity = 1:

       Center              X                  Y                   Z               Mass
    ------------   -----------------  -----------------  -----------------  -----------------
         O            2.225461140127     1.100444126796    -0.005006476110    15.994914619570
         O            2.225461140127    -1.100443873204    -0.004839476110    15.994914619570
         N            1.648576140127     0.000000126796    -0.004912476110    14.003074004430
         C            0.177031140127     0.000000126796    -0.004884476110    12.000000000000
         C           -0.489604859873     1.222656126796    -0.004833476110    12.000000000000
         C           -0.489603759873    -1.222657173204     0.045103523890    12.000000000000
         C           -1.884270859873     1.210131126796    -0.004805476110    12.000000000000
         C           -1.884270859873    -1.210130873204    -0.004871476110    12.000000000000
         C           -2.582792859873     0.000000126796    -0.004819476110    12.000000000000
         H            0.076271140127     2.147478126796    -0.004827476110     1.007825032230
         H            0.076271140127    -2.147477873204    -0.004932476110     1.007825032230
         H           -2.426205859873     2.152162126796    -0.004762476110     1.007825032230
         H           -2.426205859873    -2.152161873204    -0.004881476110     1.007825032230
         H           -3.669748859873     0.000000126796    -0.004801476110     1.007825032230

  Basis Set: AUG-CC-PVTZ
    Blend: AUG-CC-PVTZ
  Basis Set: (AUG-CC-PVTZ AUX)
    Blend: AUG-CC-PVTZ-JKFIT
	 Reference Energy          =    -434.3221167795604174 [Eh]
	 Singles Energy            =      -0.0000000000000000 [Eh]
	 Same-Spin Energy          =      -0.4587557229868739 [Eh]
	 Opposite-Spin Energy      =      -1.3592551044189434 [Eh]
	 Correlation Energy        =      -1.8180108274058173 [Eh]
	 Total Energy              =    -436.1401276069662458 [Eh]

	 ================> DF-SCS-MP2 Energies <==================
	-----------------------------------------------------------
	 SCS Same-Spin Scale       =       0.3333333333333333 [-]
	 SCS Opposite-Spin Scale   =       1.2000000000000000 [-]
	 SCS Same-Spin Energy      =      -0.1529185743289579 [Eh]
	 SCS Opposite-Spin Energy  =      -1.6311061253027319 [Eh]
	 SCS Correlation Energy    =      -1.7840246996316900 [Eh]
	 SCS Total Energy          =    -436.1061414791921038 [Eh]
	-----------------------------------------------------------

  Dipole Moment: [D]
     X:    -4.3617      Y:     0.0041      Z:    -0.0210     Total:     4.3617

*** Psi4 exiting successfully. Buy a developer a beer!
