                               Psi4 1.3.2 release

  ==> Input File <==

--------------------------------------------------------------------------
#psi4
#
memory 32 gb

molecule  {
0 1
  O        2.2902000     1.1004440    -0.0001310
  O        2.2902000    -1.1004440     0.0000360
  N        1.7133150     0.0000000    -0.0000370
  C        0.2417700     0.0000000    -0.0000090
  C       -0.4248660     1.2226560     0.0000420
  C       -0.4248660    -1.2226560    -0.0000210
  C       -1.8195320     1.2101310     0.0000700
  C       -1.8195320    -1.2101310     0.0000040
  C       -2.5180540     0.0000000     0.0000560
  H        0.1410065     2.1474818    -0.1499520
  H        0.1410100    -2.1474780    -0.0000570
  H       -2.3614670     2.1521620     0.0001130
  H       -2.3614670    -2.1521620    -0.0000060
  H       -3.6050100     0.0000000     0.0000740
units angstrom
no_reorient  #important for SAPT in psi4, default
symmetry c1  #important for SAPT in psi4, default
}

set PROPERTIES_ORIGIN ["COM"]
properties('MP2/aug-cc-pvtz', properties = ['dipole'])
--------------------------------------------------------------------------

    Molecular point group: c1
  Charge       = 0
  Multiplicity = 1
  Basis Set: AUG-CC-PVTZ
    Blend: AUG-CC-PVTZ
  Basis Set: (AUG-CC-PVTZ AUX)
    Blend: AUG-CC-PVTZ-JKFIT

    Orbital Energies [Eh]
    ---------------------

    Doubly Occupied:

       1A    -20.605738     2A    -20.605687     3A    -15.855954
       4A    -11.314824     5A    -11.279708     6A    -11.278930
       7A    -11.276489     8A    -11.268799     9A    -11.268695
      10A     -1.589318    11A     -1.387933    12A     -1.199699
      13A     -1.094007    14A     -1.052832    15A     -0.962873
      16A     -0.865841    17A     -0.830188    18A     -0.777868
      19A     -0.724177    20A     -0.710091    21A     -0.706950
      22A     -0.655818    23A     -0.650389    24A     -0.624768
      25A     -0.556361    26A     -0.538726    27A     -0.530461
      28A     -0.496653    29A     -0.494638    30A     -0.453636
      31A     -0.378943    32A     -0.369888

  @DF-RHF Final Energy:  -434.32140581962631

   => Energetics <=

    Nuclear Repulsion Energy =            411.0821407297903534
    One-Electron Energy =               -1405.9933287996284434
    Two-Electron Energy =                 560.5897822502117833
    Total Energy =                       -434.3214058196263068
  Basis Set: (AUG-CC-PVTZ AUX)
    Blend: AUG-CC-PVTZ-RI
    Molecular point group: c1

    Geometry (in Angstrom), charge = 0, multiplicity = 1:

       Center              X                  Y                   Z               Mass
    ------------   -----------------  -----------------  -----------------  -----------------
         O            2.225461276087     1.100443968872     0.001099037751    15.994914619570
         O            2.225461276087    -1.100444031128     0.001266037751    15.994914619570
         N            1.648576276087    -0.000000031128     0.001193037751    14.003074004430
         C            0.177031276087    -0.000000031128     0.001221037751    12.000000000000
         C           -0.489604723913     1.222655968872     0.001272037751    12.000000000000
         C           -0.489604723913    -1.222656031128     0.001209037751    12.000000000000
         C           -1.884270723913     1.210130968872     0.001300037751    12.000000000000
         C           -1.884270723913    -1.210131031128     0.001234037751    12.000000000000
         C           -2.582792723913    -0.000000031128     0.001286037751    12.000000000000
         H            0.076267776087     2.147481768872    -0.148721962249     1.007825032230
         H            0.076271276087    -2.147478031128     0.001173037751     1.007825032230
         H           -2.426205723913     2.152161968872     0.001343037751     1.007825032230
         H           -2.426205723913    -2.152162031128     0.001224037751     1.007825032230
         H           -3.669748723913    -0.000000031128     0.001304037751     1.007825032230

  Basis Set: AUG-CC-PVTZ
    Blend: AUG-CC-PVTZ
  Basis Set: (AUG-CC-PVTZ AUX)
    Blend: AUG-CC-PVTZ-JKFIT
	 Reference Energy          =    -434.3214058196263068 [Eh]
	 Singles Energy            =      -0.0000000000000000 [Eh]
	 Same-Spin Energy          =      -0.4588097516458182 [Eh]
	 Opposite-Spin Energy      =      -1.3593162413748976 [Eh]
	 Correlation Energy        =      -1.8181259930207156 [Eh]
	 Total Energy              =    -436.1395318126470215 [Eh]

	 ================> DF-SCS-MP2 Energies <==================
	-----------------------------------------------------------
	 SCS Same-Spin Scale       =       0.3333333333333333 [-]
	 SCS Opposite-Spin Scale   =       1.2000000000000000 [-]
	 SCS Same-Spin Energy      =      -0.1529365838819394 [Eh]
	 SCS Opposite-Spin Energy  =      -1.6311794896498770 [Eh]
	 SCS Correlation Energy    =      -1.7841160735318164 [Eh]
	 SCS Total Energy          =    -436.1055218931581408 [Eh]
	-----------------------------------------------------------

  Dipole Moment: [D]
     X:    -4.3675      Y:    -0.0101      Z:    -0.1014     Total:     4.3687

*** Psi4 exiting successfully. Buy a developer a beer!
