                               Psi4 1.3.2 release

  ==> Input File <==

--------------------------------------------------------------------------
#psi4
#
memory 32 gb

molecule  {
0 1
  O        2.2902000     1.1004440    -0.0001310
  O        2.2902000    -1.1004440     0.0000360
  N        1.7133150     0.0000000    -0.0000370
  C        0.2417700     0.0000000    -0.0000090
  C       -0.4248660     1.2226560     0.0000420
  C       -0.4248660    -1.2226560    -0.0000210
  C       -1.8195320     1.2101310     0.0000700
  C       -1.8195320    -1.2101310     0.0000040
  C       -2.5180540     0.0000000     0.0000560
  H        0.1410100     2.1474780     0.0000480
  H        0.1410100    -2.1474780    -0.0000570
  H       -2.3614670     2.1521620     0.0001130
  H       -2.3614670    -2.1521620    -0.0000060
  H       -3.6050131     0.0000041    -0.1499260
units angstrom
no_reorient  #important for SAPT in psi4, default
symmetry c1  #important for SAPT in psi4, default
}

set PROPERTIES_ORIGIN ["COM"]
properties('MP2/aug-cc-pvtz', properties = ['dipole'])
--------------------------------------------------------------------------

    Molecular point group: c1
  Charge       = 0
  Multiplicity = 1
  Basis Set: AUG-CC-PVTZ
    Blend: AUG-CC-PVTZ
  Basis Set: (AUG-CC-PVTZ AUX)
    Blend: AUG-CC-PVTZ-JKFIT

    Orbital Energies [Eh]
    ---------------------

    Doubly Occupied:

       1A    -20.605895     2A    -20.605846     3A    -15.856112
       4A    -11.314898     5A    -11.278965     6A    -11.278928
       7A    -11.277361     8A    -11.268797     9A    -11.268704
      10A     -1.589471    11A     -1.388094    12A     -1.199774
      13A     -1.093887    14A     -1.053121    15A     -0.962643
      16A     -0.866318    17A     -0.829935    18A     -0.778287
      19A     -0.724351    20A     -0.709978    21A     -0.706169
      22A     -0.655864    23A     -0.650822    24A     -0.625693
      25A     -0.556437    26A     -0.535826    27A     -0.532812
      28A     -0.496768    29A     -0.494890    30A     -0.453807
      31A     -0.378729    32A     -0.370091

  @DF-RHF Final Energy:  -434.32143490745165

   => Energetics <=

    Nuclear Repulsion Energy =            411.0876872649554343
    One-Electron Energy =               -1405.9996998167152924
    Two-Electron Energy =                 560.5905776443082686
    Total Energy =                       -434.3214349074515894
  Basis Set: (AUG-CC-PVTZ AUX)
    Blend: AUG-CC-PVTZ-RI
    Molecular point group: c1

    Geometry (in Angstrom), charge = 0, multiplicity = 1:

       Center              X                  Y                   Z               Mass
    ------------   -----------------  -----------------  -----------------  -----------------
         O            2.225461272810     1.100443966415     0.001099037751    15.994914619570
         O            2.225461272810    -1.100444033585     0.001266037751    15.994914619570
         N            1.648576272810    -0.000000033585     0.001193037751    14.003074004430
         C            0.177031272810    -0.000000033585     0.001221037751    12.000000000000
         C           -0.489604727190     1.222655966415     0.001272037751    12.000000000000
         C           -0.489604727190    -1.222656033585     0.001209037751    12.000000000000
         C           -1.884270727190     1.210130966415     0.001300037751    12.000000000000
         C           -1.884270727190    -1.210131033585     0.001234037751    12.000000000000
         C           -2.582792727190    -0.000000033585     0.001286037751    12.000000000000
         H            0.076271272810     2.147477966415     0.001278037751     1.007825032230
         H            0.076271272810    -2.147478033585     0.001173037751     1.007825032230
         H           -2.426205727190     2.152161966415     0.001343037751     1.007825032230
         H           -2.426205727190    -2.152162033585     0.001224037751     1.007825032230
         H           -3.669751827190     0.000004066415    -0.148695962249     1.007825032230

  Basis Set: AUG-CC-PVTZ
    Blend: AUG-CC-PVTZ
  Basis Set: (AUG-CC-PVTZ AUX)
    Blend: AUG-CC-PVTZ-JKFIT
	 Reference Energy          =    -434.3214349074516463 [Eh]
	 Singles Energy            =      -0.0000000000000000 [Eh]
	 Same-Spin Energy          =      -0.4587928613245195 [Eh]
	 Opposite-Spin Energy      =      -1.3593311148621847 [Eh]
	 Correlation Energy        =      -1.8181239761867043 [Eh]
	 Total Energy              =    -436.1395588836383581 [Eh]

	 ================> DF-SCS-MP2 Energies <==================
	-----------------------------------------------------------
	 SCS Same-Spin Scale       =       0.3333333333333333 [-]
	 SCS Opposite-Spin Scale   =       1.2000000000000000 [-]
	 SCS Same-Spin Energy      =      -0.1529309537748398 [Eh]
	 SCS Opposite-Spin Energy  =      -1.6311973378346216 [Eh]
	 SCS Correlation Energy    =      -1.7841282916094614 [Eh]
	 SCS Total Energy          =    -436.1055631990611232 [Eh]
	-----------------------------------------------------------

  Dipole Moment: [D]
     X:    -4.3414      Y:     0.0000      Z:    -0.0966     Total:     4.3424

*** Psi4 exiting successfully. Buy a developer a beer!
