                               Psi4 1.3.2 release

  ==> Input File <==

--------------------------------------------------------------------------
#psi4
#
memory 32 gb

molecule  {
0 1
  O        2.2902000     1.1004440    -0.0001310
  O        2.2902000    -1.1004440     0.0000360
  N        1.7133150     0.0000000    -0.0000370
  C        0.2417662    -0.0000152    -0.2000090
  C       -0.4248660     1.2226560     0.0000420
  C       -0.4248660    -1.2226560    -0.0000210
  C       -1.8195320     1.2101310     0.0000700
  C       -1.8195320    -1.2101310     0.0000040
  C       -2.5180540     0.0000000     0.0000560
  H        0.1410100     2.1474780     0.0000480
  H        0.1410100    -2.1474780    -0.0000570
  H       -2.3614670     2.1521620     0.0001130
  H       -2.3614670    -2.1521620    -0.0000060
  H       -3.6050100     0.0000000     0.0000740
units angstrom
no_reorient  #important for SAPT in psi4, default
symmetry c1  #important for SAPT in psi4, default
}

set PROPERTIES_ORIGIN ["COM"]
properties('MP2/aug-cc-pvtz', properties = ['dipole'])
--------------------------------------------------------------------------

    Molecular point group: c1
  Charge       = 0
  Multiplicity = 1
  Basis Set: AUG-CC-PVTZ
    Blend: AUG-CC-PVTZ
  Basis Set: (AUG-CC-PVTZ AUX)
    Blend: AUG-CC-PVTZ-JKFIT

    Orbital Energies [Eh]
    ---------------------

    Doubly Occupied:

       1A    -20.604516     2A    -20.604467     3A    -15.854405
       4A    -11.316980     5A    -11.282158     6A    -11.282123
       7A    -11.278672     8A    -11.268410     9A    -11.268330
      10A     -1.587197    11A     -1.386469    12A     -1.197426
      13A     -1.091114    14A     -1.052521    15A     -0.959330
      16A     -0.863577    17A     -0.829858    18A     -0.775417
      19A     -0.722560    20A     -0.710790    21A     -0.705265
      22A     -0.653298    23A     -0.651219    24A     -0.625559
      25A     -0.557416    26A     -0.535525    27A     -0.531787
      28A     -0.493793    29A     -0.492764    30A     -0.452532
      31A     -0.379217    32A     -0.368768

  @DF-RHF Final Energy:  -434.31030189438093

   => Energetics <=

    Nuclear Repulsion Energy =            410.5397606707772979
    One-Electron Energy =               -1404.9332013067130447
    Two-Electron Energy =                 560.0831387415548761
    Total Energy =                       -434.3103018943809275
  Basis Set: (AUG-CC-PVTZ AUX)
    Blend: AUG-CC-PVTZ-RI
    Molecular point group: c1

    Geometry (in Angstrom), charge = 0, multiplicity = 1:

       Center              X                  Y                   Z               Mass
    ------------   -----------------  -----------------  -----------------  -----------------
         O            2.225461618052     1.100445482541     0.019377418384    15.994914619570
         O            2.225461618052    -1.100442517459     0.019544418384    15.994914619570
         N            1.648576618052     0.000001482541     0.019471418384    14.003074004430
         C            0.177027818052    -0.000013717459    -0.180500581616    12.000000000000
         C           -0.489604381948     1.222657482541     0.019550418384    12.000000000000
         C           -0.489604381948    -1.222654517459     0.019487418384    12.000000000000
         C           -1.884270381948     1.210132482541     0.019578418384    12.000000000000
         C           -1.884270381948    -1.210129517459     0.019512418384    12.000000000000
         C           -2.582792381948     0.000001482541     0.019564418384    12.000000000000
         H            0.076271618052     2.147479482541     0.019556418384     1.007825032230
         H            0.076271618052    -2.147476517459     0.019451418384     1.007825032230
         H           -2.426205381948     2.152163482541     0.019621418384     1.007825032230
         H           -2.426205381948    -2.152160517459     0.019502418384     1.007825032230
         H           -3.669748381948     0.000001482541     0.019582418384     1.007825032230

  Basis Set: AUG-CC-PVTZ
    Blend: AUG-CC-PVTZ
  Basis Set: (AUG-CC-PVTZ AUX)
    Blend: AUG-CC-PVTZ-JKFIT
	 Reference Energy          =    -434.3103018943809275 [Eh]
	 Singles Energy            =      -0.0000000000000000 [Eh]
	 Same-Spin Energy          =      -0.4590637038146971 [Eh]
	 Opposite-Spin Energy      =      -1.3606182416056889 [Eh]
	 Correlation Energy        =      -1.8196819454203861 [Eh]
	 Total Energy              =    -436.1299838398012980 [Eh]

	 ================> DF-SCS-MP2 Energies <==================
	-----------------------------------------------------------
	 SCS Same-Spin Scale       =       0.3333333333333333 [-]
	 SCS Opposite-Spin Scale   =       1.2000000000000000 [-]
	 SCS Same-Spin Energy      =      -0.1530212346048990 [Eh]
	 SCS Opposite-Spin Energy  =      -1.6327418899268267 [Eh]
	 SCS Correlation Energy    =      -1.7857631245317256 [Eh]
	 SCS Total Energy          =    -436.0960650189126682 [Eh]
	-----------------------------------------------------------

  Dipole Moment: [D]
     X:    -4.4127      Y:    -0.0000      Z:    -0.0584     Total:     4.4131

*** Psi4 exiting successfully. Buy a developer a beer!
