                               Psi4 1.3.2 release

  ==> Input File <==

--------------------------------------------------------------------------
#psi4
#
memory 32 gb

molecule  {
0 1
  O        2.2902000     1.1004440    -0.0001310
  O        2.2902000    -1.1004440     0.0000360
  N        1.7133150     0.0000000    -0.0000370
  C        0.2417700     0.0000000    -0.0000090
  C       -0.4248660     1.2226560     0.0000420
  C       -0.4248660    -1.2226560    -0.0000210
  C       -1.8195320     1.2101310     0.0000700
  C       -1.8195320    -1.2101310     0.0000040
  C       -2.5180540     0.0000000     0.0000560
  H        0.1410100     2.1474780     0.0000480
  H        0.1410100    -2.1474780    -0.0000570
  H       -2.3614739     2.1521705    -0.2998870
  H       -2.3614670    -2.1521620    -0.0000060
  H       -3.6050100     0.0000000     0.0000740
units angstrom
no_reorient  #important for SAPT in psi4, default
symmetry c1  #important for SAPT in psi4, default
}

set PROPERTIES_ORIGIN ["COM"]
properties('MP2/aug-cc-pvtz', properties = ['dipole'])
--------------------------------------------------------------------------

    Molecular point group: c1
  Charge       = 0
  Multiplicity = 1
  Basis Set: AUG-CC-PVTZ
    Blend: AUG-CC-PVTZ
  Basis Set: (AUG-CC-PVTZ AUX)
    Blend: AUG-CC-PVTZ-JKFIT

    Orbital Energies [Eh]
    ---------------------

    Doubly Occupied:

       1A    -20.606041     2A    -20.605990     3A    -15.856262
       4A    -11.315027     5A    -11.279694     6A    -11.279623
       7A    -11.277137     8A    -11.272001     9A    -11.268869
      10A     -1.589622    11A     -1.388246    12A     -1.200031
      13A     -1.094028    14A     -1.052554    15A     -0.963291
      16A     -0.864713    17A     -0.829592    18A     -0.776835
      19A     -0.724452    20A     -0.710143    21A     -0.708436
      22A     -0.656130    23A     -0.646957    24A     -0.622904
      25A     -0.556760    26A     -0.541934    27A     -0.524771
      28A     -0.496633    29A     -0.495053    30A     -0.453959
      31A     -0.379007    32A     -0.369601

  @DF-RHF Final Energy:  -434.31659511148268

   => Energetics <=

    Nuclear Repulsion Energy =            410.9750158812252607
    One-Electron Energy =               -1405.7706348679801067
    Two-Electron Energy =                 560.4790238752721052
    Total Energy =                       -434.3165951114826839
  Basis Set: (AUG-CC-PVTZ AUX)
    Blend: AUG-CC-PVTZ-RI
    Molecular point group: c1

    Geometry (in Angstrom), charge = 0, multiplicity = 1:

       Center              X                  Y                   Z               Mass
    ------------   -----------------  -----------------  -----------------  -----------------
         O            2.225461303938     1.100443930372     0.002327772714    15.994914619570
         O            2.225461303938    -1.100444069628     0.002494772714    15.994914619570
         N            1.648576303938    -0.000000069628     0.002421772714    14.003074004430
         C            0.177031303938    -0.000000069628     0.002449772714    12.000000000000
         C           -0.489604696062     1.222655930372     0.002500772714    12.000000000000
         C           -0.489604696062    -1.222656069628     0.002437772714    12.000000000000
         C           -1.884270696062     1.210130930372     0.002528772714    12.000000000000
         C           -1.884270696062    -1.210131069628     0.002462772714    12.000000000000
         C           -2.582792696062    -0.000000069628     0.002514772714    12.000000000000
         H            0.076271303938     2.147477930372     0.002506772714     1.007825032230
         H            0.076271303938    -2.147478069628     0.002401772714     1.007825032230
         H           -2.426212596062     2.152170430372    -0.297428227286     1.007825032230
         H           -2.426205696062    -2.152162069628     0.002452772714     1.007825032230
         H           -3.669748696062    -0.000000069628     0.002532772714     1.007825032230

  Basis Set: AUG-CC-PVTZ
    Blend: AUG-CC-PVTZ
  Basis Set: (AUG-CC-PVTZ AUX)
    Blend: AUG-CC-PVTZ-JKFIT
	 Reference Energy          =    -434.3165951114826839 [Eh]
	 Singles Energy            =      -0.0000000000000000 [Eh]
	 Same-Spin Energy          =      -0.4589817932077214 [Eh]
	 Opposite-Spin Energy      =      -1.3598832962977161 [Eh]
	 Correlation Energy        =      -1.8188650895054375 [Eh]
	 Total Energy              =    -436.1354602009881205 [Eh]

	 ================> DF-SCS-MP2 Energies <==================
	-----------------------------------------------------------
	 SCS Same-Spin Scale       =       0.3333333333333333 [-]
	 SCS Opposite-Spin Scale   =       1.2000000000000000 [-]
	 SCS Same-Spin Energy      =      -0.1529939310692405 [Eh]
	 SCS Opposite-Spin Energy  =      -1.6318599555572593 [Eh]
	 SCS Correlation Energy    =      -1.7848538866264998 [Eh]
	 SCS Total Energy          =    -436.1014489981091629 [Eh]
	-----------------------------------------------------------

  Dipole Moment: [D]
     X:    -4.3209      Y:    -0.0557      Z:    -0.1812     Total:     4.3250

*** Psi4 exiting successfully. Buy a developer a beer!
