                               Psi4 1.3.2 release

  ==> Input File <==

--------------------------------------------------------------------------
#psi4
#
memory 32 gb

molecule  {
0 1
  O        2.2902000     1.1004440    -0.0001310
  O        2.2902000    -1.1004440     0.0000360
  N        1.7133150     0.0000000    -0.0000370
  C        0.2417691    -0.0000038    -0.0500090
  C       -0.4248660     1.2226560     0.0000420
  C       -0.4248660    -1.2226560    -0.0000210
  C       -1.8195320     1.2101310     0.0000700
  C       -1.8195320    -1.2101310     0.0000040
  C       -2.5180540     0.0000000     0.0000560
  H        0.1410100     2.1474780     0.0000480
  H        0.1410100    -2.1474780    -0.0000570
  H       -2.3614670     2.1521620     0.0001130
  H       -2.3614670    -2.1521620    -0.0000060
  H       -3.6050100     0.0000000     0.0000740
units angstrom
no_reorient  #important for SAPT in psi4, default
symmetry c1  #important for SAPT in psi4, default
}

set PROPERTIES_ORIGIN ["COM"]
properties('MP2/aug-cc-pvtz', properties = ['dipole'])
--------------------------------------------------------------------------

    Molecular point group: c1
  Charge       = 0
  Multiplicity = 1
  Basis Set: AUG-CC-PVTZ
    Blend: AUG-CC-PVTZ
  Basis Set: (AUG-CC-PVTZ AUX)
    Blend: AUG-CC-PVTZ-JKFIT

    Orbital Energies [Eh]
    ---------------------

    Doubly Occupied:

       1A    -20.605719     2A    -20.605670     3A    -15.855922
       4A    -11.314871     5A    -11.279115     6A    -11.279078
       7A    -11.276598     8A    -11.268621     9A    -11.268522
      10A     -1.589240    11A     -1.387907    12A     -1.199553
      13A     -1.093805    14A     -1.052991    15A     -0.962737
      16A     -0.866066    17A     -0.830242    18A     -0.778029
      19A     -0.724159    20A     -0.709971    21A     -0.707794
      22A     -0.655626    23A     -0.650853    24A     -0.625616
      25A     -0.556398    26A     -0.537190    27A     -0.532665
      28A     -0.496452    29A     -0.494739    30A     -0.453655
      31A     -0.378957    32A     -0.369930

  @DF-RHF Final Energy:  -434.32213094322157

   => Energetics <=

    Nuclear Repulsion Energy =            411.0891978273943437
    One-Electron Energy =               -1406.0052714790417667
    Two-Electron Energy =                 560.5939427084257431
    Total Energy =                       -434.3221309432216231
  Basis Set: (AUG-CC-PVTZ AUX)
    Blend: AUG-CC-PVTZ-RI
    Molecular point group: c1

    Geometry (in Angstrom), charge = 0, multiplicity = 1:

       Center              X                  Y                   Z               Mass
    ------------   -----------------  -----------------  -----------------  -----------------
         O            2.225461335198     1.100444370635     0.004747081687    15.994914619570
         O            2.225461335198    -1.100443629365     0.004914081687    15.994914619570
         N            1.648576335198     0.000000370635     0.004841081687    14.003074004430
         C            0.177030435198    -0.000003429365    -0.045130918313    12.000000000000
         C           -0.489604664802     1.222656370635     0.004920081687    12.000000000000
         C           -0.489604664802    -1.222655629365     0.004857081687    12.000000000000
         C           -1.884270664802     1.210131370635     0.004948081687    12.000000000000
         C           -1.884270664802    -1.210130629365     0.004882081687    12.000000000000
         C           -2.582792664802     0.000000370635     0.004934081687    12.000000000000
         H            0.076271335198     2.147478370635     0.004926081687     1.007825032230
         H            0.076271335198    -2.147477629365     0.004821081687     1.007825032230
         H           -2.426205664802     2.152162370635     0.004991081687     1.007825032230
         H           -2.426205664802    -2.152161629365     0.004872081687     1.007825032230
         H           -3.669748664802     0.000000370635     0.004952081687     1.007825032230

  Basis Set: AUG-CC-PVTZ
    Blend: AUG-CC-PVTZ
  Basis Set: (AUG-CC-PVTZ AUX)
    Blend: AUG-CC-PVTZ-JKFIT
	 Reference Energy          =    -434.3221309432215662 [Eh]
	 Singles Energy            =      -0.0000000000000000 [Eh]
	 Same-Spin Energy          =      -0.4587287067678373 [Eh]
	 Opposite-Spin Energy      =      -1.3592135708945341 [Eh]
	 Correlation Energy        =      -1.8179422776623713 [Eh]
	 Total Energy              =    -436.1400732208839486 [Eh]

	 ================> DF-SCS-MP2 Energies <==================
	-----------------------------------------------------------
	 SCS Same-Spin Scale       =       0.3333333333333333 [-]
	 SCS Opposite-Spin Scale   =       1.2000000000000000 [-]
	 SCS Same-Spin Energy      =      -0.1529095689226124 [Eh]
	 SCS Opposite-Spin Energy  =      -1.6310562850734409 [Eh]
	 SCS Correlation Energy    =      -1.7839658539960532 [Eh]
	 SCS Total Energy          =    -436.1060967972176172 [Eh]
	-----------------------------------------------------------

  Dipole Moment: [D]
     X:    -4.3631      Y:    -0.0000      Z:    -0.0156     Total:     4.3631

*** Psi4 exiting successfully. Buy a developer a beer!
