                               Psi4 1.3.2 release

  ==> Input File <==

--------------------------------------------------------------------------
#psi4
#
memory 32 gb

molecule  {
0 1
  O        2.2902000     1.1004440    -0.0001310
  O        2.2902000    -1.1004440     0.0000360
  N        1.7133150     0.0000000    -0.0000370
  C        0.2417700     0.0000000    -0.0000090
  C       -0.4248660     1.2226560     0.0000420
  C       -0.4248638    -1.2226586     0.0999790
  C       -1.8195320     1.2101310     0.0000700
  C       -1.8195320    -1.2101310     0.0000040
  C       -2.5180540     0.0000000     0.0000560
  H        0.1410100     2.1474780     0.0000480
  H        0.1410100    -2.1474780    -0.0000570
  H       -2.3614670     2.1521620     0.0001130
  H       -2.3614670    -2.1521620    -0.0000060
  H       -3.6050100     0.0000000     0.0000740
units angstrom
no_reorient  #important for SAPT in psi4, default
symmetry c1  #important for SAPT in psi4, default
}

set PROPERTIES_ORIGIN ["COM"]
properties('MP2/aug-cc-pvtz', properties = ['dipole'])
--------------------------------------------------------------------------

    Molecular point group: c1
  Charge       = 0
  Multiplicity = 1
  Basis Set: AUG-CC-PVTZ
    Blend: AUG-CC-PVTZ
  Basis Set: (AUG-CC-PVTZ AUX)
    Blend: AUG-CC-PVTZ-JKFIT

    Orbital Energies [Eh]
    ---------------------

    Doubly Occupied:

       1A    -20.605829     2A    -20.605778     3A    -15.855972
       4A    -11.315393     5A    -11.279703     6A    -11.278778
       7A    -11.276326     8A    -11.269432     9A    -11.268992
      10A     -1.589380    11A     -1.387999    12A     -1.199269
      13A     -1.093905    14A     -1.052570    15A     -0.962831
      16A     -0.865900    17A     -0.829864    18A     -0.777819
      19A     -0.724187    20A     -0.710022    21A     -0.707242
      22A     -0.655029    23A     -0.650541    24A     -0.624771
      25A     -0.556093    26A     -0.537436    27A     -0.531382
      28A     -0.496683    29A     -0.494747    30A     -0.453689
      31A     -0.378620    32A     -0.369887

  @DF-RHF Final Energy:  -434.31970353724506

   => Energetics <=

    Nuclear Repulsion Energy =            411.0070933663348569
    One-Electron Energy =               -1405.8414577132739396
    Two-Electron Energy =                 560.5146608096940781
    Total Energy =                       -434.3197035372450046
  Basis Set: (AUG-CC-PVTZ AUX)
    Blend: AUG-CC-PVTZ-RI
    Molecular point group: c1

    Geometry (in Angstrom), charge = 0, multiplicity = 1:

       Center              X                  Y                   Z               Mass
    ------------   -----------------  -----------------  -----------------  -----------------
         O            2.225461032838     1.100444253593    -0.009883255009    15.994914619570
         O            2.225461032838    -1.100443746407    -0.009716255009    15.994914619570
         N            1.648576032838     0.000000253593    -0.009789255009    14.003074004430
         C            0.177031032838     0.000000253593    -0.009761255009    12.000000000000
         C           -0.489604967162     1.222656253593    -0.009710255009    12.000000000000
         C           -0.489602767162    -1.222658346407     0.090226744991    12.000000000000
         C           -1.884270967162     1.210131253593    -0.009682255009    12.000000000000
         C           -1.884270967162    -1.210130746407    -0.009748255009    12.000000000000
         C           -2.582792967162     0.000000253593    -0.009696255009    12.000000000000
         H            0.076271032838     2.147478253593    -0.009704255009     1.007825032230
         H            0.076271032838    -2.147477746407    -0.009809255009     1.007825032230
         H           -2.426205967162     2.152162253593    -0.009639255009     1.007825032230
         H           -2.426205967162    -2.152161746407    -0.009758255009     1.007825032230
         H           -3.669748967162     0.000000253593    -0.009678255009     1.007825032230

  Basis Set: AUG-CC-PVTZ
    Blend: AUG-CC-PVTZ
  Basis Set: (AUG-CC-PVTZ AUX)
    Blend: AUG-CC-PVTZ-JKFIT
	 Reference Energy          =    -434.3197035372450614 [Eh]
	 Singles Energy            =      -0.0000000000000000 [Eh]
	 Same-Spin Energy          =      -0.4589094743804589 [Eh]
	 Opposite-Spin Energy      =      -1.3596679963000544 [Eh]
	 Correlation Energy        =      -1.8185774706805133 [Eh]
	 Total Energy              =    -436.1382810079255705 [Eh]

	 ================> DF-SCS-MP2 Energies <==================
	-----------------------------------------------------------
	 SCS Same-Spin Scale       =       0.3333333333333333 [-]
	 SCS Opposite-Spin Scale   =       1.2000000000000000 [-]
	 SCS Same-Spin Energy      =      -0.1529698247934863 [Eh]
	 SCS Opposite-Spin Energy  =      -1.6316015955600653 [Eh]
	 SCS Correlation Energy    =      -1.7845714203535517 [Eh]
	 SCS Total Energy          =    -436.1042749575985908 [Eh]
	-----------------------------------------------------------

  Dipole Moment: [D]
     X:    -4.3674      Y:     0.0162      Z:    -0.0428     Total:     4.3676

*** Psi4 exiting successfully. Buy a developer a beer!
