                               Psi4 1.3.2 release

  ==> Input File <==

--------------------------------------------------------------------------
#psi4
#
memory 32 gb

molecule  {
0 1
  O        2.2902000     1.1004440    -0.0001310
  O        2.2902000    -1.1004440     0.0000360
  N        1.7133150     0.0000000    -0.0000370
  C        0.2417700     0.0000000    -0.0000090
  C       -0.4248660     1.2226560     0.0000420
  C       -0.4248660    -1.2226560    -0.0000210
  C       -1.8195320     1.2101310     0.0000700
  C       -1.8195320    -1.2101310     0.0000040
  C       -2.5180540     0.0000000     0.0000560
  H        0.1410100     2.1474780     0.0000480
  H        0.1410100    -2.1474780    -0.0000570
  H       -2.3614693     2.1521648    -0.0998870
  H       -2.3614670    -2.1521620    -0.0000060
  H       -3.6050100     0.0000000     0.0000740
units angstrom
no_reorient  #important for SAPT in psi4, default
symmetry c1  #important for SAPT in psi4, default
}

set PROPERTIES_ORIGIN ["COM"]
properties('MP2/aug-cc-pvtz', properties = ['dipole'])
--------------------------------------------------------------------------

    Molecular point group: c1
  Charge       = 0
  Multiplicity = 1
  Basis Set: AUG-CC-PVTZ
    Blend: AUG-CC-PVTZ
  Basis Set: (AUG-CC-PVTZ AUX)
    Blend: AUG-CC-PVTZ-JKFIT

    Orbital Energies [Eh]
    ---------------------

    Doubly Occupied:

       1A    -20.605825     2A    -20.605775     3A    -15.856047
       4A    -11.314759     5A    -11.278999     6A    -11.278960
       7A    -11.276539     8A    -11.268987     9A    -11.268614
      10A     -1.589404    11A     -1.388030    12A     -1.199737
      13A     -1.093988    14A     -1.052970    15A     -0.963008
      16A     -0.866047    17A     -0.830186    18A     -0.778040
      19A     -0.724286    20A     -0.709906    21A     -0.708056
      22A     -0.655826    23A     -0.650330    24A     -0.625354
      25A     -0.556386    26A     -0.538385    27A     -0.531274
      28A     -0.496696    29A     -0.494830    30A     -0.453755
      31A     -0.378950    32A     -0.369968

  @DF-RHF Final Energy:  -434.32228222462965

   => Energetics <=

    Nuclear Repulsion Energy =            411.1088325075057810
    One-Electron Energy =               -1406.0423941592537176
    Two-Electron Energy =                 560.6112794271183475
    Total Energy =                       -434.3222822246295891
  Basis Set: (AUG-CC-PVTZ AUX)
    Blend: AUG-CC-PVTZ-RI
    Molecular point group: c1

    Geometry (in Angstrom), charge = 0, multiplicity = 1:

       Center              X                  Y                   Z               Mass
    ------------   -----------------  -----------------  -----------------  -----------------
         O            2.225461266257     1.100443977064     0.000689459430    15.994914619570
         O            2.225461266257    -1.100444022936     0.000856459430    15.994914619570
         N            1.648576266257    -0.000000022936     0.000783459430    14.003074004430
         C            0.177031266257    -0.000000022936     0.000811459430    12.000000000000
         C           -0.489604733743     1.222655977064     0.000862459430    12.000000000000
         C           -0.489604733743    -1.222656022936     0.000799459430    12.000000000000
         C           -1.884270733743     1.210130977064     0.000890459430    12.000000000000
         C           -1.884270733743    -1.210131022936     0.000824459430    12.000000000000
         C           -2.582792733743    -0.000000022936     0.000876459430    12.000000000000
         H            0.076271266257     2.147477977064     0.000868459430     1.007825032230
         H            0.076271266257    -2.147478022936     0.000763459430     1.007825032230
         H           -2.426208033743     2.152164777064    -0.099066540570     1.007825032230
         H           -2.426205733743    -2.152162022936     0.000814459430     1.007825032230
         H           -3.669748733743    -0.000000022936     0.000894459430     1.007825032230

  Basis Set: AUG-CC-PVTZ
    Blend: AUG-CC-PVTZ
  Basis Set: (AUG-CC-PVTZ AUX)
    Blend: AUG-CC-PVTZ-JKFIT
	 Reference Energy          =    -434.3222822246296460 [Eh]
	 Singles Energy            =      -0.0000000000000000 [Eh]
	 Same-Spin Energy          =      -0.4587328166228327 [Eh]
	 Opposite-Spin Energy      =      -1.3591856928299082 [Eh]
	 Correlation Energy        =      -1.8179185094527410 [Eh]
	 Total Energy              =    -436.1402007340823843 [Eh]

	 ================> DF-SCS-MP2 Energies <==================
	-----------------------------------------------------------
	 SCS Same-Spin Scale       =       0.3333333333333333 [-]
	 SCS Opposite-Spin Scale   =       1.2000000000000000 [-]
	 SCS Same-Spin Energy      =      -0.1529109388742776 [Eh]
	 SCS Opposite-Spin Energy  =      -1.6310228313958899 [Eh]
	 SCS Correlation Energy    =      -1.7839337702701674 [Eh]
	 SCS Total Energy          =    -436.1062159948997987 [Eh]
	-----------------------------------------------------------

  Dipole Moment: [D]
     X:    -4.3552      Y:    -0.0064      Z:    -0.0613     Total:     4.3557

*** Psi4 exiting successfully. Buy a developer a beer!
