                               Psi4 1.3.2 release

  ==> Input File <==

--------------------------------------------------------------------------
#psi4
#
memory 32 gb

molecule  {
0 1
  O        2.2902000     1.1004440    -0.0001310
  O        2.2902000    -1.1004440     0.0000360
  N        1.7133150     0.0000000    -0.0000370
  C        0.2417700     0.0000000    -0.0000090
  C       -0.4248660     1.2226560     0.0000420
  C       -0.4248616    -1.2226612     0.1999790
  C       -1.8195320     1.2101310     0.0000700
  C       -1.8195320    -1.2101310     0.0000040
  C       -2.5180540     0.0000000     0.0000560
  H        0.1410100     2.1474780     0.0000480
  H        0.1410100    -2.1474780    -0.0000570
  H       -2.3614670     2.1521620     0.0001130
  H       -2.3614670    -2.1521620    -0.0000060
  H       -3.6050100     0.0000000     0.0000740
units angstrom
no_reorient  #important for SAPT in psi4, default
symmetry c1  #important for SAPT in psi4, default
}

set PROPERTIES_ORIGIN ["COM"]
properties('MP2/aug-cc-pvtz', properties = ['dipole'])
--------------------------------------------------------------------------

    Molecular point group: c1
  Charge       = 0
  Multiplicity = 1
  Basis Set: AUG-CC-PVTZ
    Blend: AUG-CC-PVTZ
  Basis Set: (AUG-CC-PVTZ AUX)
    Blend: AUG-CC-PVTZ-JKFIT

    Orbital Energies [Eh]
    ---------------------

    Doubly Occupied:

       1A    -20.605957     2A    -20.605892     3A    -15.855868
       4A    -11.317403     5A    -11.282104     6A    -11.278518
       7A    -11.276007     8A    -11.271925     9A    -11.270294
      10A     -1.589420    11A     -1.388019    12A     -1.198062
      13A     -1.093730    14A     -1.051250    15A     -0.962429
      16A     -0.864975    17A     -0.828758    18A     -0.776801
      19A     -0.723992    20A     -0.710255    21A     -0.705379
      22A     -0.653230    23A     -0.649422    24A     -0.622250
      25A     -0.555361    26A     -0.537377    27A     -0.527851
      28A     -0.496655    29A     -0.494594    30A     -0.453593
      31A     -0.377770    32A     -0.369554

  @DF-RHF Final Energy:  -434.30992755326992

   => Energetics <=

    Nuclear Repulsion Energy =            410.6541541723203750
    One-Electron Energy =               -1405.1387749913824337
    Two-Electron Energy =                 560.1746932657920297
    Total Energy =                       -434.3099275532699721
  Basis Set: (AUG-CC-PVTZ AUX)
    Blend: AUG-CC-PVTZ-RI
    Molecular point group: c1

    Geometry (in Angstrom), charge = 0, multiplicity = 1:

       Center              X                  Y                   Z               Mass
    ------------   -----------------  -----------------  -----------------  -----------------
         O            2.225460818260     1.100444507185    -0.019636812807    15.994914619570
         O            2.225460818260    -1.100443492815    -0.019469812807    15.994914619570
         N            1.648575818260     0.000000507185    -0.019542812807    14.003074004430
         C            0.177030818260     0.000000507185    -0.019514812807    12.000000000000
         C           -0.489605181740     1.222656507185    -0.019463812807    12.000000000000
         C           -0.489600781740    -1.222660692815     0.180473187193    12.000000000000
         C           -1.884271181740     1.210131507185    -0.019435812807    12.000000000000
         C           -1.884271181740    -1.210130492815    -0.019501812807    12.000000000000
         C           -2.582793181740     0.000000507185    -0.019449812807    12.000000000000
         H            0.076270818260     2.147478507185    -0.019457812807     1.007825032230
         H            0.076270818260    -2.147477492815    -0.019562812807     1.007825032230
         H           -2.426206181740     2.152162507185    -0.019392812807     1.007825032230
         H           -2.426206181740    -2.152161492815    -0.019511812807     1.007825032230
         H           -3.669749181740     0.000000507185    -0.019431812807     1.007825032230

  Basis Set: AUG-CC-PVTZ
    Blend: AUG-CC-PVTZ
  Basis Set: (AUG-CC-PVTZ AUX)
    Blend: AUG-CC-PVTZ-JKFIT
	 Reference Energy          =    -434.3099275532699153 [Eh]
	 Singles Energy            =      -0.0000000000000000 [Eh]
	 Same-Spin Energy          =      -0.4594942732067978 [Eh]
	 Opposite-Spin Energy      =      -1.3613048315495222 [Eh]
	 Correlation Energy        =      -1.8207991047563199 [Eh]
	 Total Energy              =    -436.1307266580262194 [Eh]

	 ================> DF-SCS-MP2 Energies <==================
	-----------------------------------------------------------
	 SCS Same-Spin Scale       =       0.3333333333333333 [-]
	 SCS Opposite-Spin Scale   =       1.2000000000000000 [-]
	 SCS Same-Spin Energy      =      -0.1531647577355992 [Eh]
	 SCS Opposite-Spin Energy  =      -1.6335657978594267 [Eh]
	 SCS Correlation Energy    =      -1.7867305555950259 [Eh]
	 SCS Total Energy          =    -436.0966581088649150 [Eh]
	-----------------------------------------------------------

  Dipole Moment: [D]
     X:    -4.3897      Y:     0.0642      Z:    -0.0902     Total:     4.3911

*** Psi4 exiting successfully. Buy a developer a beer!
