                               Psi4 1.3.2 release

  ==> Input File <==

--------------------------------------------------------------------------
#psi4
#
memory 32 gb

molecule  {
0 1
  O        2.2902000     1.1004440    -0.0001310
  O        2.2902000    -1.1004440     0.0000360
  N        1.7133150     0.0000000    -0.0000370
  C        0.2417672    -0.0000114    -0.1500090
  C       -0.4248660     1.2226560     0.0000420
  C       -0.4248660    -1.2226560    -0.0000210
  C       -1.8195320     1.2101310     0.0000700
  C       -1.8195320    -1.2101310     0.0000040
  C       -2.5180540     0.0000000     0.0000560
  H        0.1410100     2.1474780     0.0000480
  H        0.1410100    -2.1474780    -0.0000570
  H       -2.3614670     2.1521620     0.0001130
  H       -2.3614670    -2.1521620    -0.0000060
  H       -3.6050100     0.0000000     0.0000740
units angstrom
no_reorient  #important for SAPT in psi4, default
symmetry c1  #important for SAPT in psi4, default
}

set PROPERTIES_ORIGIN ["COM"]
properties('MP2/aug-cc-pvtz', properties = ['dipole'])
--------------------------------------------------------------------------

    Molecular point group: c1
  Charge       = 0
  Multiplicity = 1
  Basis Set: AUG-CC-PVTZ
    Blend: AUG-CC-PVTZ
  Basis Set: (AUG-CC-PVTZ AUX)
    Blend: AUG-CC-PVTZ-JKFIT

    Orbital Energies [Eh]
    ---------------------

    Doubly Occupied:

       1A    -20.605078     2A    -20.605028     3A    -15.855125
       4A    -11.316013     5A    -11.280744     6A    -11.280708
       7A    -11.277685     8A    -11.268496     9A    -11.268408
      10A     -1.588149    11A     -1.387141    12A     -1.198397
      13A     -1.092364    14A     -1.052721    15A     -0.960891
      16A     -0.864704    17A     -0.830037    18A     -0.776628
      19A     -0.723306    20A     -0.710473    21A     -0.706366
      22A     -0.654357    23A     -0.651042    24A     -0.625589
      25A     -0.556934    26A     -0.536290    27A     -0.532202
      28A     -0.494482    29A     -0.494237    30A     -0.453057
      31A     -0.379076    32A     -0.369292

  @DF-RHF Final Energy:  -434.31583142906601

   => Energetics <=

    Nuclear Repulsion Energy =            410.7946244267711791
    One-Electron Energy =               -1405.4308748579533130
    Two-Electron Energy =                 560.3204190021160684
    Total Energy =                       -434.3158314290660655
  Basis Set: (AUG-CC-PVTZ AUX)
    Blend: AUG-CC-PVTZ-RI
    Molecular point group: c1

    Geometry (in Angstrom), charge = 0, multiplicity = 1:

       Center              X                  Y                   Z               Mass
    ------------   -----------------  -----------------  -----------------  -----------------
         O            2.225461520516     1.100445111906     0.014500639485    15.994914619570
         O            2.225461520516    -1.100442888094     0.014667639485    15.994914619570
         N            1.648576520516     0.000001111906     0.014594639485    14.003074004430
         C            0.177028720516    -0.000010288094    -0.135377360515    12.000000000000
         C           -0.489604479484     1.222657111906     0.014673639485    12.000000000000
         C           -0.489604479484    -1.222654888094     0.014610639485    12.000000000000
         C           -1.884270479484     1.210132111906     0.014701639485    12.000000000000
         C           -1.884270479484    -1.210129888094     0.014635639485    12.000000000000
         C           -2.582792479484     0.000001111906     0.014687639485    12.000000000000
         H            0.076271520516     2.147479111906     0.014679639485     1.007825032230
         H            0.076271520516    -2.147476888094     0.014574639485     1.007825032230
         H           -2.426205479484     2.152163111906     0.014744639485     1.007825032230
         H           -2.426205479484    -2.152160888094     0.014625639485     1.007825032230
         H           -3.669748479484     0.000001111906     0.014705639485     1.007825032230

  Basis Set: AUG-CC-PVTZ
    Blend: AUG-CC-PVTZ
  Basis Set: (AUG-CC-PVTZ AUX)
    Blend: AUG-CC-PVTZ-JKFIT
	 Reference Energy          =    -434.3158314290660087 [Eh]
	 Singles Energy            =      -0.0000000000000000 [Eh]
	 Same-Spin Energy          =      -0.4589135401384061 [Eh]
	 Opposite-Spin Energy      =      -1.3599640254863332 [Eh]
	 Correlation Energy        =      -1.8188775656247393 [Eh]
	 Total Energy              =    -436.1347089946907545 [Eh]

	 ================> DF-SCS-MP2 Energies <==================
	-----------------------------------------------------------
	 SCS Same-Spin Scale       =       0.3333333333333333 [-]
	 SCS Opposite-Spin Scale   =       1.2000000000000000 [-]
	 SCS Same-Spin Energy      =      -0.1529711800461354 [Eh]
	 SCS Opposite-Spin Energy  =      -1.6319568305835999 [Eh]
	 SCS Correlation Energy    =      -1.7849280106297352 [Eh]
	 SCS Total Energy          =    -436.1007594396957643 [Eh]
	-----------------------------------------------------------

  Dipole Moment: [D]
     X:    -4.3897      Y:    -0.0000      Z:    -0.0451     Total:     4.3899

*** Psi4 exiting successfully. Buy a developer a beer!
