                               Psi4 1.3.2 release

  ==> Input File <==

--------------------------------------------------------------------------
#psi4
#
memory 32 gb

molecule  {
0 1
  O        2.2902000     1.1004440    -0.0001310
  O        2.2902000    -1.1004440     0.0000360
  N        1.7133150     0.0000000    -0.0000370
  C        0.2417700     0.0000000    -0.0000090
  C       -0.4248660     1.2226560     0.0000420
  C       -0.4248660    -1.2226560    -0.0000210
  C       -1.8195320     1.2101310     0.0000700
  C       -1.8195320    -1.2101310     0.0000040
  C       -2.5180540     0.0000000     0.0000560
  H        0.1410100     2.1474780     0.0000480
  H        0.1410100    -2.1474780    -0.0000570
  H       -2.3614670     2.1521620     0.0001130
  H       -2.3614670    -2.1521620    -0.0000060
  H       -3.6050121     0.0000027    -0.0999260
units angstrom
no_reorient  #important for SAPT in psi4, default
symmetry c1  #important for SAPT in psi4, default
}

set PROPERTIES_ORIGIN ["COM"]
properties('MP2/aug-cc-pvtz', properties = ['dipole'])
--------------------------------------------------------------------------

    Molecular point group: c1
  Charge       = 0
  Multiplicity = 1
  Basis Set: AUG-CC-PVTZ
    Blend: AUG-CC-PVTZ
  Basis Set: (AUG-CC-PVTZ AUX)
    Blend: AUG-CC-PVTZ-JKFIT

    Orbital Energies [Eh]
    ---------------------

    Doubly Occupied:

       1A    -20.605842     2A    -20.605793     3A    -15.856062
       4A    -11.314804     5A    -11.278937     6A    -11.278900
       7A    -11.276867     8A    -11.268711     9A    -11.268614
      10A     -1.589419    11A     -1.388044    12A     -1.199735
      13A     -1.093943    14A     -1.053071    15A     -0.962825
      16A     -0.866277    17A     -0.830118    18A     -0.778243
      19A     -0.724305    20A     -0.709924    21A     -0.707182
      22A     -0.655823    23A     -0.650828    24A     -0.625654
      25A     -0.556388    26A     -0.536640    27A     -0.532763
      28A     -0.496731    29A     -0.494842    30A     -0.453764
      31A     -0.378851    32A     -0.370050

  @DF-RHF Final Energy:  -434.32226939389358

   => Energetics <=

    Nuclear Repulsion Energy =            411.1090208483725519
    One-Electron Energy =               -1406.0426792068765280
    Two-Electron Energy =                 560.6113889646103416
    Total Energy =                       -434.3222693938936345
  Basis Set: (AUG-CC-PVTZ AUX)
    Blend: AUG-CC-PVTZ-RI
    Molecular point group: c1

    Geometry (in Angstrom), charge = 0, multiplicity = 1:

       Center              X                  Y                   Z               Mass
    ------------   -----------------  -----------------  -----------------  -----------------
         O            2.225461264619     1.100443977883     0.000689459430    15.994914619570
         O            2.225461264619    -1.100444022117     0.000856459430    15.994914619570
         N            1.648576264619    -0.000000022117     0.000783459430    14.003074004430
         C            0.177031264619    -0.000000022117     0.000811459430    12.000000000000
         C           -0.489604735381     1.222655977883     0.000862459430    12.000000000000
         C           -0.489604735381    -1.222656022117     0.000799459430    12.000000000000
         C           -1.884270735381     1.210130977883     0.000890459430    12.000000000000
         C           -1.884270735381    -1.210131022117     0.000824459430    12.000000000000
         C           -2.582792735381    -0.000000022117     0.000876459430    12.000000000000
         H            0.076271264619     2.147477977883     0.000868459430     1.007825032230
         H            0.076271264619    -2.147478022117     0.000763459430     1.007825032230
         H           -2.426205735381     2.152161977883     0.000933459430     1.007825032230
         H           -2.426205735381    -2.152162022117     0.000814459430     1.007825032230
         H           -3.669750835381     0.000002677883    -0.099105540570     1.007825032230

  Basis Set: AUG-CC-PVTZ
    Blend: AUG-CC-PVTZ
  Basis Set: (AUG-CC-PVTZ AUX)
    Blend: AUG-CC-PVTZ-JKFIT
	 Reference Energy          =    -434.3222693938935777 [Eh]
	 Singles Energy            =      -0.0000000000000000 [Eh]
	 Same-Spin Energy          =      -0.4587413488157832 [Eh]
	 Opposite-Spin Energy      =      -1.3592032372687570 [Eh]
	 Correlation Energy        =      -1.8179445860845402 [Eh]
	 Total Energy              =    -436.1402139799781139 [Eh]

	 ================> DF-SCS-MP2 Energies <==================
	-----------------------------------------------------------
	 SCS Same-Spin Scale       =       0.3333333333333333 [-]
	 SCS Opposite-Spin Scale   =       1.2000000000000000 [-]
	 SCS Same-Spin Energy      =      -0.1529137829385944 [Eh]
	 SCS Opposite-Spin Energy  =      -1.6310438847225084 [Eh]
	 SCS Correlation Energy    =      -1.7839576676611029 [Eh]
	 SCS Total Energy          =    -436.1062270615547050 [Eh]
	-----------------------------------------------------------

  Dipole Moment: [D]
     X:    -4.3515      Y:     0.0000      Z:    -0.0646     Total:     4.3519

*** Psi4 exiting successfully. Buy a developer a beer!
