                               Psi4 1.3.2 release

  ==> Input File <==

--------------------------------------------------------------------------
#psi4
#
memory 32 gb

molecule  {
0 1
  O        2.2902000     1.1004440    -0.0001310
  O        2.2902000    -1.1004440     0.0000360
  N        1.7133150     0.0000000    -0.0000370
  C        0.2417700     0.0000000    -0.0000090
  C       -0.4248660     1.2226560     0.0000420
  C       -0.4248660    -1.2226560    -0.0000210
  C       -1.8195320     1.2101310     0.0000700
  C       -1.8195320    -1.2101310     0.0000040
  C       -2.5180540     0.0000000     0.0000560
  H        0.1410100     2.1474780     0.0000480
  H        0.1410100    -2.1474780    -0.0000570
  H       -2.3614670     2.1521620     0.0001130
  H       -2.3614670    -2.1521620    -0.0000060
  H       -3.6050162     0.0000082    -0.2999260
units angstrom
no_reorient  #important for SAPT in psi4, default
symmetry c1  #important for SAPT in psi4, default
}

set PROPERTIES_ORIGIN ["COM"]
properties('MP2/aug-cc-pvtz', properties = ['dipole'])
--------------------------------------------------------------------------

    Molecular point group: c1
  Charge       = 0
  Multiplicity = 1
  Basis Set: AUG-CC-PVTZ
    Blend: AUG-CC-PVTZ
  Basis Set: (AUG-CC-PVTZ AUX)
    Blend: AUG-CC-PVTZ-JKFIT

    Orbital Energies [Eh]
    ---------------------

    Doubly Occupied:

       1A    -20.606187     2A    -20.606138     3A    -15.856388
       4A    -11.315413     5A    -11.279986     6A    -11.279136
       7A    -11.279096     8A    -11.269281     9A    -11.269205
      10A     -1.589754    11A     -1.388370    12A     -1.200007
      13A     -1.093640    14A     -1.053411    15A     -0.961766
      16A     -0.866557    17A     -0.829074    18A     -0.778542
      19A     -0.724610    20A     -0.710259    21A     -0.701071
      22A     -0.656104    23A     -0.650795    24A     -0.625927
      25A     -0.556462    26A     -0.533096    27A     -0.531647
      28A     -0.496961    29A     -0.495158    30A     -0.454039
      31A     -0.378120    32A     -0.370331

  @DF-RHF Final Energy:  -434.31648766506487

   => Energetics <=

    Nuclear Repulsion Energy =            410.9767149345473172
    One-Electron Energy =               -1405.7733408047156445
    Two-Electron Energy =                 560.4801382051034579
    Total Energy =                       -434.3164876650648694
  Basis Set: (AUG-CC-PVTZ AUX)
    Blend: AUG-CC-PVTZ-RI
    Molecular point group: c1

    Geometry (in Angstrom), charge = 0, multiplicity = 1:

       Center              X                  Y                   Z               Mass
    ------------   -----------------  -----------------  -----------------  -----------------
         O            2.225461298204     1.100443932829     0.002327772714    15.994914619570
         O            2.225461298204    -1.100444067171     0.002494772714    15.994914619570
         N            1.648576298204    -0.000000067171     0.002421772714    14.003074004430
         C            0.177031298204    -0.000000067171     0.002449772714    12.000000000000
         C           -0.489604701796     1.222655932829     0.002500772714    12.000000000000
         C           -0.489604701796    -1.222656067171     0.002437772714    12.000000000000
         C           -1.884270701796     1.210130932829     0.002528772714    12.000000000000
         C           -1.884270701796    -1.210131067171     0.002462772714    12.000000000000
         C           -2.582792701796    -0.000000067171     0.002514772714    12.000000000000
         H            0.076271298204     2.147477932829     0.002506772714     1.007825032230
         H            0.076271298204    -2.147478067171     0.002401772714     1.007825032230
         H           -2.426205701796     2.152161932829     0.002571772714     1.007825032230
         H           -2.426205701796    -2.152162067171     0.002452772714     1.007825032230
         H           -3.669754901796     0.000008132829    -0.297467227286     1.007825032230

  Basis Set: AUG-CC-PVTZ
    Blend: AUG-CC-PVTZ
  Basis Set: (AUG-CC-PVTZ AUX)
    Blend: AUG-CC-PVTZ-JKFIT
	 Reference Energy          =    -434.3164876650648694 [Eh]
	 Singles Energy            =      -0.0000000000000000 [Eh]
	 Same-Spin Energy          =      -0.4590572195572428 [Eh]
	 Opposite-Spin Energy      =      -1.3600314598769780 [Eh]
	 Correlation Energy        =      -1.8190886794342207 [Eh]
	 Total Energy              =    -436.1355763444990998 [Eh]

	 ================> DF-SCS-MP2 Energies <==================
	-----------------------------------------------------------
	 SCS Same-Spin Scale       =       0.3333333333333333 [-]
	 SCS Opposite-Spin Scale   =       1.2000000000000000 [-]
	 SCS Same-Spin Energy      =      -0.1530190731857476 [Eh]
	 SCS Opposite-Spin Energy  =      -1.6320377518523737 [Eh]
	 SCS Correlation Energy    =      -1.7850568250381214 [Eh]
	 SCS Total Energy          =    -436.1015444901029809 [Eh]
	-----------------------------------------------------------

  Dipole Moment: [D]
     X:    -4.2880      Y:     0.0000      Z:    -0.1901     Total:     4.2922

*** Psi4 exiting successfully. Buy a developer a beer!
