                               Psi4 1.3.2 release

  ==> Input File <==

--------------------------------------------------------------------------
#psi4
#
memory 32 gb

molecule  {
0 1
  O        2.2902000     1.1004440    -0.0001310
  O        2.2902000    -1.1004440     0.0000360
  N        1.7133150     0.0000000    -0.0000370
  C        0.2417700     0.0000000    -0.0000090
  C       -0.4248660     1.2226560     0.0000420
  C       -0.4248660    -1.2226560    -0.0000210
  C       -1.8195320     1.2101310     0.0000700
  C       -1.8195320    -1.2101310     0.0000040
  C       -2.5180540     0.0000000     0.0000560
  H        0.1410100     2.1474780     0.0000480
  H        0.1410100    -2.1474780    -0.0000570
  H       -2.3614705     2.1521662    -0.1498870
  H       -2.3614670    -2.1521620    -0.0000060
  H       -3.6050100     0.0000000     0.0000740
units angstrom
no_reorient  #important for SAPT in psi4, default
symmetry c1  #important for SAPT in psi4, default
}

set PROPERTIES_ORIGIN ["COM"]
properties('MP2/aug-cc-pvtz', properties = ['dipole'])
--------------------------------------------------------------------------

    Molecular point group: c1
  Charge       = 0
  Multiplicity = 1
  Basis Set: AUG-CC-PVTZ
    Blend: AUG-CC-PVTZ
  Basis Set: (AUG-CC-PVTZ AUX)
    Blend: AUG-CC-PVTZ-JKFIT

    Orbital Energies [Eh]
    ---------------------

    Doubly Occupied:

       1A    -20.605857     2A    -20.605808     3A    -15.856079
       4A    -11.314798     5A    -11.279104     6A    -11.279062
       7A    -11.276628     8A    -11.269465     9A    -11.268653
      10A     -1.589437    11A     -1.388062    12A     -1.199780
      13A     -1.093989    14A     -1.052895    15A     -0.963049
      16A     -0.865810    17A     -0.830083    18A     -0.777836
      19A     -0.724310    20A     -0.709942    21A     -0.708113
      22A     -0.655870    23A     -0.649726    24A     -0.625007
      25A     -0.556447    26A     -0.539284    27A     -0.529912
      28A     -0.496690    29A     -0.494863    30A     -0.453786
      31A     -0.378952    32A     -0.369907

  @DF-RHF Final Energy:  -434.32146325842177

   => Energetics <=

    Nuclear Repulsion Energy =            411.0872616794411556
    One-Electron Energy =               -1405.9990469999452216
    Two-Electron Energy =                 560.5903220620823504
    Total Energy =                       -434.3214632584217725
  Basis Set: (AUG-CC-PVTZ AUX)
    Blend: AUG-CC-PVTZ-RI
    Molecular point group: c1

    Geometry (in Angstrom), charge = 0, multiplicity = 1:

       Center              X                  Y                   Z               Mass
    ------------   -----------------  -----------------  -----------------  -----------------
         O            2.225461276087     1.100443965595     0.001099037751    15.994914619570
         O            2.225461276087    -1.100444034405     0.001266037751    15.994914619570
         N            1.648576276087    -0.000000034405     0.001193037751    14.003074004430
         C            0.177031276087    -0.000000034405     0.001221037751    12.000000000000
         C           -0.489604723913     1.222655965595     0.001272037751    12.000000000000
         C           -0.489604723913    -1.222656034405     0.001209037751    12.000000000000
         C           -1.884270723913     1.210130965595     0.001300037751    12.000000000000
         C           -1.884270723913    -1.210131034405     0.001234037751    12.000000000000
         C           -2.582792723913    -0.000000034405     0.001286037751    12.000000000000
         H            0.076271276087     2.147477965595     0.001278037751     1.007825032230
         H            0.076271276087    -2.147478034405     0.001173037751     1.007825032230
         H           -2.426209223913     2.152166165595    -0.148656962249     1.007825032230
         H           -2.426205723913    -2.152162034405     0.001224037751     1.007825032230
         H           -3.669748723913    -0.000000034405     0.001304037751     1.007825032230

  Basis Set: AUG-CC-PVTZ
    Blend: AUG-CC-PVTZ
  Basis Set: (AUG-CC-PVTZ AUX)
    Blend: AUG-CC-PVTZ-JKFIT
	 Reference Energy          =    -434.3214632584217725 [Eh]
	 Singles Energy            =      -0.0000000000000000 [Eh]
	 Same-Spin Energy          =      -0.4587737184060324 [Eh]
	 Opposite-Spin Energy      =      -1.3592922831525471 [Eh]
	 Correlation Energy        =      -1.8180660015585794 [Eh]
	 Total Energy              =    -436.1395292599803497 [Eh]

	 ================> DF-SCS-MP2 Energies <==================
	-----------------------------------------------------------
	 SCS Same-Spin Scale       =       0.3333333333333333 [-]
	 SCS Opposite-Spin Scale   =       1.2000000000000000 [-]
	 SCS Same-Spin Energy      =      -0.1529245728020108 [Eh]
	 SCS Opposite-Spin Energy  =      -1.6311507397830565 [Eh]
	 SCS Correlation Energy    =      -1.7840753125850672 [Eh]
	 SCS Total Energy          =    -436.1055385710068322 [Eh]
	-----------------------------------------------------------

  Dipole Moment: [D]
     X:    -4.3498      Y:    -0.0142      Z:    -0.0918     Total:     4.3508

*** Psi4 exiting successfully. Buy a developer a beer!
