                               Psi4 1.3.2 release

  ==> Input File <==

--------------------------------------------------------------------------
#psi4
#
memory 32 gb

molecule  {
0 1
  O        2.2902000     1.1004440    -0.0001310
  O        2.2902000    -1.1004440     0.0000360
  N        1.7133150     0.0000000    -0.0000370
  C        0.2417700     0.0000000    -0.0000090
  C       -0.4248660     1.2226560     0.0000420
  C       -0.4248660    -1.2226560    -0.0000210
  C       -1.8195320     1.2101310     0.0000700
  C       -1.8195320    -1.2101310     0.0000040
  C       -2.5180540     0.0000000     0.0000560
  H        0.1410088     2.1474793    -0.0499520
  H        0.1410100    -2.1474780    -0.0000570
  H       -2.3614670     2.1521620     0.0001130
  H       -2.3614670    -2.1521620    -0.0000060
  H       -3.6050100     0.0000000     0.0000740
units angstrom
no_reorient  #important for SAPT in psi4, default
symmetry c1  #important for SAPT in psi4, default
}

set PROPERTIES_ORIGIN ["COM"]
properties('MP2/aug-cc-pvtz', properties = ['dipole'])
--------------------------------------------------------------------------

    Molecular point group: c1
  Charge       = 0
  Multiplicity = 1
  Basis Set: AUG-CC-PVTZ
    Blend: AUG-CC-PVTZ
  Basis Set: (AUG-CC-PVTZ AUX)
    Blend: AUG-CC-PVTZ-JKFIT

    Orbital Energies [Eh]
    ---------------------

    Doubly Occupied:

       1A    -20.605793     2A    -20.605744     3A    -15.856016
       4A    -11.314741     5A    -11.278992     6A    -11.278898
       7A    -11.276472     8A    -11.268662     9A    -11.268561
      10A     -1.589372    11A     -1.387997    12A     -1.199705
      13A     -1.093993    14A     -1.053010    15A     -0.962965
      16A     -0.866200    17A     -0.830262    18A     -0.778170
      19A     -0.724258    20A     -0.709916    21A     -0.707878
      22A     -0.655795    23A     -0.650784    24A     -0.625530
      25A     -0.556340    26A     -0.537526    27A     -0.532411
      28A     -0.496696    29A     -0.494786    30A     -0.453720
      31A     -0.378950    32A     -0.370003

  @DF-RHF Final Energy:  -434.32275203325401

   => Energetics <=

    Nuclear Repulsion Energy =            411.1213281507559145
    One-Electron Energy =               -1406.0678696646336903
    Two-Electron Energy =                 560.6237894806237136
    Total Energy =                       -434.3227520332540053
  Basis Set: (AUG-CC-PVTZ AUX)
    Blend: AUG-CC-PVTZ-RI
    Molecular point group: c1

    Geometry (in Angstrom), charge = 0, multiplicity = 1:

       Center              X                  Y                   Z               Mass
    ------------   -----------------  -----------------  -----------------  -----------------
         O            2.225461257246     1.100443989351     0.000279881109    15.994914619570
         O            2.225461257246    -1.100444010649     0.000446881109    15.994914619570
         N            1.648576257246    -0.000000010649     0.000373881109    14.003074004430
         C            0.177031257246    -0.000000010649     0.000401881109    12.000000000000
         C           -0.489604742754     1.222655989351     0.000452881109    12.000000000000
         C           -0.489604742754    -1.222656010649     0.000389881109    12.000000000000
         C           -1.884270742754     1.210130989351     0.000480881109    12.000000000000
         C           -1.884270742754    -1.210131010649     0.000414881109    12.000000000000
         C           -2.582792742754    -0.000000010649     0.000466881109    12.000000000000
         H            0.076270057246     2.147479289351    -0.049541118891     1.007825032230
         H            0.076271257246    -2.147478010649     0.000353881109     1.007825032230
         H           -2.426205742754     2.152161989351     0.000523881109     1.007825032230
         H           -2.426205742754    -2.152162010649     0.000404881109     1.007825032230
         H           -3.669748742754    -0.000000010649     0.000484881109     1.007825032230

  Basis Set: AUG-CC-PVTZ
    Blend: AUG-CC-PVTZ
  Basis Set: (AUG-CC-PVTZ AUX)
    Blend: AUG-CC-PVTZ-JKFIT
	 Reference Energy          =    -434.3227520332540053 [Eh]
	 Singles Energy            =      -0.0000000000000000 [Eh]
	 Same-Spin Energy          =      -0.4587113863366544 [Eh]
	 Opposite-Spin Energy      =      -1.3591252381926333 [Eh]
	 Correlation Energy        =      -1.8178366245292876 [Eh]
	 Total Energy              =    -436.1405886577832689 [Eh]

	 ================> DF-SCS-MP2 Energies <==================
	-----------------------------------------------------------
	 SCS Same-Spin Scale       =       0.3333333333333333 [-]
	 SCS Opposite-Spin Scale   =       1.2000000000000000 [-]
	 SCS Same-Spin Energy      =      -0.1529037954455514 [Eh]
	 SCS Opposite-Spin Energy  =      -1.6309502858311600 [Eh]
	 SCS Correlation Energy    =      -1.7838540812767114 [Eh]
	 SCS Total Energy          =    -436.1066061145307344 [Eh]
	-----------------------------------------------------------

  Dipole Moment: [D]
     X:    -4.3605      Y:    -0.0011      Z:    -0.0338     Total:     4.3606

*** Psi4 exiting successfully. Buy a developer a beer!
