                               Psi4 1.3.2 release

  ==> Input File <==

--------------------------------------------------------------------------
#psi4
#
memory 32 gb

molecule  {
0 1
  O        2.2902000     1.1004440    -0.0001310
  O        2.2902000    -1.1004440     0.0000360
  N        1.7133150     0.0000000    -0.0000370
  C        0.2417653    -0.0000190    -0.2500090
  C       -0.4248660     1.2226560     0.0000420
  C       -0.4248660    -1.2226560    -0.0000210
  C       -1.8195320     1.2101310     0.0000700
  C       -1.8195320    -1.2101310     0.0000040
  C       -2.5180540     0.0000000     0.0000560
  H        0.1410100     2.1474780     0.0000480
  H        0.1410100    -2.1474780    -0.0000570
  H       -2.3614670     2.1521620     0.0001130
  H       -2.3614670    -2.1521620    -0.0000060
  H       -3.6050100     0.0000000     0.0000740
units angstrom
no_reorient  #important for SAPT in psi4, default
symmetry c1  #important for SAPT in psi4, default
}

set PROPERTIES_ORIGIN ["COM"]
properties('MP2/aug-cc-pvtz', properties = ['dipole'])
--------------------------------------------------------------------------

    Molecular point group: c1
  Charge       = 0
  Multiplicity = 1
  Basis Set: AUG-CC-PVTZ
    Blend: AUG-CC-PVTZ
  Basis Set: (AUG-CC-PVTZ AUX)
    Blend: AUG-CC-PVTZ-JKFIT

    Orbital Energies [Eh]
    ---------------------

    Doubly Occupied:

       1A    -20.603792     2A    -20.603743     3A    -15.853443
       4A    -11.318169     5A    -11.283945     6A    -11.283911
       7A    -11.279972     8A    -11.268318     9A    -11.268246
      10A     -1.585975    11A     -1.385601    12A     -1.196220
      13A     -1.089505    14A     -1.052299    15A     -0.957385
      16A     -0.862202    17A     -0.829617    18A     -0.773874
      19A     -0.721599    20A     -0.711140    21A     -0.703925
      22A     -0.651997    23A     -0.651448    24A     -0.625498
      25A     -0.558042    26A     -0.534569    27A     -0.531226
      28A     -0.493207    29A     -0.490558    30A     -0.451853
      31A     -0.379437    32A     -0.368129

  @DF-RHF Final Energy:  -434.30318021140579

   => Energetics <=

    Nuclear Repulsion Energy =            410.2159462459446786
    One-Electron Energy =               -1404.3005674698802068
    Two-Electron Energy =                 559.7814410125297400
    Total Energy =                       -434.3031802114057882
  Basis Set: (AUG-CC-PVTZ AUX)
    Blend: AUG-CC-PVTZ-RI
    Molecular point group: c1

    Geometry (in Angstrom), charge = 0, multiplicity = 1:

       Center              X                  Y                   Z               Mass
    ------------   -----------------  -----------------  -----------------  -----------------
         O            2.225461705834     1.100445853176     0.024254197283    15.994914619570
         O            2.225461705834    -1.100442146824     0.024421197283    15.994914619570
         N            1.648576705834     0.000001853176     0.024348197283    14.003074004430
         C            0.177027005834    -0.000017146824    -0.225623802717    12.000000000000
         C           -0.489604294166     1.222657853176     0.024427197283    12.000000000000
         C           -0.489604294166    -1.222654146824     0.024364197283    12.000000000000
         C           -1.884270294166     1.210132853176     0.024455197283    12.000000000000
         C           -1.884270294166    -1.210129146824     0.024389197283    12.000000000000
         C           -2.582792294166     0.000001853176     0.024441197283    12.000000000000
         H            0.076271705834     2.147479853176     0.024433197283     1.007825032230
         H            0.076271705834    -2.147476146824     0.024328197283     1.007825032230
         H           -2.426205294166     2.152163853176     0.024498197283     1.007825032230
         H           -2.426205294166    -2.152160146824     0.024379197283     1.007825032230
         H           -3.669748294166     0.000001853176     0.024459197283     1.007825032230

  Basis Set: AUG-CC-PVTZ
    Blend: AUG-CC-PVTZ
  Basis Set: (AUG-CC-PVTZ AUX)
    Blend: AUG-CC-PVTZ-JKFIT
	 Reference Energy          =    -434.3031802114057882 [Eh]
	 Singles Energy            =      -0.0000000000000000 [Eh]
	 Same-Spin Energy          =      -0.4592504084300240 [Eh]
	 Opposite-Spin Energy      =      -1.3614702148192765 [Eh]
	 Correlation Energy        =      -1.8207206232493005 [Eh]
	 Total Energy              =    -436.1239008346551032 [Eh]

	 ================> DF-SCS-MP2 Energies <==================
	-----------------------------------------------------------
	 SCS Same-Spin Scale       =       0.3333333333333333 [-]
	 SCS Opposite-Spin Scale   =       1.2000000000000000 [-]
	 SCS Same-Spin Energy      =      -0.1530834694766746 [Eh]
	 SCS Opposite-Spin Energy  =      -1.6337642577831317 [Eh]
	 SCS Correlation Energy    =      -1.7868477272598065 [Eh]
	 SCS Total Energy          =    -436.0900279386655711 [Eh]
	-----------------------------------------------------------

  Dipole Moment: [D]
     X:    -4.4422      Y:    -0.0000      Z:    -0.0705     Total:     4.4428

*** Psi4 exiting successfully. Buy a developer a beer!
