                               Psi4 1.3.2 release

  ==> Input File <==

--------------------------------------------------------------------------
#psi4
#
memory 32 gb

molecule  {
0 1
  O        2.2902000     1.1004440    -0.0001310
  O        2.2902000    -1.1004440     0.0000360
  N        1.7133150     0.0000000    -0.0000370
  C        0.2417700     0.0000000    -0.0000090
  C       -0.4248660     1.2226560     0.0000420
  C       -0.4248627    -1.2226599     0.1499790
  C       -1.8195320     1.2101310     0.0000700
  C       -1.8195320    -1.2101310     0.0000040
  C       -2.5180540     0.0000000     0.0000560
  H        0.1410100     2.1474780     0.0000480
  H        0.1410100    -2.1474780    -0.0000570
  H       -2.3614670     2.1521620     0.0001130
  H       -2.3614670    -2.1521620    -0.0000060
  H       -3.6050100     0.0000000     0.0000740
units angstrom
no_reorient  #important for SAPT in psi4, default
symmetry c1  #important for SAPT in psi4, default
}

set PROPERTIES_ORIGIN ["COM"]
properties('MP2/aug-cc-pvtz', properties = ['dipole'])
--------------------------------------------------------------------------

    Molecular point group: c1
  Charge       = 0
  Multiplicity = 1
  Basis Set: AUG-CC-PVTZ
    Blend: AUG-CC-PVTZ
  Basis Set: (AUG-CC-PVTZ AUX)
    Blend: AUG-CC-PVTZ-JKFIT

    Orbital Energies [Eh]
    ---------------------

    Doubly Occupied:

       1A    -20.605879     2A    -20.605824     3A    -15.855926
       4A    -11.316236     5A    -11.280716     6A    -11.278662
       7A    -11.276180     8A    -11.270479     9A    -11.269530
      10A     -1.589394    11A     -1.388005    12A     -1.198757
      13A     -1.093826    14A     -1.052017    15A     -0.962664
      16A     -0.865502    17A     -0.829390    18A     -0.777375
      19A     -0.724102    20A     -0.710139    21A     -0.706413
      22A     -0.654184    23A     -0.650140    24A     -0.623720
      25A     -0.555796    26A     -0.537465    27A     -0.529858
      28A     -0.496672    29A     -0.494685    30A     -0.453648
      31A     -0.378248    32A     -0.369745

  @DF-RHF Final Energy:  -434.31564961339598

   => Energetics <=

    Nuclear Repulsion Energy =            410.8592041140469746
    One-Electron Energy =               -1405.5473544730295998
    Two-Electron Energy =                 560.3725007455866489
    Total Energy =                       -434.3156496133959763
  Basis Set: (AUG-CC-PVTZ AUX)
    Blend: AUG-CC-PVTZ-RI
    Molecular point group: c1

    Geometry (in Angstrom), charge = 0, multiplicity = 1:

       Center              X                  Y                   Z               Mass
    ------------   -----------------  -----------------  -----------------  -----------------
         O            2.225460925549     1.100444380389    -0.014760033908    15.994914619570
         O            2.225460925549    -1.100443619611    -0.014593033908    15.994914619570
         N            1.648575925549     0.000000380389    -0.014666033908    14.003074004430
         C            0.177030925549     0.000000380389    -0.014638033908    12.000000000000
         C           -0.489605074451     1.222656380389    -0.014587033908    12.000000000000
         C           -0.489601774451    -1.222659519611     0.135349966092    12.000000000000
         C           -1.884271074451     1.210131380389    -0.014559033908    12.000000000000
         C           -1.884271074451    -1.210130619611    -0.014625033908    12.000000000000
         C           -2.582793074451     0.000000380389    -0.014573033908    12.000000000000
         H            0.076270925549     2.147478380389    -0.014581033908     1.007825032230
         H            0.076270925549    -2.147477619611    -0.014686033908     1.007825032230
         H           -2.426206074451     2.152162380389    -0.014516033908     1.007825032230
         H           -2.426206074451    -2.152161619611    -0.014635033908     1.007825032230
         H           -3.669749074451     0.000000380389    -0.014555033908     1.007825032230

  Basis Set: AUG-CC-PVTZ
    Blend: AUG-CC-PVTZ
  Basis Set: (AUG-CC-PVTZ AUX)
    Blend: AUG-CC-PVTZ-JKFIT
	 Reference Energy          =    -434.3156496133959763 [Eh]
	 Singles Energy            =      -0.0000000000000000 [Eh]
	 Same-Spin Energy          =      -0.4591558104675739 [Eh]
	 Opposite-Spin Energy      =      -1.3603481304138958 [Eh]
	 Correlation Energy        =      -1.8195039408814697 [Eh]
	 Total Energy              =    -436.1351535542774513 [Eh]

	 ================> DF-SCS-MP2 Energies <==================
	-----------------------------------------------------------
	 SCS Same-Spin Scale       =       0.3333333333333333 [-]
	 SCS Opposite-Spin Scale   =       1.2000000000000000 [-]
	 SCS Same-Spin Energy      =      -0.1530519368225246 [Eh]
	 SCS Opposite-Spin Energy  =      -1.6324177564966749 [Eh]
	 SCS Correlation Energy    =      -1.7854696933191996 [Eh]
	 SCS Total Energy          =    -436.1011193067151908 [Eh]
	-----------------------------------------------------------

  Dipole Moment: [D]
     X:    -4.3767      Y:     0.0363      Z:    -0.0658     Total:     4.3773

*** Psi4 exiting successfully. Buy a developer a beer!
