                               Psi4 1.3.2 release

  ==> Input File <==

--------------------------------------------------------------------------
#psi4
#
memory 32 gb

molecule  {
0 1
  O        2.2902000     1.1004440    -0.0001310
  O        2.2902000    -1.1004440     0.0000360
  N        1.7133150     0.0000000    -0.0000370
  C        0.2417700     0.0000000    -0.0000090
  C       -0.4248660     1.2226560     0.0000420
  C       -0.4248660    -1.2226560    -0.0000210
  C       -1.8195320     1.2101310     0.0000700
  C       -1.8195320    -1.2101310     0.0000040
  C       -2.5180540     0.0000000     0.0000560
  H        0.1410100     2.1474780     0.0000480
  H        0.1410100    -2.1474780    -0.0000570
  H       -2.3614670     2.1521620     0.0001130
  H       -2.3614670    -2.1521620    -0.0000060
  H       -3.6050110     0.0000014    -0.0499260
units angstrom
no_reorient  #important for SAPT in psi4, default
symmetry c1  #important for SAPT in psi4, default
}

set PROPERTIES_ORIGIN ["COM"]
properties('MP2/aug-cc-pvtz', properties = ['dipole'])
--------------------------------------------------------------------------

    Molecular point group: c1
  Charge       = 0
  Multiplicity = 1
  Basis Set: AUG-CC-PVTZ
    Blend: AUG-CC-PVTZ
  Basis Set: (AUG-CC-PVTZ AUX)
    Blend: AUG-CC-PVTZ-JKFIT

    Orbital Energies [Eh]
    ---------------------

    Doubly Occupied:

       1A    -20.605811     2A    -20.605761     3A    -15.856033
       4A    -11.314749     5A    -11.278922     6A    -11.278885
       7A    -11.276570     8A    -11.268662     9A    -11.268561
      10A     -1.589389    11A     -1.388015    12A     -1.199713
      13A     -1.093979    14A     -1.053043    15A     -0.962939
      16A     -0.866254    17A     -0.830232    18A     -0.778218
      19A     -0.724278    20A     -0.709890    21A     -0.707803
      22A     -0.655800    23A     -0.650834    24A     -0.625631
      25A     -0.556351    26A     -0.537137    27A     -0.532735
      28A     -0.496709    29A     -0.494813    30A     -0.453739
      31A     -0.378926    32A     -0.370026

  @DF-RHF Final Energy:  -434.32275535761784

   => Energetics <=

    Nuclear Repulsion Energy =            411.1219458949592536
    One-Electron Energy =               -1406.0685894161533724
    Two-Electron Energy =                 560.6238881635763391
    Total Energy =                       -434.3227553576177797
  Basis Set: (AUG-CC-PVTZ AUX)
    Blend: AUG-CC-PVTZ-RI
    Molecular point group: c1

    Geometry (in Angstrom), charge = 0, multiplicity = 1:

       Center              X                  Y                   Z               Mass
    ------------   -----------------  -----------------  -----------------  -----------------
         O            2.225461255608     1.100443988532     0.000279881109    15.994914619570
         O            2.225461255608    -1.100444011468     0.000446881109    15.994914619570
         N            1.648576255608    -0.000000011468     0.000373881109    14.003074004430
         C            0.177031255608    -0.000000011468     0.000401881109    12.000000000000
         C           -0.489604744392     1.222655988532     0.000452881109    12.000000000000
         C           -0.489604744392    -1.222656011468     0.000389881109    12.000000000000
         C           -1.884270744392     1.210130988532     0.000480881109    12.000000000000
         C           -1.884270744392    -1.210131011468     0.000414881109    12.000000000000
         C           -2.582792744392    -0.000000011468     0.000466881109    12.000000000000
         H            0.076271255608     2.147477988532     0.000458881109     1.007825032230
         H            0.076271255608    -2.147478011468     0.000353881109     1.007825032230
         H           -2.426205744392     2.152161988532     0.000523881109     1.007825032230
         H           -2.426205744392    -2.152162011468     0.000404881109     1.007825032230
         H           -3.669749744392     0.000001388532    -0.049515118891     1.007825032230

  Basis Set: AUG-CC-PVTZ
    Blend: AUG-CC-PVTZ
  Basis Set: (AUG-CC-PVTZ AUX)
    Blend: AUG-CC-PVTZ-JKFIT
	 Reference Energy          =    -434.3227553576178366 [Eh]
	 Singles Energy            =      -0.0000000000000000 [Eh]
	 Same-Spin Energy          =      -0.4587096578708220 [Eh]
	 Opposite-Spin Energy      =      -1.3591276824552916 [Eh]
	 Correlation Energy        =      -1.8178373403261134 [Eh]
	 Total Energy              =    -436.1405926979439300 [Eh]

	 ================> DF-SCS-MP2 Energies <==================
	-----------------------------------------------------------
	 SCS Same-Spin Scale       =       0.3333333333333333 [-]
	 SCS Opposite-Spin Scale   =       1.2000000000000000 [-]
	 SCS Same-Spin Energy      =      -0.1529032192902740 [Eh]
	 SCS Opposite-Spin Energy  =      -1.6309532189463498 [Eh]
	 SCS Correlation Energy    =      -1.7838564382366238 [Eh]
	 SCS Total Energy          =    -436.1066117958544623 [Eh]
	-----------------------------------------------------------

  Dipole Moment: [D]
     X:    -4.3576      Y:     0.0000      Z:    -0.0323     Total:     4.3577

*** Psi4 exiting successfully. Buy a developer a beer!
