                               Psi4 1.3.2 release

  ==> Input File <==

--------------------------------------------------------------------------
#psi4
#
memory 32 gb

molecule  {
0 1
  O        2.2902000     1.1004440    -0.0001310
  O        2.2902000    -1.1004440     0.0000360
  N        1.7133150     0.0000000    -0.0000370
  C        0.2417700     0.0000000    -0.0000090
  C       -0.4248660     1.2226560     0.0000420
  C       -0.4248660    -1.2226560    -0.0000210
  C       -1.8195320     1.2101310     0.0000700
  C       -1.8195320    -1.2101310     0.0000040
  C       -2.5180540     0.0000000     0.0000560
  H        0.1410030     2.1474856    -0.2999520
  H        0.1410100    -2.1474780    -0.0000570
  H       -2.3614670     2.1521620     0.0001130
  H       -2.3614670    -2.1521620    -0.0000060
  H       -3.6050100     0.0000000     0.0000740
units angstrom
no_reorient  #important for SAPT in psi4, default
symmetry c1  #important for SAPT in psi4, default
}

set PROPERTIES_ORIGIN ["COM"]
properties('MP2/aug-cc-pvtz', properties = ['dipole'])
--------------------------------------------------------------------------

    Molecular point group: c1
  Charge       = 0
  Multiplicity = 1
  Basis Set: AUG-CC-PVTZ
    Blend: AUG-CC-PVTZ
  Basis Set: (AUG-CC-PVTZ AUX)
    Blend: AUG-CC-PVTZ-JKFIT

    Orbital Energies [Eh]
    ---------------------

    Doubly Occupied:

       1A    -20.605572     2A    -20.605506     3A    -15.855763
       4A    -11.315126     5A    -11.282074     6A    -11.279047
       7A    -11.276566     8A    -11.269273     9A    -11.269157
      10A     -1.589149    11A     -1.387733    12A     -1.199704
      13A     -1.094078    14A     -1.052306    15A     -0.962604
      16A     -0.864782    17A     -0.829974    18A     -0.776981
      19A     -0.723943    20A     -0.710212    21A     -0.704559
      22A     -0.655915    23A     -0.649245    24A     -0.622079
      25A     -0.556394    26A     -0.540718    27A     -0.525973
      28A     -0.496526    29A     -0.494121    30A     -0.453359
      31A     -0.378950    32A     -0.369525

  @DF-RHF Final Energy:  -434.31636500786931

   => Energetics <=

    Nuclear Repulsion Energy =            410.9547500140178045
    One-Electron Energy =               -1405.7484056653393054
    Two-Electron Energy =                 560.4772906434521929
    Total Energy =                       -434.3163650078693081
  Basis Set: (AUG-CC-PVTZ AUX)
    Blend: AUG-CC-PVTZ-RI
    Molecular point group: c1

    Geometry (in Angstrom), charge = 0, multiplicity = 1:

       Center              X                  Y                   Z               Mass
    ------------   -----------------  -----------------  -----------------  -----------------
         O            2.225461304757     1.100443937744     0.002327772714    15.994914619570
         O            2.225461304757    -1.100444062256     0.002494772714    15.994914619570
         N            1.648576304757    -0.000000062256     0.002421772714    14.003074004430
         C            0.177031304757    -0.000000062256     0.002449772714    12.000000000000
         C           -0.489604695243     1.222655937744     0.002500772714    12.000000000000
         C           -0.489604695243    -1.222656062256     0.002437772714    12.000000000000
         C           -1.884270695243     1.210130937744     0.002528772714    12.000000000000
         C           -1.884270695243    -1.210131062256     0.002462772714    12.000000000000
         C           -2.582792695243    -0.000000062256     0.002514772714    12.000000000000
         H            0.076264304757     2.147485537744    -0.297493227286     1.007825032230
         H            0.076271304757    -2.147478062256     0.002401772714     1.007825032230
         H           -2.426205695243     2.152161937744     0.002571772714     1.007825032230
         H           -2.426205695243    -2.152162062256     0.002452772714     1.007825032230
         H           -3.669748695243    -0.000000062256     0.002532772714     1.007825032230

  Basis Set: AUG-CC-PVTZ
    Blend: AUG-CC-PVTZ
  Basis Set: (AUG-CC-PVTZ AUX)
    Blend: AUG-CC-PVTZ-JKFIT
	 Reference Energy          =    -434.3163650078693081 [Eh]
	 Singles Energy            =      -0.0000000000000000 [Eh]
	 Same-Spin Energy          =      -0.4591281385318796 [Eh]
	 Opposite-Spin Energy      =      -1.3600085879702628 [Eh]
	 Correlation Energy        =      -1.8191367265021423 [Eh]
	 Total Energy              =    -436.1355017343714735 [Eh]

	 ================> DF-SCS-MP2 Energies <==================
	-----------------------------------------------------------
	 SCS Same-Spin Scale       =       0.3333333333333333 [-]
	 SCS Opposite-Spin Scale   =       1.2000000000000000 [-]
	 SCS Same-Spin Energy      =      -0.1530427128439598 [Eh]
	 SCS Opposite-Spin Energy  =      -1.6320103055643154 [Eh]
	 SCS Correlation Energy    =      -1.7850530184082751 [Eh]
	 SCS Total Energy          =    -436.1014180262775994 [Eh]
	-----------------------------------------------------------

  Dipole Moment: [D]
     X:    -4.3904      Y:    -0.0396      Z:    -0.2010     Total:     4.3952

*** Psi4 exiting successfully. Buy a developer a beer!
