                               Psi4 1.3.2 release

  ==> Input File <==

--------------------------------------------------------------------------
#psi4
#
memory 32 gb

molecule  {
0 1
  O        2.2902000     1.1004440    -0.0001310
  O        2.2902000    -1.1004440     0.0000360
  N        1.7133150     0.0000000    -0.0000370
  C        0.2417700     0.0000000    -0.0000090
  C       -0.4248660     1.2226560     0.0000420
  C       -0.4248660    -1.2226560    -0.0000210
  C       -1.8195320     1.2101310     0.0000700
  C       -1.8195320    -1.2101310     0.0000040
  C       -2.5180540     0.0000000     0.0000560
  H        0.1410100     2.1474780     0.0000480
  H        0.1410100    -2.1474780    -0.0000570
  H       -2.3614670     2.1521620     0.0001130
  H       -2.3614670    -2.1521620    -0.0000060
  H       -3.6050141     0.0000055    -0.1999260
units angstrom
no_reorient  #important for SAPT in psi4, default
symmetry c1  #important for SAPT in psi4, default
}

set PROPERTIES_ORIGIN ["COM"]
properties('MP2/aug-cc-pvtz', properties = ['dipole'])
--------------------------------------------------------------------------

    Molecular point group: c1
  Charge       = 0
  Multiplicity = 1
  Basis Set: AUG-CC-PVTZ
    Blend: AUG-CC-PVTZ
  Basis Set: (AUG-CC-PVTZ AUX)
    Blend: AUG-CC-PVTZ-JKFIT

    Orbital Energies [Eh]
    ---------------------

    Doubly Occupied:

       1A    -20.605971     2A    -20.605921     3A    -15.856183
       4A    -11.315031     5A    -11.279006     6A    -11.278971
       7A    -11.278050     8A    -11.268920     9A    -11.268832
      10A     -1.589544    11A     -1.388165    12A     -1.199832
      13A     -1.093815    14A     -1.053194    15A     -0.962399
      16A     -0.866378    17A     -0.829692    18A     -0.778352
      19A     -0.724418    20A     -0.710052    21A     -0.704790
      22A     -0.655924    23A     -0.650814    24A     -0.625752
      25A     -0.556478    26A     -0.534711    27A     -0.532884
      28A     -0.496819    29A     -0.494959    30A     -0.453866
      31A     -0.378564    32A     -0.370152

  @DF-RHF Final Energy:  -434.32021954066278

   => Energetics <=

    Nuclear Repulsion Energy =            411.0582446997373154
    One-Electron Energy =               -1405.9400512983124827
    Two-Electron Energy =                 560.5615870579124476
    Total Energy =                       -434.3202195406627197
  Basis Set: (AUG-CC-PVTZ AUX)
    Blend: AUG-CC-PVTZ-RI
    Molecular point group: c1

    Geometry (in Angstrom), charge = 0, multiplicity = 1:

       Center              X                  Y                   Z               Mass
    ------------   -----------------  -----------------  -----------------  -----------------
         O            2.225461281002     1.100443954946     0.001508616072    15.994914619570
         O            2.225461281002    -1.100444045054     0.001675616072    15.994914619570
         N            1.648576281002    -0.000000045054     0.001602616072    14.003074004430
         C            0.177031281002    -0.000000045054     0.001630616072    12.000000000000
         C           -0.489604718998     1.222655954946     0.001681616072    12.000000000000
         C           -0.489604718998    -1.222656045054     0.001618616072    12.000000000000
         C           -1.884270718998     1.210130954946     0.001709616072    12.000000000000
         C           -1.884270718998    -1.210131045054     0.001643616072    12.000000000000
         C           -2.582792718998    -0.000000045054     0.001695616072    12.000000000000
         H            0.076271281002     2.147477954946     0.001687616072     1.007825032230
         H            0.076271281002    -2.147478045054     0.001582616072     1.007825032230
         H           -2.426205718998     2.152161954946     0.001752616072     1.007825032230
         H           -2.426205718998    -2.152162045054     0.001633616072     1.007825032230
         H           -3.669752818998     0.000005454946    -0.198286383928     1.007825032230

  Basis Set: AUG-CC-PVTZ
    Blend: AUG-CC-PVTZ
  Basis Set: (AUG-CC-PVTZ AUX)
    Blend: AUG-CC-PVTZ-JKFIT
	 Reference Energy          =    -434.3202195406627766 [Eh]
	 Singles Energy            =      -0.0000000000000000 [Eh]
	 Same-Spin Energy          =      -0.4588633046173898 [Eh]
	 Opposite-Spin Energy      =      -1.3595115113072431 [Eh]
	 Correlation Energy        =      -1.8183748159246329 [Eh]
	 Total Energy              =    -436.1385943565874186 [Eh]

	 ================> DF-SCS-MP2 Energies <==================
	-----------------------------------------------------------
	 SCS Same-Spin Scale       =       0.3333333333333333 [-]
	 SCS Opposite-Spin Scale   =       1.2000000000000000 [-]
	 SCS Same-Spin Energy      =      -0.1529544348724632 [Eh]
	 SCS Opposite-Spin Energy  =      -1.6314138135686918 [Eh]
	 SCS Correlation Energy    =      -1.7843682484411549 [Eh]
	 SCS Total Energy          =    -436.1045877891039595 [Eh]
	-----------------------------------------------------------

  Dipole Moment: [D]
     X:    -4.3274      Y:     0.0000      Z:    -0.1283     Total:     4.3293

*** Psi4 exiting successfully. Buy a developer a beer!
