                               Psi4 1.3.2 release

  ==> Input File <==

--------------------------------------------------------------------------
#psi4
#
memory 32 gb

molecule  {
0 1
  O        2.2902000     1.1004440    -0.0001310
  O        2.2902000    -1.1004440     0.0000360
  N        1.7133150     0.0000000    -0.0000370
  C        0.2417681    -0.0000076    -0.1000090
  C       -0.4248660     1.2226560     0.0000420
  C       -0.4248660    -1.2226560    -0.0000210
  C       -1.8195320     1.2101310     0.0000700
  C       -1.8195320    -1.2101310     0.0000040
  C       -2.5180540     0.0000000     0.0000560
  H        0.1410100     2.1474780     0.0000480
  H        0.1410100    -2.1474780    -0.0000570
  H       -2.3614670     2.1521620     0.0001130
  H       -2.3614670    -2.1521620    -0.0000060
  H       -3.6050100     0.0000000     0.0000740
units angstrom
no_reorient  #important for SAPT in psi4, default
symmetry c1  #important for SAPT in psi4, default
}

set PROPERTIES_ORIGIN ["COM"]
properties('MP2/aug-cc-pvtz', properties = ['dipole'])
--------------------------------------------------------------------------

    Molecular point group: c1
  Charge       = 0
  Multiplicity = 1
  Basis Set: AUG-CC-PVTZ
    Blend: AUG-CC-PVTZ
  Basis Set: (AUG-CC-PVTZ AUX)
    Blend: AUG-CC-PVTZ-JKFIT

    Orbital Energies [Eh]
    ---------------------

    Doubly Occupied:

       1A    -20.605478     2A    -20.605429     3A    -15.855625
       4A    -11.315301     5A    -11.279724     6A    -11.279688
       7A    -11.276997     8A    -11.268568     9A    -11.268473
      10A     -1.588829    11A     -1.387619    12A     -1.199111
      13A     -1.093261    14A     -1.052881    15A     -0.962035
      16A     -0.865543    17A     -0.830163    18A     -0.777500
      19A     -0.723838    20A     -0.710192    21A     -0.707218
      22A     -0.655141    23A     -0.650920    24A     -0.625603
      25A     -0.556595    26A     -0.536849    27A     -0.532490
      28A     -0.495711    29A     -0.494550    30A     -0.453430
      31A     -0.378994    32A     -0.369683

  @DF-RHF Final Energy:  -434.31977249225940

   => Energetics <=

    Nuclear Repulsion Energy =            410.9783145781619282
    One-Electron Energy =               -1405.7892954074377485
    Two-Electron Energy =                 560.4912083370164737
    Total Energy =                       -434.3197724922594034
  Basis Set: (AUG-CC-PVTZ AUX)
    Blend: AUG-CC-PVTZ-RI
    Molecular point group: c1

    Geometry (in Angstrom), charge = 0, multiplicity = 1:

       Center              X                  Y                   Z               Mass
    ------------   -----------------  -----------------  -----------------  -----------------
         O            2.225461432734     1.100444741270     0.009623860586    15.994914619570
         O            2.225461432734    -1.100443258730     0.009790860586    15.994914619570
         N            1.648576432734     0.000000741270     0.009717860586    14.003074004430
         C            0.177029532734    -0.000006858730    -0.090254139414    12.000000000000
         C           -0.489604567266     1.222656741270     0.009796860586    12.000000000000
         C           -0.489604567266    -1.222655258730     0.009733860586    12.000000000000
         C           -1.884270567266     1.210131741270     0.009824860586    12.000000000000
         C           -1.884270567266    -1.210130258730     0.009758860586    12.000000000000
         C           -2.582792567266     0.000000741270     0.009810860586    12.000000000000
         H            0.076271432734     2.147478741270     0.009802860586     1.007825032230
         H            0.076271432734    -2.147477258730     0.009697860586     1.007825032230
         H           -2.426205567266     2.152162741270     0.009867860586     1.007825032230
         H           -2.426205567266    -2.152161258730     0.009748860586     1.007825032230
         H           -3.669748567266     0.000000741270     0.009828860586     1.007825032230

  Basis Set: AUG-CC-PVTZ
    Blend: AUG-CC-PVTZ
  Basis Set: (AUG-CC-PVTZ AUX)
    Blend: AUG-CC-PVTZ-JKFIT
	 Reference Energy          =    -434.3197724922594034 [Eh]
	 Singles Energy            =      -0.0000000000000000 [Eh]
	 Same-Spin Energy          =      -0.4588021582929122 [Eh]
	 Opposite-Spin Energy      =      -1.3595015368933434 [Eh]
	 Correlation Energy        =      -1.8183036951862555 [Eh]
	 Total Energy              =    -436.1380761874456766 [Eh]

	 ================> DF-SCS-MP2 Energies <==================
	-----------------------------------------------------------
	 SCS Same-Spin Scale       =       0.3333333333333333 [-]
	 SCS Opposite-Spin Scale   =       1.2000000000000000 [-]
	 SCS Same-Spin Energy      =      -0.1529340527643041 [Eh]
	 SCS Opposite-Spin Energy  =      -1.6314018442720120 [Eh]
	 SCS Correlation Energy    =      -1.7843358970363159 [Eh]
	 SCS Total Energy          =    -436.1041083892957317 [Eh]
	-----------------------------------------------------------

  Dipole Moment: [D]
     X:    -4.3731      Y:    -0.0000      Z:    -0.0307     Total:     4.3732

*** Psi4 exiting successfully. Buy a developer a beer!
