                               Psi4 1.3.2 release

  ==> Input File <==

--------------------------------------------------------------------------
#psi4
#
memory 32 gb

molecule  {
0 1
  O        2.2902000     1.1004440    -0.0001310
  O        2.2902000    -1.1004440     0.0000360
  N        1.7133150     0.0000000    -0.0000370
  C        0.2417700     0.0000000    -0.0000090
  C       -0.4248660     1.2226560     0.0000420
  C       -0.4248660    -1.2226560    -0.0000210
  C       -1.8195320     1.2101310     0.0000700
  C       -1.8195320    -1.2101310     0.0000040
  C       -2.5180540     0.0000000     0.0000560
  H        0.1410042     2.1474844    -0.2499520
  H        0.1410100    -2.1474780    -0.0000570
  H       -2.3614670     2.1521620     0.0001130
  H       -2.3614670    -2.1521620    -0.0000060
  H       -3.6050100     0.0000000     0.0000740
units angstrom
no_reorient  #important for SAPT in psi4, default
symmetry c1  #important for SAPT in psi4, default
}

set PROPERTIES_ORIGIN ["COM"]
properties('MP2/aug-cc-pvtz', properties = ['dipole'])
--------------------------------------------------------------------------

    Molecular point group: c1
  Charge       = 0
  Multiplicity = 1
  Basis Set: AUG-CC-PVTZ
    Blend: AUG-CC-PVTZ
  Basis Set: (AUG-CC-PVTZ AUX)
    Blend: AUG-CC-PVTZ-JKFIT

    Orbital Energies [Eh]
    ---------------------

    Doubly Occupied:

       1A    -20.605637     2A    -20.605578     3A    -15.855839
       4A    -11.315000     5A    -11.281124     6A    -11.278997
       7A    -11.276532     8A    -11.269079     9A    -11.268968
      10A     -1.589216    11A     -1.387813    12A     -1.199699
      13A     -1.094047    14A     -1.052509    15A     -0.962707
      16A     -0.865187    17A     -0.830056    18A     -0.777321
      19A     -0.724033    20A     -0.710200    21A     -0.705449
      22A     -0.655873    23A     -0.649678    24A     -0.623194
      25A     -0.556388    26A     -0.540084    27A     -0.527620
      28A     -0.496575    29A     -0.494336    30A     -0.453470
      31A     -0.378943    32A     -0.369669

  @DF-RHF Final Energy:  -434.31850179024616

   => Energetics <=

    Nuclear Repulsion Energy =            411.0057764250021819
    One-Electron Energy =               -1405.8469174387983003
    Two-Electron Energy =                 560.5226392235499588
    Total Energy =                       -434.3185017902461595
  Basis Set: (AUG-CC-PVTZ AUX)
    Blend: AUG-CC-PVTZ-RI
    Molecular point group: c1

    Geometry (in Angstrom), charge = 0, multiplicity = 1:

       Center              X                  Y                   Z               Mass
    ------------   -----------------  -----------------  -----------------  -----------------
         O            2.225461294927     1.100443947574     0.001918194393    15.994914619570
         O            2.225461294927    -1.100444052426     0.002085194393    15.994914619570
         N            1.648576294927    -0.000000052426     0.002012194393    14.003074004430
         C            0.177031294927    -0.000000052426     0.002040194393    12.000000000000
         C           -0.489604705073     1.222655947574     0.002091194393    12.000000000000
         C           -0.489604705073    -1.222656052426     0.002028194393    12.000000000000
         C           -1.884270705073     1.210130947574     0.002119194393    12.000000000000
         C           -1.884270705073    -1.210131052426     0.002053194393    12.000000000000
         C           -2.582792705073    -0.000000052426     0.002105194393    12.000000000000
         H            0.076265494927     2.147484347574    -0.247902805607     1.007825032230
         H            0.076271294927    -2.147478052426     0.001992194393     1.007825032230
         H           -2.426205705073     2.152161947574     0.002162194393     1.007825032230
         H           -2.426205705073    -2.152162052426     0.002043194393     1.007825032230
         H           -3.669748705073    -0.000000052426     0.002123194393     1.007825032230

  Basis Set: AUG-CC-PVTZ
    Blend: AUG-CC-PVTZ
  Basis Set: (AUG-CC-PVTZ AUX)
    Blend: AUG-CC-PVTZ-JKFIT
	 Reference Energy          =    -434.3185017902461595 [Eh]
	 Singles Energy            =      -0.0000000000000000 [Eh]
	 Same-Spin Energy          =      -0.4590006756376744 [Eh]
	 Opposite-Spin Energy      =      -1.3597217836267621 [Eh]
	 Correlation Energy        =      -1.8187224592644364 [Eh]
	 Total Energy              =    -436.1372242495106093 [Eh]

	 ================> DF-SCS-MP2 Energies <==================
	-----------------------------------------------------------
	 SCS Same-Spin Scale       =       0.3333333333333333 [-]
	 SCS Opposite-Spin Scale   =       1.2000000000000000 [-]
	 SCS Same-Spin Energy      =      -0.1530002252125581 [Eh]
	 SCS Opposite-Spin Energy  =      -1.6316661403521144 [Eh]
	 SCS Correlation Energy    =      -1.7846663655646726 [Eh]
	 SCS Total Energy          =    -436.1031681558108062 [Eh]
	-----------------------------------------------------------

  Dipole Moment: [D]
     X:    -4.3812      Y:    -0.0277      Z:    -0.1681     Total:     4.3845

*** Psi4 exiting successfully. Buy a developer a beer!
