                               Psi4 1.3.2 release

  ==> Input File <==

--------------------------------------------------------------------------
#psi4
#
memory 32 gb

molecule  {
0 1
  O        2.2902000     1.1004440    -0.0001310
  O        2.2902000    -1.1004440     0.0000360
  N        1.7133150     0.0000000    -0.0000370
  C        0.2417700     0.0000000    -0.0000090
  C       -0.4248660     1.2226560     0.0000420
  C       -0.4248593    -1.2226637     0.2999790
  C       -1.8195320     1.2101310     0.0000700
  C       -1.8195320    -1.2101310     0.0000040
  C       -2.5180540     0.0000000     0.0000560
  H        0.1410100     2.1474780     0.0000480
  H        0.1410100    -2.1474780    -0.0000570
  H       -2.3614670     2.1521620     0.0001130
  H       -2.3614670    -2.1521620    -0.0000060
  H       -3.6050100     0.0000000     0.0000740
units angstrom
no_reorient  #important for SAPT in psi4, default
symmetry c1  #important for SAPT in psi4, default
}

set PROPERTIES_ORIGIN ["COM"]
properties('MP2/aug-cc-pvtz', properties = ['dipole'])
--------------------------------------------------------------------------

    Molecular point group: c1
  Charge       = 0
  Multiplicity = 1
  Basis Set: AUG-CC-PVTZ
    Blend: AUG-CC-PVTZ
  Basis Set: (AUG-CC-PVTZ AUX)
    Blend: AUG-CC-PVTZ-JKFIT

    Orbital Energies [Eh]
    ---------------------

    Doubly Occupied:

       1A    -20.606212     2A    -20.606086     3A    -15.855722
       4A    -11.320619     5A    -11.285839     6A    -11.278190
       7A    -11.276448     8A    -11.275110     9A    -11.272499
      10A     -1.589507    11A     -1.388073    12A     -1.196189
      13A     -1.093518    14A     -1.049082    15A     -0.961709
      16A     -0.863605    17A     -0.827126    18A     -0.775410
      19A     -0.723720    20A     -0.710474    21A     -0.702952
      22A     -0.651985    23A     -0.646242    24A     -0.618130
      25A     -0.553970    26A     -0.536732    27A     -0.522454
      28A     -0.496565    29A     -0.494277    30A     -0.453446
      31A     -0.376655    32A     -0.369004

  @DF-RHF Final Energy:  -434.29335977347074

   => Energetics <=

    Nuclear Repulsion Energy =            410.0806811827853835
    One-Electron Energy =               -1403.9929791245535853
    Two-Electron Energy =                 559.6189381682974044
    Total Energy =                       -434.2933597734707973
  Basis Set: (AUG-CC-PVTZ AUX)
    Blend: AUG-CC-PVTZ-RI
    Molecular point group: c1

    Geometry (in Angstrom), charge = 0, multiplicity = 1:

       Center              X                  Y                   Z               Mass
    ------------   -----------------  -----------------  -----------------  -----------------
         O            2.225460593928     1.100444751024    -0.029390370604    15.994914619570
         O            2.225460593928    -1.100443248976    -0.029223370604    15.994914619570
         N            1.648575593928     0.000000751024    -0.029296370604    14.003074004430
         C            0.177030593928     0.000000751024    -0.029268370604    12.000000000000
         C           -0.489605406072     1.222656751024    -0.029217370604    12.000000000000
         C           -0.489598706072    -1.222662948976     0.270719629396    12.000000000000
         C           -1.884271406072     1.210131751024    -0.029189370604    12.000000000000
         C           -1.884271406072    -1.210130248976    -0.029255370604    12.000000000000
         C           -2.582793406072     0.000000751024    -0.029203370604    12.000000000000
         H            0.076270593928     2.147478751024    -0.029211370604     1.007825032230
         H            0.076270593928    -2.147477248976    -0.029316370604     1.007825032230
         H           -2.426206406072     2.152162751024    -0.029146370604     1.007825032230
         H           -2.426206406072    -2.152161248976    -0.029265370604     1.007825032230
         H           -3.669749406072     0.000000751024    -0.029185370604     1.007825032230

  Basis Set: AUG-CC-PVTZ
    Blend: AUG-CC-PVTZ
  Basis Set: (AUG-CC-PVTZ AUX)
    Blend: AUG-CC-PVTZ-JKFIT
	 Reference Energy          =    -434.2933597734707405 [Eh]
	 Singles Energy            =      -0.0000000000000000 [Eh]
	 Same-Spin Energy          =      -0.4604314676106930 [Eh]
	 Opposite-Spin Energy      =      -1.3640283750745976 [Eh]
	 Correlation Energy        =      -1.8244598426852907 [Eh]
	 Total Energy              =    -436.1178196161560550 [Eh]

	 ================> DF-SCS-MP2 Energies <==================
	-----------------------------------------------------------
	 SCS Same-Spin Scale       =       0.3333333333333333 [-]
	 SCS Opposite-Spin Scale   =       1.2000000000000000 [-]
	 SCS Same-Spin Energy      =      -0.1534771558702310 [Eh]
	 SCS Opposite-Spin Energy  =      -1.6368340500895171 [Eh]
	 SCS Correlation Energy    =      -1.7903112059597481 [Eh]
	 SCS Total Energy          =    -436.0836709794305079 [Eh]
	-----------------------------------------------------------

  Dipole Moment: [D]
     X:    -4.4267      Y:     0.1429      Z:    -0.1441     Total:     4.4314

*** Psi4 exiting successfully. Buy a developer a beer!
