                               Psi4 1.3.2 release

  ==> Input File <==

--------------------------------------------------------------------------
#psi4
#
memory 32 gb

molecule  {
0 1
  O        2.2902000     1.1004440    -0.0001310
  O        2.2902000    -1.1004440     0.0000360
  N        1.7133150     0.0000000    -0.0000370
  C        0.2417700     0.0000000    -0.0000090
  C       -0.4248660     1.2226560     0.0000420
  C       -0.4248660    -1.2226560    -0.0000210
  C       -1.8195320     1.2101310     0.0000700
  C       -1.8195320    -1.2101310     0.0000040
  C       -2.5180540     0.0000000     0.0000560
  H        0.1410100     2.1474780     0.0000480
  H        0.1410100    -2.1474780    -0.0000570
  H       -2.3614716     2.1521676    -0.1998870
  H       -2.3614670    -2.1521620    -0.0000060
  H       -3.6050100     0.0000000     0.0000740
units angstrom
no_reorient  #important for SAPT in psi4, default
symmetry c1  #important for SAPT in psi4, default
}

set PROPERTIES_ORIGIN ["COM"]
properties('MP2/aug-cc-pvtz', properties = ['dipole'])
--------------------------------------------------------------------------

    Molecular point group: c1
  Charge       = 0
  Multiplicity = 1
  Basis Set: AUG-CC-PVTZ
    Blend: AUG-CC-PVTZ
  Basis Set: (AUG-CC-PVTZ AUX)
    Blend: AUG-CC-PVTZ-JKFIT

    Orbital Energies [Eh]
    ---------------------

    Doubly Occupied:

       1A    -20.605904     2A    -20.605854     3A    -15.856125
       4A    -11.314854     5A    -11.279256     6A    -11.279206
       7A    -11.276757     8A    -11.270133     9A    -11.268707
      10A     -1.589484    11A     -1.388109    12A     -1.199842
      13A     -1.093994    14A     -1.052797    15A     -0.963110
      16A     -0.865498    17A     -0.829947    18A     -0.777561
      19A     -0.724345    20A     -0.709993    21A     -0.708195
      22A     -0.655935    23A     -0.648929    24A     -0.624498
      25A     -0.556532    26A     -0.540201    27A     -0.528347
      28A     -0.496679    29A     -0.494911    30A     -0.453830
      31A     -0.378961    32A     -0.369825

  @DF-RHF Final Energy:  -434.32026903807690

   => Energetics <=

    Nuclear Repulsion Energy =            411.0574877907089899
    One-Electron Energy =               -1405.9388741719037625
    Two-Electron Energy =                 560.5611173431178713
    Total Energy =                       -434.3202690380768445
  Basis Set: (AUG-CC-PVTZ AUX)
    Blend: AUG-CC-PVTZ-RI
    Molecular point group: c1

    Geometry (in Angstrom), charge = 0, multiplicity = 1:

       Center              X                  Y                   Z               Mass
    ------------   -----------------  -----------------  -----------------  -----------------
         O            2.225461285098     1.100443954127     0.001508616072    15.994914619570
         O            2.225461285098    -1.100444045873     0.001675616072    15.994914619570
         N            1.648576285098    -0.000000045873     0.001602616072    14.003074004430
         C            0.177031285098    -0.000000045873     0.001630616072    12.000000000000
         C           -0.489604714902     1.222655954127     0.001681616072    12.000000000000
         C           -0.489604714902    -1.222656045873     0.001618616072    12.000000000000
         C           -1.884270714902     1.210130954127     0.001709616072    12.000000000000
         C           -1.884270714902    -1.210131045873     0.001643616072    12.000000000000
         C           -2.582792714902    -0.000000045873     0.001695616072    12.000000000000
         H            0.076271285098     2.147477954127     0.001687616072     1.007825032230
         H            0.076271285098    -2.147478045873     0.001582616072     1.007825032230
         H           -2.426210314902     2.152167554127    -0.198247383928     1.007825032230
         H           -2.426205714902    -2.152162045873     0.001633616072     1.007825032230
         H           -3.669748714902    -0.000000045873     0.001713616072     1.007825032230

  Basis Set: AUG-CC-PVTZ
    Blend: AUG-CC-PVTZ
  Basis Set: (AUG-CC-PVTZ AUX)
    Blend: AUG-CC-PVTZ-JKFIT
	 Reference Energy          =    -434.3202690380769013 [Eh]
	 Singles Energy            =      -0.0000000000000000 [Eh]
	 Same-Spin Energy          =      -0.4588293970388871 [Eh]
	 Opposite-Spin Energy      =      -1.3594436445136138 [Eh]
	 Correlation Energy        =      -1.8182730415525010 [Eh]
	 Total Energy              =    -436.1385420796294170 [Eh]

	 ================> DF-SCS-MP2 Energies <==================
	-----------------------------------------------------------
	 SCS Same-Spin Scale       =       0.3333333333333333 [-]
	 SCS Opposite-Spin Scale   =       1.2000000000000000 [-]
	 SCS Same-Spin Energy      =      -0.1529431323462957 [Eh]
	 SCS Opposite-Spin Energy  =      -1.6313323734163365 [Eh]
	 SCS Correlation Energy    =      -1.7842755057626323 [Eh]
	 SCS Total Energy          =    -436.1045445438395518 [Eh]
	-----------------------------------------------------------

  Dipole Moment: [D]
     X:    -4.3422      Y:    -0.0251      Z:    -0.1220     Total:     4.3440

*** Psi4 exiting successfully. Buy a developer a beer!
