                               Psi4 1.3.2 release

  ==> Input File <==

--------------------------------------------------------------------------
#psi4
#
memory 32 gb

molecule  {
0 1
  O        2.2902000     1.1004440    -0.0001310
  O        2.2902000    -1.1004440     0.0000360
  N        1.7133150     0.0000000    -0.0000370
  C        0.2417700     0.0000000    -0.0000090
  C       -0.4248660     1.2226560     0.0000420
  C       -0.4248660    -1.2226560    -0.0000210
  C       -1.8195320     1.2101310     0.0000700
  C       -1.8195320    -1.2101310     0.0000040
  C       -2.5180540     0.0000000     0.0000560
  H        0.1410100     2.1474780     0.0000480
  H        0.1410100    -2.1474780    -0.0000570
  H       -2.3614728     2.1521690    -0.2498870
  H       -2.3614670    -2.1521620    -0.0000060
  H       -3.6050100     0.0000000     0.0000740
units angstrom
no_reorient  #important for SAPT in psi4, default
symmetry c1  #important for SAPT in psi4, default
}

set PROPERTIES_ORIGIN ["COM"]
properties('MP2/aug-cc-pvtz', properties = ['dipole'])
--------------------------------------------------------------------------

    Molecular point group: c1
  Charge       = 0
  Multiplicity = 1
  Basis Set: AUG-CC-PVTZ
    Blend: AUG-CC-PVTZ
  Basis Set: (AUG-CC-PVTZ AUX)
    Blend: AUG-CC-PVTZ-JKFIT

    Orbital Energies [Eh]
    ---------------------

    Doubly Occupied:

       1A    -20.605965     2A    -20.605915     3A    -15.856186
       4A    -11.314931     5A    -11.279453     6A    -11.279393
       7A    -11.276926     8A    -11.270982     9A    -11.268779
      10A     -1.589546    11A     -1.388170    12A     -1.199926
      13A     -1.094007    14A     -1.052682    15A     -0.963190
      16A     -0.865126    17A     -0.829781    18A     -0.777224
      19A     -0.724392    20A     -0.710060    21A     -0.708303
      22A     -0.656021    23A     -0.647988    24A     -0.623806
      25A     -0.556638    26A     -0.541091    27A     -0.526628
      28A     -0.496662    29A     -0.494975    30A     -0.453888
      31A     -0.378978    32A     -0.369723

  @DF-RHF Final Energy:  -434.31866032273524

   => Energetics <=

    Nuclear Repulsion Energy =            411.0199112891136792
    One-Electron Energy =               -1405.8624795608641307
    Two-Electron Energy =                 560.5239079490152108
    Total Energy =                       -434.3186603227352407
  Basis Set: (AUG-CC-PVTZ AUX)
    Blend: AUG-CC-PVTZ-RI
    Molecular point group: c1

    Geometry (in Angstrom), charge = 0, multiplicity = 1:

       Center              X                  Y                   Z               Mass
    ------------   -----------------  -----------------  -----------------  -----------------
         O            2.225461294927     1.100443942659     0.001918194393    15.994914619570
         O            2.225461294927    -1.100444057341     0.002085194393    15.994914619570
         N            1.648576294927    -0.000000057341     0.002012194393    14.003074004430
         C            0.177031294927    -0.000000057341     0.002040194393    12.000000000000
         C           -0.489604705073     1.222655942659     0.002091194393    12.000000000000
         C           -0.489604705073    -1.222656057341     0.002028194393    12.000000000000
         C           -1.884270705073     1.210130942659     0.002119194393    12.000000000000
         C           -1.884270705073    -1.210131057341     0.002053194393    12.000000000000
         C           -2.582792705073    -0.000000057341     0.002105194393    12.000000000000
         H            0.076271294927     2.147477942659     0.002097194393     1.007825032230
         H            0.076271294927    -2.147478057341     0.001992194393     1.007825032230
         H           -2.426211505073     2.152168942659    -0.247837805607     1.007825032230
         H           -2.426205705073    -2.152162057341     0.002043194393     1.007825032230
         H           -3.669748705073    -0.000000057341     0.002123194393     1.007825032230

  Basis Set: AUG-CC-PVTZ
    Blend: AUG-CC-PVTZ
  Basis Set: (AUG-CC-PVTZ AUX)
    Blend: AUG-CC-PVTZ-JKFIT
	 Reference Energy          =    -434.3186603227352407 [Eh]
	 Singles Energy            =      -0.0000000000000000 [Eh]
	 Same-Spin Energy          =      -0.4588990159647762 [Eh]
	 Opposite-Spin Energy      =      -1.3596406333352453 [Eh]
	 Correlation Energy        =      -1.8185396493000217 [Eh]
	 Total Energy              =    -436.1371999720352619 [Eh]

	 ================> DF-SCS-MP2 Energies <==================
	-----------------------------------------------------------
	 SCS Same-Spin Scale       =       0.3333333333333333 [-]
	 SCS Opposite-Spin Scale   =       1.2000000000000000 [-]
	 SCS Same-Spin Energy      =      -0.1529663386549254 [Eh]
	 SCS Opposite-Spin Energy  =      -1.6315687600022943 [Eh]
	 SCS Correlation Energy    =      -1.7845350986572197 [Eh]
	 SCS Total Energy          =    -436.1031954213924564 [Eh]
	-----------------------------------------------------------

  Dipole Moment: [D]
     X:    -4.3326      Y:    -0.0390      Z:    -0.1518     Total:     4.3354

*** Psi4 exiting successfully. Buy a developer a beer!
