                               Psi4 1.3.2 release

  ==> Input File <==

--------------------------------------------------------------------------
#psi4
#
memory 32 gb

molecule  {
0 1
  O        2.2902000     1.1004440    -0.0001310
  O        2.2902000    -1.1004440     0.0000360
  N        1.7133150     0.0000000    -0.0000370
  C        0.2417700     0.0000000    -0.0000090
  C       -0.4248660     1.2226560     0.0000420
  C       -0.4248660    -1.2226560    -0.0000210
  C       -1.8195320     1.2101310     0.0000700
  C       -1.8195320    -1.2101310     0.0000040
  C       -2.5180540     0.0000000     0.0000560
  H        0.1410053     2.1474831    -0.1999520
  H        0.1410100    -2.1474780    -0.0000570
  H       -2.3614670     2.1521620     0.0001130
  H       -2.3614670    -2.1521620    -0.0000060
  H       -3.6050100     0.0000000     0.0000740
units angstrom
no_reorient  #important for SAPT in psi4, default
symmetry c1  #important for SAPT in psi4, default
}

set PROPERTIES_ORIGIN ["COM"]
properties('MP2/aug-cc-pvtz', properties = ['dipole'])
--------------------------------------------------------------------------

    Molecular point group: c1
  Charge       = 0
  Multiplicity = 1
  Basis Set: AUG-CC-PVTZ
    Blend: AUG-CC-PVTZ
  Basis Set: (AUG-CC-PVTZ AUX)
    Blend: AUG-CC-PVTZ-JKFIT

    Orbital Energies [Eh]
    ---------------------

    Doubly Occupied:

       1A    -20.605693     2A    -20.605639     3A    -15.855903
       4A    -11.314900     5A    -11.280332     6A    -11.278958
       7A    -11.276507     8A    -11.268921     9A    -11.268814
      10A     -1.589272    11A     -1.387880    12A     -1.199697
      13A     -1.094023    14A     -1.052686    15A     -0.962797
      16A     -0.865545    17A     -0.830128    18A     -0.777620
      19A     -0.724112    20A     -0.710160    21A     -0.706255
      22A     -0.655841    23A     -0.650066    24A     -0.624087
      25A     -0.556376    26A     -0.539414    27A     -0.529122
      28A     -0.496618    29A     -0.494507    30A     -0.453563
      31A     -0.378942    32A     -0.369790

  @DF-RHF Final Energy:  -434.32016768479514

   => Energetics <=

    Nuclear Repulsion Energy =            411.0484091023435553
    One-Electron Energy =               -1405.9288201104948257
    Two-Electron Energy =                 560.5602433233560760
    Total Energy =                       -434.3201676847951376
  Basis Set: (AUG-CC-PVTZ AUX)
    Blend: AUG-CC-PVTZ-RI
    Molecular point group: c1

    Geometry (in Angstrom), charge = 0, multiplicity = 1:

       Center              X                  Y                   Z               Mass
    ------------   -----------------  -----------------  -----------------  -----------------
         O            2.225461285917     1.100443958223     0.001508616072    15.994914619570
         O            2.225461285917    -1.100444041777     0.001675616072    15.994914619570
         N            1.648576285917    -0.000000041777     0.001602616072    14.003074004430
         C            0.177031285917    -0.000000041777     0.001630616072    12.000000000000
         C           -0.489604714083     1.222655958223     0.001681616072    12.000000000000
         C           -0.489604714083    -1.222656041777     0.001618616072    12.000000000000
         C           -1.884270714083     1.210130958223     0.001709616072    12.000000000000
         C           -1.884270714083    -1.210131041777     0.001643616072    12.000000000000
         C           -2.582792714083    -0.000000041777     0.001695616072    12.000000000000
         H            0.076266585917     2.147483058223    -0.198312383928     1.007825032230
         H            0.076271285917    -2.147478041777     0.001582616072     1.007825032230
         H           -2.426205714083     2.152161958223     0.001752616072     1.007825032230
         H           -2.426205714083    -2.152162041777     0.001633616072     1.007825032230
         H           -3.669748714083    -0.000000041777     0.001713616072     1.007825032230

  Basis Set: AUG-CC-PVTZ
    Blend: AUG-CC-PVTZ
  Basis Set: (AUG-CC-PVTZ AUX)
    Blend: AUG-CC-PVTZ-JKFIT
	 Reference Energy          =    -434.3201676847951376 [Eh]
	 Singles Energy            =      -0.0000000000000000 [Eh]
	 Same-Spin Energy          =      -0.4588941573774638 [Eh]
	 Opposite-Spin Energy      =      -1.3594912779119981 [Eh]
	 Correlation Energy        =      -1.8183854352894619 [Eh]
	 Total Energy              =    -436.1385531200846231 [Eh]

	 ================> DF-SCS-MP2 Energies <==================
	-----------------------------------------------------------
	 SCS Same-Spin Scale       =       0.3333333333333333 [-]
	 SCS Opposite-Spin Scale   =       1.2000000000000000 [-]
	 SCS Same-Spin Energy      =      -0.1529647191258213 [Eh]
	 SCS Opposite-Spin Energy  =      -1.6313895334943977 [Eh]
	 SCS Correlation Energy    =      -1.7843542526202190 [Eh]
	 SCS Total Energy          =    -436.1045219374153703 [Eh]
	-----------------------------------------------------------

  Dipole Moment: [D]
     X:    -4.3736      Y:    -0.0178      Z:    -0.1349     Total:     4.3757

*** Psi4 exiting successfully. Buy a developer a beer!
