                               Psi4 1.3.2 release

  ==> Input File <==

--------------------------------------------------------------------------
#psi4
#
memory 32 gb

molecule  {
0 1
  O        2.2902000     1.1004440    -0.0001310
  O        2.2902000    -1.1004440     0.0000360
  N        1.7133150     0.0000000    -0.0000370
  C        0.2417700     0.0000000    -0.0000090
  C       -0.4248660     1.2226560     0.0000420
  C       -0.4248604    -1.2226624     0.2499790
  C       -1.8195320     1.2101310     0.0000700
  C       -1.8195320    -1.2101310     0.0000040
  C       -2.5180540     0.0000000     0.0000560
  H        0.1410100     2.1474780     0.0000480
  H        0.1410100    -2.1474780    -0.0000570
  H       -2.3614670     2.1521620     0.0001130
  H       -2.3614670    -2.1521620    -0.0000060
  H       -3.6050100     0.0000000     0.0000740
units angstrom
no_reorient  #important for SAPT in psi4, default
symmetry c1  #important for SAPT in psi4, default
}

set PROPERTIES_ORIGIN ["COM"]
properties('MP2/aug-cc-pvtz', properties = ['dipole'])
--------------------------------------------------------------------------

    Molecular point group: c1
  Charge       = 0
  Multiplicity = 1
  Basis Set: AUG-CC-PVTZ
    Blend: AUG-CC-PVTZ
  Basis Set: (AUG-CC-PVTZ AUX)
    Blend: AUG-CC-PVTZ-JKFIT

    Orbital Energies [Eh]
    ---------------------

    Doubly Occupied:

       1A    -20.606067     2A    -20.605979     3A    -15.855800
       4A    -11.318873     5A    -11.283827     6A    -11.278356
       7A    -11.275867     8A    -11.273698     9A    -11.271287
      10A     -1.589458    11A     -1.388041    12A     -1.197199
      13A     -1.093624    14A     -1.050270    15A     -0.962115
      16A     -0.864336    17A     -0.827994    18A     -0.776132
      19A     -0.723863    20A     -0.710366    21A     -0.704203
      22A     -0.652443    23A     -0.648157    24A     -0.620373
      25A     -0.554761    26A     -0.537140    27A     -0.525381
      28A     -0.496623    29A     -0.494464    30A     -0.453526
      31A     -0.377222    32A     -0.369309

  @DF-RHF Final Energy:  -434.30250670354172

   => Energetics <=

    Nuclear Repulsion Energy =            410.3938615887387868
    One-Electron Energy =               -1404.6192259693693813
    Two-Electron Energy =                 559.9228576770888139
    Total Energy =                       -434.3025067035417806
  Basis Set: (AUG-CC-PVTZ AUX)
    Blend: AUG-CC-PVTZ-RI
    Molecular point group: c1

    Geometry (in Angstrom), charge = 0, multiplicity = 1:

       Center              X                  Y                   Z               Mass
    ------------   -----------------  -----------------  -----------------  -----------------
         O            2.225460701217     1.100444624228    -0.024513591705    15.994914619570
         O            2.225460701217    -1.100443375772    -0.024346591705    15.994914619570
         N            1.648575701217     0.000000624228    -0.024419591705    14.003074004430
         C            0.177030701217     0.000000624228    -0.024391591705    12.000000000000
         C           -0.489605298783     1.222656624228    -0.024340591705    12.000000000000
         C           -0.489599698783    -1.222661775772     0.225596408295    12.000000000000
         C           -1.884271298783     1.210131624228    -0.024312591705    12.000000000000
         C           -1.884271298783    -1.210130375772    -0.024378591705    12.000000000000
         C           -2.582793298783     0.000000624228    -0.024326591705    12.000000000000
         H            0.076270701217     2.147478624228    -0.024334591705     1.007825032230
         H            0.076270701217    -2.147477375772    -0.024439591705     1.007825032230
         H           -2.426206298783     2.152162624228    -0.024269591705     1.007825032230
         H           -2.426206298783    -2.152161375772    -0.024388591705     1.007825032230
         H           -3.669749298783     0.000000624228    -0.024308591705     1.007825032230

  Basis Set: AUG-CC-PVTZ
    Blend: AUG-CC-PVTZ
  Basis Set: (AUG-CC-PVTZ AUX)
    Blend: AUG-CC-PVTZ-JKFIT
	 Reference Energy          =    -434.3025067035417237 [Eh]
	 Singles Energy            =      -0.0000000000000000 [Eh]
	 Same-Spin Energy          =      -0.4599213441017720 [Eh]
	 Opposite-Spin Energy      =      -1.3625341398015438 [Eh]
	 Correlation Energy        =      -1.8224554839033158 [Eh]
	 Total Energy              =    -436.1249621874450213 [Eh]

	 ================> DF-SCS-MP2 Energies <==================
	-----------------------------------------------------------
	 SCS Same-Spin Scale       =       0.3333333333333333 [-]
	 SCS Opposite-Spin Scale   =       1.2000000000000000 [-]
	 SCS Same-Spin Energy      =      -0.1533071147005907 [Eh]
	 SCS Opposite-Spin Energy  =      -1.6350409677618525 [Eh]
	 SCS Correlation Energy    =      -1.7883480824624431 [Eh]
	 SCS Total Energy          =    -436.0908547860041722 [Eh]
	-----------------------------------------------------------

  Dipole Moment: [D]
     X:    -4.4064      Y:     0.0999      Z:    -0.1164     Total:     4.4090

*** Psi4 exiting successfully. Buy a developer a beer!
