                               Psi4 1.3.2 release

  ==> Input File <==

--------------------------------------------------------------------------
#psi4
#
memory 32 gb

molecule  {
0 1
  N        0.2222710     1.0128310     0.0000010
  N        0.7926860    -1.3208380    -0.0000020
  C       -1.5206760    -0.6557300    -0.0000030
  C       -2.4976210     0.2265170     0.7463830
  C       -2.4976210     0.2265190    -0.7463820
  C       -0.0883020    -0.2997600     0.0000010
  C        1.5276990     1.3180910     0.0000010
  C        2.0920280    -0.9819740     0.0000030
  C        2.5210310     0.3421130     0.0000010
  H       -1.7051520    -1.7251160     0.0000010
  H       -2.0735420     1.0920370     1.2438350
  H       -3.3111280    -0.2648640     1.2701610
  H       -3.3111290    -0.2648490    -1.2701700
  H       -2.0735380     1.0920430    -1.2438240
  H        1.7737980     2.3789750    -0.0000070
  H        2.8018760    -1.8077390    -0.0000100
  H        3.5748877     0.6009094     0.2999970
units angstrom
no_reorient  #important for SAPT in psi4, default
symmetry c1  #important for SAPT in psi4, default
}

set PROPERTIES_ORIGIN ["COM"]
properties('MP2/aug-cc-pvtz', properties = ['dipole'])
--------------------------------------------------------------------------

    Molecular point group: c1
  Charge       = 0
  Multiplicity = 1
  Basis Set: AUG-CC-PVTZ
    Blend: AUG-CC-PVTZ
  Basis Set: (AUG-CC-PVTZ AUX)
    Blend: AUG-CC-PVTZ-JKFIT

    Orbital Energies [Eh]
    ---------------------

    Doubly Occupied:

       1A    -15.567177     2A    -15.567119     3A    -11.320786
       4A    -11.299589     5A    -11.298260     6A    -11.245105
       7A    -11.234575     8A    -11.229080     9A    -11.228388
      10A     -1.305817    11A     -1.187325    12A     -1.149488
      13A     -1.063489    14A     -0.910547    15A     -0.890743
      16A     -0.821576    17A     -0.802819    18A     -0.717668
      19A     -0.697567    20A     -0.653133    21A     -0.630541
      22A     -0.606215    23A     -0.587933    24A     -0.576370
      25A     -0.527613    26A     -0.514617    27A     -0.476834
      28A     -0.440828    29A     -0.427455    30A     -0.418344
      31A     -0.408153    32A     -0.347877

  @DF-RHF Final Energy:  -378.72419617928773

   => Energetics <=

    Nuclear Repulsion Energy =            413.2474788419981451
    One-Electron Energy =               -1331.6372856222646988
    Two-Electron Energy =                 539.6656106009787663
    Total Energy =                       -378.7241961792877873
  Basis Set: (AUG-CC-PVTZ AUX)
    Blend: AUG-CC-PVTZ-RI
    Molecular point group: c1

    Geometry (in Angstrom), charge = 0, multiplicity = 1:

       Center              X                  Y                   Z               Mass
    ------------   -----------------  -----------------  -----------------  -----------------
         N            0.186514719754     1.021940097649    -0.002517260396    14.003074004430
         N            0.756929719754    -1.311728902351    -0.002520260396    14.003074004430
         C           -1.556432280246    -0.646620902351    -0.002521260396    12.000000000000
         C           -2.533377280246     0.235626097649     0.743864739604    12.000000000000
         C           -2.533377280246     0.235628097649    -0.748900260396    12.000000000000
         C           -0.124058280246    -0.290650902351    -0.002517260396    12.000000000000
         C            1.491942719754     1.327200097649    -0.002517260396    12.000000000000
         C            2.056271719754    -0.972864902351    -0.002515260396    12.000000000000
         C            2.485274719754     0.351222097649    -0.002517260396    12.000000000000
         H           -1.740908280246    -1.716006902351    -0.002517260396     1.007825032230
         H           -2.109298280246     1.101146097649     1.241316739604     1.007825032230
         H           -3.346884280246    -0.255754902351     1.267642739604     1.007825032230
         H           -3.346885280246    -0.255739902351    -1.272688260396     1.007825032230
         H           -2.109294280246     1.101152097649    -1.246342260396     1.007825032230
         H            1.738041719754     2.388084097649    -0.002525260396     1.007825032230
         H            2.766119719754    -1.798629902351    -0.002528260396     1.007825032230
         H            3.539131419754     0.610018497649     0.297478739604     1.007825032230

  Basis Set: AUG-CC-PVTZ
    Blend: AUG-CC-PVTZ
  Basis Set: (AUG-CC-PVTZ AUX)
    Blend: AUG-CC-PVTZ-JKFIT
	 Reference Energy          =    -378.7241961792877305 [Eh]
	 Singles Energy            =      -0.0000000000000000 [Eh]
	 Same-Spin Energy          =      -0.4134134704786950 [Eh]
	 Opposite-Spin Energy      =      -1.2911424338362787 [Eh]
	 Correlation Energy        =      -1.7045559043149736 [Eh]
	 Total Energy              =    -380.4287520836027170 [Eh]

	 ================> DF-SCS-MP2 Energies <==================
	-----------------------------------------------------------
	 SCS Same-Spin Scale       =       0.3333333333333333 [-]
	 SCS Opposite-Spin Scale   =       1.2000000000000000 [-]
	 SCS Same-Spin Energy      =      -0.1378044901595650 [Eh]
	 SCS Opposite-Spin Energy  =      -1.5493709206035344 [Eh]
	 SCS Correlation Energy    =      -1.6871754107630994 [Eh]
	 SCS Total Energy          =    -380.4113715900508055 [Eh]
	-----------------------------------------------------------

  Dipole Moment: [D]
     X:     1.3512      Y:     0.5924      Z:     0.1856     Total:     1.4870

*** Psi4 exiting successfully. Buy a developer a beer!
