                               Psi4 1.3.2 release

  ==> Input File <==

--------------------------------------------------------------------------
#psi4
#
memory 32 gb

molecule  {
0 1
  N        0.2222710     1.0128310     0.0000010
  N        0.7926860    -1.3208380    -0.0000020
  C       -1.5206760    -0.6557300    -0.0000030
  C       -2.4976210     0.2265170     0.7463830
  C       -2.4976210     0.2265190    -0.7463820
  C       -0.0883020    -0.2997600     0.0000010
  C        1.5276990     1.3180910     0.0000010
  C        2.0920280    -0.9819740     0.0000030
  C        2.5210310     0.3421130     0.0000010
  H       -1.7051520    -1.7251160     0.0000010
  H       -2.0735420     1.0920370     1.2438350
  H       -3.3111280    -0.2648640     1.2701610
  H       -3.3111290    -0.2648490    -1.2701700
  H       -2.0735380     1.0920430    -1.2438240
  H        1.7737980     2.3789750    -0.0000070
  H        2.8018756    -1.8077383    -0.1500100
  H        3.5748870     0.6009090    -0.0000030
units angstrom
no_reorient  #important for SAPT in psi4, default
symmetry c1  #important for SAPT in psi4, default
}

set PROPERTIES_ORIGIN ["COM"]
properties('MP2/aug-cc-pvtz', properties = ['dipole'])
--------------------------------------------------------------------------

    Molecular point group: c1
  Charge       = 0
  Multiplicity = 1
  Basis Set: AUG-CC-PVTZ
    Blend: AUG-CC-PVTZ
  Basis Set: (AUG-CC-PVTZ AUX)
    Blend: AUG-CC-PVTZ-JKFIT

    Orbital Energies [Eh]
    ---------------------

    Doubly Occupied:

       1A    -15.566956     2A    -15.566862     3A    -11.319989
       4A    -11.299030     5A    -11.298628     6A    -11.242101
       7A    -11.234123     8A    -11.228650     9A    -11.227963
      10A     -1.305365    11A     -1.186843    12A     -1.149098
      13A     -1.064319    14A     -0.911457    15A     -0.889948
      16A     -0.821189    17A     -0.802092    18A     -0.717913
      19A     -0.697896    20A     -0.656393    21A     -0.634899
      22A     -0.607010    23A     -0.587830    24A     -0.575323
      25A     -0.527184    26A     -0.514196    27A     -0.477373
      28A     -0.441451    29A     -0.427288    30A     -0.418178
      31A     -0.407165    32A     -0.348197

  @DF-RHF Final Energy:  -378.72859305741383

   => Energetics <=

    Nuclear Repulsion Energy =            413.3581086363242321
    One-Electron Energy =               -1331.8675859293666690
    Two-Electron Energy =                 539.7808842356286050
    Total Energy =                       -378.7285930574138320
  Basis Set: (AUG-CC-PVTZ AUX)
    Blend: AUG-CC-PVTZ-RI
    Molecular point group: c1

    Geometry (in Angstrom), charge = 0, multiplicity = 1:

       Center              X                  Y                   Z               Mass
    ------------   -----------------  -----------------  -----------------  -----------------
         N            0.186514728987     1.021940095131     0.001259919520    14.003074004430
         N            0.756929728987    -1.311728904869     0.001256919520    14.003074004430
         C           -1.556432271013    -0.646620904869     0.001255919520    12.000000000000
         C           -2.533377271013     0.235626095131     0.747641919520    12.000000000000
         C           -2.533377271013     0.235628095131    -0.745123080480    12.000000000000
         C           -0.124058271013    -0.290650904869     0.001259919520    12.000000000000
         C            1.491942728987     1.327200095131     0.001259919520    12.000000000000
         C            2.056271728987    -0.972864904869     0.001261919520    12.000000000000
         C            2.485274728987     0.351222095131     0.001259919520    12.000000000000
         H           -1.740908271013    -1.716006904869     0.001259919520     1.007825032230
         H           -2.109298271013     1.101146095131     1.245093919520     1.007825032230
         H           -3.346884271013    -0.255754904869     1.271419919520     1.007825032230
         H           -3.346885271013    -0.255739904869    -1.268911080480     1.007825032230
         H           -2.109294271013     1.101152095131    -1.242565080480     1.007825032230
         H            1.738041728987     2.388084095131     0.001251919520     1.007825032230
         H            2.766119328987    -1.798629204869    -0.148751080480     1.007825032230
         H            3.539130728987     0.610018095131     0.001255919520     1.007825032230

  Basis Set: AUG-CC-PVTZ
    Blend: AUG-CC-PVTZ
  Basis Set: (AUG-CC-PVTZ AUX)
    Blend: AUG-CC-PVTZ-JKFIT
	 Reference Energy          =    -378.7285930574138320 [Eh]
	 Singles Energy            =      -0.0000000000000000 [Eh]
	 Same-Spin Energy          =      -0.4133566305728463 [Eh]
	 Opposite-Spin Energy      =      -1.2909053782859619 [Eh]
	 Correlation Energy        =      -1.7042620088588083 [Eh]
	 Total Energy              =    -380.4328550662726229 [Eh]

	 ================> DF-SCS-MP2 Energies <==================
	-----------------------------------------------------------
	 SCS Same-Spin Scale       =       0.3333333333333333 [-]
	 SCS Opposite-Spin Scale   =       1.2000000000000000 [-]
	 SCS Same-Spin Energy      =      -0.1377855435242821 [Eh]
	 SCS Opposite-Spin Energy  =      -1.5490864539431541 [Eh]
	 SCS Correlation Energy    =      -1.6868719974674362 [Eh]
	 SCS Total Energy          =    -380.4154650548812810 [Eh]
	-----------------------------------------------------------

  Dipole Moment: [D]
     X:     1.4169      Y:     0.6203      Z:    -0.0702     Total:     1.5483

*** Psi4 exiting successfully. Buy a developer a beer!
