                               Psi4 1.3.2 release

  ==> Input File <==

--------------------------------------------------------------------------
#psi4
#
memory 32 gb

molecule  {
0 1
  N        0.2222710     1.0128310     0.0000010
  N        0.7926860    -1.3208380    -0.0000020
  C       -1.5206760    -0.6557300    -0.0000030
  C       -2.4976210     0.2265170     0.7463830
  C       -2.4976210     0.2265190    -0.7463820
  C       -0.0883020    -0.2997600     0.0000010
  C        1.5276990     1.3180910     0.0000010
  C        2.0920280    -0.9819740     0.0000030
  C        2.5210310     0.3421130     0.0000010
  H       -1.7051520    -1.7251160     0.0000010
  H       -2.0735420     1.0920370     1.2438350
  H       -3.3111280    -0.2648640     1.2701610
  H       -3.3111290    -0.2648490    -1.2701700
  H       -2.0735380     1.0920430    -1.2438240
  H        1.7737980     2.3789750    -0.0000070
  H        2.8018760    -1.8077390    -0.0000100
  H        3.5748874     0.6009092     0.1499970
units angstrom
no_reorient  #important for SAPT in psi4, default
symmetry c1  #important for SAPT in psi4, default
}

set PROPERTIES_ORIGIN ["COM"]
properties('MP2/aug-cc-pvtz', properties = ['dipole'])
--------------------------------------------------------------------------

    Molecular point group: c1
  Charge       = 0
  Multiplicity = 1
  Basis Set: AUG-CC-PVTZ
    Blend: AUG-CC-PVTZ
  Basis Set: (AUG-CC-PVTZ AUX)
    Blend: AUG-CC-PVTZ-JKFIT

    Orbital Energies [Eh]
    ---------------------

    Doubly Occupied:

       1A    -15.566897     2A    -15.566836     3A    -11.320105
       4A    -11.299105     5A    -11.297767     6A    -11.242745
       7A    -11.234195     8A    -11.228724     9A    -11.228038
      10A     -1.305401    11A     -1.186931    12A     -1.149156
      13A     -1.064112    14A     -0.911227    15A     -0.890529
      16A     -0.821252    17A     -0.802706    18A     -0.717963
      19A     -0.698051    20A     -0.655367    21A     -0.633965
      22A     -0.607029    23A     -0.587599    24A     -0.576879
      25A     -0.527314    26A     -0.514303    27A     -0.477175
      28A     -0.441232    29A     -0.427256    30A     -0.417958
      31A     -0.407899    32A     -0.348114

  @DF-RHF Final Energy:  -378.72879487695855

   => Energetics <=

    Nuclear Repulsion Energy =            413.3588921670669265
    One-Electron Energy =               -1331.8677166289342040
    Two-Electron Energy =                 539.7800295849087888
    Total Energy =                       -378.7287948769585455
  Basis Set: (AUG-CC-PVTZ AUX)
    Blend: AUG-CC-PVTZ-RI
    Molecular point group: c1

    Geometry (in Angstrom), charge = 0, multiplicity = 1:

       Center              X                  Y                   Z               Mass
    ------------   -----------------  -----------------  -----------------  -----------------
         N            0.186514722272     1.021940099328    -0.001258200424    14.003074004430
         N            0.756929722272    -1.311728900672    -0.001261200424    14.003074004430
         C           -1.556432277728    -0.646620900672    -0.001262200424    12.000000000000
         C           -2.533377277728     0.235626099328     0.745123799576    12.000000000000
         C           -2.533377277728     0.235628099328    -0.747641200424    12.000000000000
         C           -0.124058277728    -0.290650900672    -0.001258200424    12.000000000000
         C            1.491942722272     1.327200099328    -0.001258200424    12.000000000000
         C            2.056271722272    -0.972864900672    -0.001256200424    12.000000000000
         C            2.485274722272     0.351222099328    -0.001258200424    12.000000000000
         H           -1.740908277728    -1.716006900672    -0.001258200424     1.007825032230
         H           -2.109298277728     1.101146099328     1.242575799576     1.007825032230
         H           -3.346884277728    -0.255754900672     1.268901799576     1.007825032230
         H           -3.346885277728    -0.255739900672    -1.271429200424     1.007825032230
         H           -2.109294277728     1.101152099328    -1.245083200424     1.007825032230
         H            1.738041722272     2.388084099328    -0.001266200424     1.007825032230
         H            2.766119722272    -1.798629900672    -0.001269200424     1.007825032230
         H            3.539131122272     0.610018299328     0.148737799576     1.007825032230

  Basis Set: AUG-CC-PVTZ
    Blend: AUG-CC-PVTZ
  Basis Set: (AUG-CC-PVTZ AUX)
    Blend: AUG-CC-PVTZ-JKFIT
	 Reference Energy          =    -378.7287948769585455 [Eh]
	 Singles Energy            =      -0.0000000000000000 [Eh]
	 Same-Spin Energy          =      -0.4132944933732419 [Eh]
	 Opposite-Spin Energy      =      -1.2907933462971610 [Eh]
	 Correlation Energy        =      -1.7040878396704029 [Eh]
	 Total Energy              =    -380.4328827166289670 [Eh]

	 ================> DF-SCS-MP2 Energies <==================
	-----------------------------------------------------------
	 SCS Same-Spin Scale       =       0.3333333333333333 [-]
	 SCS Opposite-Spin Scale   =       1.2000000000000000 [-]
	 SCS Same-Spin Energy      =      -0.1377648311244140 [Eh]
	 SCS Opposite-Spin Energy  =      -1.5489520155565932 [Eh]
	 SCS Correlation Energy    =      -1.6867168466810072 [Eh]
	 SCS Total Energy          =    -380.4155117236395540 [Eh]
	-----------------------------------------------------------

  Dipole Moment: [D]
     X:     1.4103      Y:     0.6049      Z:     0.0939     Total:     1.5374

*** Psi4 exiting successfully. Buy a developer a beer!
