                               Psi4 1.3.2 release

  ==> Input File <==

--------------------------------------------------------------------------
#psi4
#
memory 32 gb

molecule  {
0 1
  N        0.2222710     1.0128310     0.0000010
  N        0.7926860    -1.3208380    -0.0000020
  C       -1.5206757    -0.6557296    -0.3000030
  C       -2.4976210     0.2265170     0.7463830
  C       -2.4976210     0.2265190    -0.7463820
  C       -0.0883020    -0.2997600     0.0000010
  C        1.5276990     1.3180910     0.0000010
  C        2.0920280    -0.9819740     0.0000030
  C        2.5210310     0.3421130     0.0000010
  H       -1.7051520    -1.7251160     0.0000010
  H       -2.0735420     1.0920370     1.2438350
  H       -3.3111280    -0.2648640     1.2701610
  H       -3.3111290    -0.2648490    -1.2701700
  H       -2.0735380     1.0920430    -1.2438240
  H        1.7737980     2.3789750    -0.0000070
  H        2.8018760    -1.8077390    -0.0000100
  H        3.5748870     0.6009090    -0.0000030
units angstrom
no_reorient  #important for SAPT in psi4, default
symmetry c1  #important for SAPT in psi4, default
}

set PROPERTIES_ORIGIN ["COM"]
properties('MP2/aug-cc-pvtz', properties = ['dipole'])
--------------------------------------------------------------------------

    Molecular point group: c1
  Charge       = 0
  Multiplicity = 1
  Basis Set: AUG-CC-PVTZ
    Blend: AUG-CC-PVTZ
  Basis Set: (AUG-CC-PVTZ AUX)
    Blend: AUG-CC-PVTZ-JKFIT

    Orbital Energies [Eh]
    ---------------------

    Doubly Occupied:

       1A    -15.566630     2A    -15.566063     3A    -11.324701
       4A    -11.298838     5A    -11.297821     6A    -11.246840
       7A    -11.241116     8A    -11.231844     9A    -11.231123
      10A     -1.304877    11A     -1.186680    12A     -1.151474
      13A     -1.064234    14A     -0.907825    15A     -0.890048
      16A     -0.831097    17A     -0.797269    18A     -0.715865
      19A     -0.697398    20A     -0.657277    21A     -0.632606
      22A     -0.605426    23A     -0.587217    24A     -0.577219
      25A     -0.523868    26A     -0.511615    27A     -0.494371
      28A     -0.467856    29A     -0.418438    30A     -0.408040
      31A     -0.398355    32A     -0.326537

  @DF-RHF Final Energy:  -378.69015419450898

   => Energetics <=

    Nuclear Repulsion Energy =            412.6934408440567950
    One-Electron Energy =               -1330.4460620041966195
    Two-Electron Energy =                 539.0624669656308470
    Total Energy =                       -378.6901541945089775
  Basis Set: (AUG-CC-PVTZ AUX)
    Blend: AUG-CC-PVTZ-RI
    Molecular point group: c1

    Geometry (in Angstrom), charge = 0, multiplicity = 1:

       Center              X                  Y                   Z               Mass
    ------------   -----------------  -----------------  -----------------  -----------------
         N            0.186514695647     1.021940061029     0.029983682322    14.003074004430
         N            0.756929695647    -1.311728938971     0.029980682322    14.003074004430
         C           -1.556432004353    -0.646620538971    -0.270020317678    12.000000000000
         C           -2.533377304353     0.235626061029     0.776365682322    12.000000000000
         C           -2.533377304353     0.235628061029    -0.716399317678    12.000000000000
         C           -0.124058304353    -0.290650938971     0.029983682322    12.000000000000
         C            1.491942695647     1.327200061029     0.029983682322    12.000000000000
         C            2.056271695647    -0.972864938971     0.029985682322    12.000000000000
         C            2.485274695647     0.351222061029     0.029983682322    12.000000000000
         H           -1.740908304353    -1.716006938971     0.029983682322     1.007825032230
         H           -2.109298304353     1.101146061029     1.273817682322     1.007825032230
         H           -3.346884304353    -0.255754938971     1.300143682322     1.007825032230
         H           -3.346885304353    -0.255739938971    -1.240187317678     1.007825032230
         H           -2.109294304353     1.101152061029    -1.213841317678     1.007825032230
         H            1.738041695647     2.388084061029     0.029975682322     1.007825032230
         H            2.766119695647    -1.798629938971     0.029972682322     1.007825032230
         H            3.539130695647     0.610018061029     0.029979682322     1.007825032230

  Basis Set: AUG-CC-PVTZ
    Blend: AUG-CC-PVTZ
  Basis Set: (AUG-CC-PVTZ AUX)
    Blend: AUG-CC-PVTZ-JKFIT
	 Reference Energy          =    -378.6901541945089775 [Eh]
	 Singles Energy            =      -0.0000000000000000 [Eh]
	 Same-Spin Energy          =      -0.4155136083661803 [Eh]
	 Opposite-Spin Energy      =      -1.2956115088058779 [Eh]
	 Correlation Energy        =      -1.7111251171720583 [Eh]
	 Total Energy              =    -380.4012793116810371 [Eh]

	 ================> DF-SCS-MP2 Energies <==================
	-----------------------------------------------------------
	 SCS Same-Spin Scale       =       0.3333333333333333 [-]
	 SCS Opposite-Spin Scale   =       1.2000000000000000 [-]
	 SCS Same-Spin Energy      =      -0.1385045361220601 [Eh]
	 SCS Opposite-Spin Energy  =      -1.5547338105670534 [Eh]
	 SCS Correlation Energy    =      -1.6932383466891134 [Eh]
	 SCS Total Energy          =    -380.3833925411980772 [Eh]
	-----------------------------------------------------------

  Dipole Moment: [D]
     X:     1.3387      Y:     0.6396      Z:    -0.1065     Total:     1.4874

*** Psi4 exiting successfully. Buy a developer a beer!
