                               Psi4 1.3.2 release

  ==> Input File <==

--------------------------------------------------------------------------
#psi4
#
memory 32 gb

molecule  {
0 1
  N        0.2222710     1.0128310     0.0000010
  N        0.7926860    -1.3208380    -0.0000020
  C       -1.5206760    -0.6557300    -0.0000030
  C       -2.4976210     0.2265170     0.7463830
  C       -2.4976210     0.2265190    -0.7463820
  C       -0.0883020    -0.2997600     0.0000010
  C        1.5276990     1.3180910     0.0000010
  C        2.0920280    -0.9819740     0.0000030
  C        2.5210310     0.3421130     0.0000010
  H       -1.7051520    -1.7251160     0.0000010
  H       -2.0735420     1.0920370     1.2438350
  H       -3.3111280    -0.2648640     1.2701610
  H       -3.3111290    -0.2648490    -1.2701700
  H       -2.0735380     1.0920430    -1.2438240
  H        1.7737980     2.3789750    -0.0000070
  H        2.8018753    -1.8077378    -0.2500100
  H        3.5748870     0.6009090    -0.0000030
units angstrom
no_reorient  #important for SAPT in psi4, default
symmetry c1  #important for SAPT in psi4, default
}

set PROPERTIES_ORIGIN ["COM"]
properties('MP2/aug-cc-pvtz', properties = ['dipole'])
--------------------------------------------------------------------------

    Molecular point group: c1
  Charge       = 0
  Multiplicity = 1
  Basis Set: AUG-CC-PVTZ
    Blend: AUG-CC-PVTZ
  Basis Set: (AUG-CC-PVTZ AUX)
    Blend: AUG-CC-PVTZ-JKFIT

    Orbital Energies [Eh]
    ---------------------

    Doubly Occupied:

       1A    -15.567228     2A    -15.567076     3A    -11.320197
       4A    -11.300408     5A    -11.299185     6A    -11.242395
       7A    -11.234225     8A    -11.228735     9A    -11.228044
      10A     -1.305551    11A     -1.186927    12A     -1.149194
      13A     -1.064290    14A     -0.911434    15A     -0.889108
      16A     -0.821272    17A     -0.801122    18A     -0.717609
      19A     -0.697260    20A     -0.656447    21A     -0.634751
      22A     -0.606682    23A     -0.588204    24A     -0.572489
      25A     -0.527122    26A     -0.514194    27A     -0.477553
      28A     -0.441586    29A     -0.427469    30A     -0.418714
      31A     -0.406110    32A     -0.348190

  @DF-RHF Final Energy:  -378.72561013598408

   => Energetics <=

    Nuclear Repulsion Energy =            413.2898521694491478
    One-Electron Energy =               -1331.7293805791412069
    Two-Electron Energy =                 539.7139182737079182
    Total Energy =                       -378.7256101359840841
  Basis Set: (AUG-CC-PVTZ AUX)
    Blend: AUG-CC-PVTZ-RI
    Molecular point group: c1

    Geometry (in Angstrom), charge = 0, multiplicity = 1:

       Center              X                  Y                   Z               Mass
    ------------   -----------------  -----------------  -----------------  -----------------
         N            0.186514731505     1.021940090934     0.002099292835    14.003074004430
         N            0.756929731505    -1.311728909066     0.002096292835    14.003074004430
         C           -1.556432268495    -0.646620909066     0.002095292835    12.000000000000
         C           -2.533377268495     0.235626090934     0.748481292835    12.000000000000
         C           -2.533377268495     0.235628090934    -0.744283707165    12.000000000000
         C           -0.124058268495    -0.290650909066     0.002099292835    12.000000000000
         C            1.491942731505     1.327200090934     0.002099292835    12.000000000000
         C            2.056271731505    -0.972864909066     0.002101292835    12.000000000000
         C            2.485274731505     0.351222090934     0.002099292835    12.000000000000
         H           -1.740908268495    -1.716006909066     0.002099292835     1.007825032230
         H           -2.109298268495     1.101146090934     1.245933292835     1.007825032230
         H           -3.346884268495    -0.255754909066     1.272259292835     1.007825032230
         H           -3.346885268495    -0.255739909066    -1.268071707165     1.007825032230
         H           -2.109294268495     1.101152090934    -1.241725707165     1.007825032230
         H            1.738041731505     2.388084090934     0.002091292835     1.007825032230
         H            2.766119031505    -1.798628709066    -0.247911707165     1.007825032230
         H            3.539130731505     0.610018090934     0.002095292835     1.007825032230

  Basis Set: AUG-CC-PVTZ
    Blend: AUG-CC-PVTZ
  Basis Set: (AUG-CC-PVTZ AUX)
    Blend: AUG-CC-PVTZ-JKFIT
	 Reference Energy          =    -378.7256101359840841 [Eh]
	 Singles Energy            =      -0.0000000000000000 [Eh]
	 Same-Spin Energy          =      -0.4135380606259225 [Eh]
	 Opposite-Spin Energy      =      -1.2913048321099061 [Eh]
	 Correlation Energy        =      -1.7048428927358286 [Eh]
	 Total Energy              =    -380.4304530287199100 [Eh]

	 ================> DF-SCS-MP2 Energies <==================
	-----------------------------------------------------------
	 SCS Same-Spin Scale       =       0.3333333333333333 [-]
	 SCS Opposite-Spin Scale   =       1.2000000000000000 [-]
	 SCS Same-Spin Energy      =      -0.1378460202086408 [Eh]
	 SCS Opposite-Spin Energy  =      -1.5495657985318874 [Eh]
	 SCS Correlation Energy    =      -1.6874118187405283 [Eh]
	 SCS Total Energy          =    -380.4130219547246270 [Eh]
	-----------------------------------------------------------

  Dipole Moment: [D]
     X:     1.3929      Y:     0.6402      Z:    -0.1159     Total:     1.5373

*** Psi4 exiting successfully. Buy a developer a beer!
