                               Psi4 1.3.2 release

  ==> Input File <==

--------------------------------------------------------------------------
#psi4
#
memory 32 gb

molecule  {
0 1
  N        0.2222710     1.0128310     0.0000010
  N        0.7926860    -1.3208380    -0.0000020
  C       -1.5206760    -0.6557300    -0.0000030
  C       -2.4976210     0.2265170     0.7463830
  C       -2.4976210     0.2265190    -0.7463820
  C       -0.0883020    -0.2997600     0.0000010
  C        1.5276990     1.3180910     0.0000010
  C        2.0920280    -0.9819740     0.0000030
  C        2.5210310     0.3421130     0.0000010
  H       -1.7051520    -1.7251160     0.0000010
  H       -2.0735420     1.0920370     1.2438350
  H       -3.3111280    -0.2648640     1.2701610
  H       -3.3111290    -0.2648490    -1.2701700
  H       -2.0735380     1.0920430    -1.2438240
  H        1.7737980     2.3789750    -0.0000070
  H        2.8018754    -1.8077381    -0.2000100
  H        3.5748870     0.6009090    -0.0000030
units angstrom
no_reorient  #important for SAPT in psi4, default
symmetry c1  #important for SAPT in psi4, default
}

set PROPERTIES_ORIGIN ["COM"]
properties('MP2/aug-cc-pvtz', properties = ['dipole'])
--------------------------------------------------------------------------

    Molecular point group: c1
  Charge       = 0
  Multiplicity = 1
  Basis Set: AUG-CC-PVTZ
    Blend: AUG-CC-PVTZ
  Basis Set: (AUG-CC-PVTZ AUX)
    Blend: AUG-CC-PVTZ-JKFIT

    Orbital Energies [Eh]
    ---------------------

    Doubly Occupied:

       1A    -15.567075     2A    -15.566956     3A    -11.320079
       4A    -11.299413     5A    -11.299097     6A    -11.242229
       7A    -11.234167     8A    -11.228687     9A    -11.227999
      10A     -1.305446    11A     -1.186878    12A     -1.149140
      13A     -1.064304    14A     -0.911442    15A     -0.889570
      16A     -0.821225    17A     -0.801657    18A     -0.717771
      19A     -0.697614    20A     -0.656415    21A     -0.634832
      22A     -0.606861    23A     -0.588022    24A     -0.574058
      25A     -0.527160    26A     -0.514195    27A     -0.477452
      28A     -0.441510    29A     -0.427367    30A     -0.418424
      31A     -0.406690    32A     -0.348193

  @DF-RHF Final Energy:  -378.72731779960867

   => Energetics <=

    Nuclear Repulsion Energy =            413.3279374683447713
    One-Electron Energy =               -1331.8066501174016594
    Two-Electron Energy =                 539.7513948494481610
    Total Energy =                       -378.7273177996087270
  Basis Set: (AUG-CC-PVTZ AUX)
    Blend: AUG-CC-PVTZ-RI
    Molecular point group: c1

    Geometry (in Angstrom), charge = 0, multiplicity = 1:

       Center              X                  Y                   Z               Mass
    ------------   -----------------  -----------------  -----------------  -----------------
         N            0.186514730666     1.021940093452     0.001679606177    14.003074004430
         N            0.756929730666    -1.311728906548     0.001676606177    14.003074004430
         C           -1.556432269334    -0.646620906548     0.001675606177    12.000000000000
         C           -2.533377269334     0.235626093452     0.748061606177    12.000000000000
         C           -2.533377269334     0.235628093452    -0.744703393823    12.000000000000
         C           -0.124058269334    -0.290650906548     0.001679606177    12.000000000000
         C            1.491942730666     1.327200093452     0.001679606177    12.000000000000
         C            2.056271730666    -0.972864906548     0.001681606177    12.000000000000
         C            2.485274730666     0.351222093452     0.001679606177    12.000000000000
         H           -1.740908269334    -1.716006906548     0.001679606177     1.007825032230
         H           -2.109298269334     1.101146093452     1.245513606177     1.007825032230
         H           -3.346884269334    -0.255754906548     1.271839606177     1.007825032230
         H           -3.346885269334    -0.255739906548    -1.268491393823     1.007825032230
         H           -2.109294269334     1.101152093452    -1.242145393823     1.007825032230
         H            1.738041730666     2.388084093452     0.001671606177     1.007825032230
         H            2.766119130666    -1.798629006548    -0.198331393823     1.007825032230
         H            3.539130730666     0.610018093452     0.001675606177     1.007825032230

  Basis Set: AUG-CC-PVTZ
    Blend: AUG-CC-PVTZ
  Basis Set: (AUG-CC-PVTZ AUX)
    Blend: AUG-CC-PVTZ-JKFIT
	 Reference Energy          =    -378.7273177996086702 [Eh]
	 Singles Energy            =      -0.0000000000000000 [Eh]
	 Same-Spin Energy          =      -0.4134362691316505 [Eh]
	 Opposite-Spin Energy      =      -1.2910759108297090 [Eh]
	 Correlation Energy        =      -1.7045121799613594 [Eh]
	 Total Energy              =    -380.4318299795700113 [Eh]

	 ================> DF-SCS-MP2 Energies <==================
	-----------------------------------------------------------
	 SCS Same-Spin Scale       =       0.3333333333333333 [-]
	 SCS Opposite-Spin Scale   =       1.2000000000000000 [-]
	 SCS Same-Spin Energy      =      -0.1378120897105502 [Eh]
	 SCS Opposite-Spin Energy  =      -1.5492910929956507 [Eh]
	 SCS Correlation Energy    =      -1.6871031827062009 [Eh]
	 SCS Total Energy          =    -380.4144209823148799 [Eh]
	-----------------------------------------------------------

  Dipole Moment: [D]
     X:     1.4063      Y:     0.6290      Z:    -0.0932     Total:     1.5434

*** Psi4 exiting successfully. Buy a developer a beer!
