                               Psi4 1.3.2 release

  ==> Input File <==

--------------------------------------------------------------------------
#psi4
#
memory 32 gb

molecule  {
0 1
  N        0.2222710     1.0128310     0.0000010
  N        0.7926860    -1.3208380    -0.0000020
  C       -1.5206760    -0.6557299    -0.0500030
  C       -2.4976210     0.2265170     0.7463830
  C       -2.4976210     0.2265190    -0.7463820
  C       -0.0883020    -0.2997600     0.0000010
  C        1.5276990     1.3180910     0.0000010
  C        2.0920280    -0.9819740     0.0000030
  C        2.5210310     0.3421130     0.0000010
  H       -1.7051520    -1.7251160     0.0000010
  H       -2.0735420     1.0920370     1.2438350
  H       -3.3111280    -0.2648640     1.2701610
  H       -3.3111290    -0.2648490    -1.2701700
  H       -2.0735380     1.0920430    -1.2438240
  H        1.7737980     2.3789750    -0.0000070
  H        2.8018760    -1.8077390    -0.0000100
  H        3.5748870     0.6009090    -0.0000030
units angstrom
no_reorient  #important for SAPT in psi4, default
symmetry c1  #important for SAPT in psi4, default
}

set PROPERTIES_ORIGIN ["COM"]
properties('MP2/aug-cc-pvtz', properties = ['dipole'])
--------------------------------------------------------------------------

    Molecular point group: c1
  Charge       = 0
  Multiplicity = 1
  Basis Set: AUG-CC-PVTZ
    Blend: AUG-CC-PVTZ
  Basis Set: (AUG-CC-PVTZ AUX)
    Blend: AUG-CC-PVTZ-JKFIT

    Orbital Energies [Eh]
    ---------------------

    Doubly Occupied:

       1A    -15.566804     2A    -15.566725     3A    -11.320026
       4A    -11.298944     5A    -11.297614     6A    -11.241914
       7A    -11.234464     8A    -11.228751     9A    -11.227946
      10A     -1.305255    11A     -1.186800    12A     -1.149127
      13A     -1.064347    14A     -0.911388    15A     -0.890451
      16A     -0.821455    17A     -0.802499    18A     -0.718052
      19A     -0.698248    20A     -0.656396    21A     -0.634930
      22A     -0.607170    23A     -0.587482    24A     -0.577062
      25A     -0.526994    26A     -0.514169    27A     -0.477423
      28A     -0.445332    29A     -0.423794    30A     -0.417746
      31A     -0.407783    32A     -0.347491

  @DF-RHF Final Energy:  -378.72900486528221

   => Energetics <=

    Nuclear Repulsion Energy =            413.3779426148467451
    One-Electron Energy =               -1331.9047267229457248
    Two-Electron Energy =                 539.7977792428167731
    Total Energy =                       -378.7290048652822634
  Basis Set: (AUG-CC-PVTZ AUX)
    Blend: AUG-CC-PVTZ-RI
    Molecular point group: c1

    Geometry (in Angstrom), charge = 0, multiplicity = 1:

       Center              X                  Y                   Z               Mass
    ------------   -----------------  -----------------  -----------------  -----------------
         N            0.186514725629     1.021940091012     0.004997996677    14.003074004430
         N            0.756929725629    -1.311728908988     0.004994996677    14.003074004430
         C           -1.556432274371    -0.646620808988    -0.045006003323    12.000000000000
         C           -2.533377274371     0.235626091012     0.751379996677    12.000000000000
         C           -2.533377274371     0.235628091012    -0.741385003323    12.000000000000
         C           -0.124058274371    -0.290650908988     0.004997996677    12.000000000000
         C            1.491942725629     1.327200091012     0.004997996677    12.000000000000
         C            2.056271725629    -0.972864908988     0.004999996677    12.000000000000
         C            2.485274725629     0.351222091012     0.004997996677    12.000000000000
         H           -1.740908274371    -1.716006908988     0.004997996677     1.007825032230
         H           -2.109298274371     1.101146091012     1.248831996677     1.007825032230
         H           -3.346884274371    -0.255754908988     1.275157996677     1.007825032230
         H           -3.346885274371    -0.255739908988    -1.265173003323     1.007825032230
         H           -2.109294274371     1.101152091012    -1.238827003323     1.007825032230
         H            1.738041725629     2.388084091012     0.004989996677     1.007825032230
         H            2.766119725629    -1.798629908988     0.004986996677     1.007825032230
         H            3.539130725629     0.610018091012     0.004993996677     1.007825032230

  Basis Set: AUG-CC-PVTZ
    Blend: AUG-CC-PVTZ
  Basis Set: (AUG-CC-PVTZ AUX)
    Blend: AUG-CC-PVTZ-JKFIT
	 Reference Energy          =    -378.7290048652822065 [Eh]
	 Singles Energy            =      -0.0000000000000000 [Eh]
	 Same-Spin Energy          =      -0.4133193561492435 [Eh]
	 Opposite-Spin Energy      =      -1.2908439739131339 [Eh]
	 Correlation Energy        =      -1.7041633300623773 [Eh]
	 Total Energy              =    -380.4331681953445923 [Eh]

	 ================> DF-SCS-MP2 Energies <==================
	-----------------------------------------------------------
	 SCS Same-Spin Scale       =       0.3333333333333333 [-]
	 SCS Opposite-Spin Scale   =       1.2000000000000000 [-]
	 SCS Same-Spin Energy      =      -0.1377731187164145 [Eh]
	 SCS Opposite-Spin Energy  =      -1.5490127686957607 [Eh]
	 SCS Correlation Energy    =      -1.6867858874121753 [Eh]
	 SCS Total Energy          =    -380.4157907526943632 [Eh]
	-----------------------------------------------------------

  Dipole Moment: [D]
     X:     1.4281      Y:     0.6094      Z:    -0.0231     Total:     1.5529

*** Psi4 exiting successfully. Buy a developer a beer!
