                               Psi4 1.3.2 release

  ==> Input File <==

--------------------------------------------------------------------------
#psi4
#
memory 32 gb

molecule  {
0 1
  N        0.2222710     1.0128310     0.0000010
  N        0.7926860    -1.3208380    -0.0000020
  C       -1.5206760    -0.6557300    -0.0000030
  C       -2.4976210     0.2265170     0.7463830
  C       -2.4976210     0.2265190    -0.7463820
  C       -0.0883020    -0.2997600     0.0000010
  C        1.5276990     1.3180910     0.0000010
  C        2.0920280    -0.9819740     0.0000030
  C        2.5210310     0.3421130     0.0000010
  H       -1.7051520    -1.7251160     0.0000010
  H       -2.0735420     1.0920370     1.2438350
  H       -3.3111280    -0.2648640     1.2701610
  H       -3.3111290    -0.2648490    -1.2701700
  H       -2.0735380     1.0920430    -1.2438240
  H        1.7737980     2.3789750    -0.0000070
  H        2.8018760    -1.8077390    -0.0000100
  H        3.5748871     0.6009091     0.0499970
units angstrom
no_reorient  #important for SAPT in psi4, default
symmetry c1  #important for SAPT in psi4, default
}

set PROPERTIES_ORIGIN ["COM"]
properties('MP2/aug-cc-pvtz', properties = ['dipole'])
--------------------------------------------------------------------------

    Molecular point group: c1
  Charge       = 0
  Multiplicity = 1
  Basis Set: AUG-CC-PVTZ
    Blend: AUG-CC-PVTZ
  Basis Set: (AUG-CC-PVTZ AUX)
    Blend: AUG-CC-PVTZ-JKFIT

    Orbital Energies [Eh]
    ---------------------

    Doubly Occupied:

       1A    -15.566816     2A    -15.566753     3A    -11.319899
       4A    -11.298962     5A    -11.297622     6A    -11.242027
       7A    -11.234081     8A    -11.228616     9A    -11.227932
      10A     -1.305277    11A     -1.186815    12A     -1.149057
      13A     -1.064317    14A     -0.911456    15A     -0.890467
      16A     -0.821155    17A     -0.802680    18A     -0.718097
      19A     -0.698242    20A     -0.656251    21A     -0.634881
      22A     -0.607195    23A     -0.587500    24A     -0.577017
      25A     -0.527223    26A     -0.514208    27A     -0.477262
      28A     -0.441359    29A     -0.427193    30A     -0.417842
      31A     -0.407826    32A     -0.348192

  @DF-RHF Final Energy:  -378.73001095402248

   => Energetics <=

    Nuclear Repulsion Energy =            413.3932896121053204
    One-Electron Energy =               -1331.9381605272485558
    Two-Electron Energy =                 539.8148599611207601
    Total Energy =                       -378.7300109540225321
  Basis Set: (AUG-CC-PVTZ AUX)
    Blend: AUG-CC-PVTZ-RI
    Molecular point group: c1

    Geometry (in Angstrom), charge = 0, multiplicity = 1:

       Center              X                  Y                   Z               Mass
    ------------   -----------------  -----------------  -----------------  -----------------
         N            0.186514724790     1.021940100167    -0.000418827109    14.003074004430
         N            0.756929724790    -1.311728899833    -0.000421827109    14.003074004430
         C           -1.556432275210    -0.646620899833    -0.000422827109    12.000000000000
         C           -2.533377275210     0.235626100167     0.745963172891    12.000000000000
         C           -2.533377275210     0.235628100167    -0.746801827109    12.000000000000
         C           -0.124058275210    -0.290650899833    -0.000418827109    12.000000000000
         C            1.491942724790     1.327200100167    -0.000418827109    12.000000000000
         C            2.056271724790    -0.972864899833    -0.000416827109    12.000000000000
         C            2.485274724790     0.351222100167    -0.000418827109    12.000000000000
         H           -1.740908275210    -1.716006899833    -0.000418827109     1.007825032230
         H           -2.109298275210     1.101146100167     1.243415172891     1.007825032230
         H           -3.346884275210    -0.255754899833     1.269741172891     1.007825032230
         H           -3.346885275210    -0.255739899833    -1.270589827109     1.007825032230
         H           -2.109294275210     1.101152100167    -1.244243827109     1.007825032230
         H            1.738041724790     2.388084100167    -0.000426827109     1.007825032230
         H            2.766119724790    -1.798629899833    -0.000429827109     1.007825032230
         H            3.539130824790     0.610018200167     0.049577172891     1.007825032230

  Basis Set: AUG-CC-PVTZ
    Blend: AUG-CC-PVTZ
  Basis Set: (AUG-CC-PVTZ AUX)
    Blend: AUG-CC-PVTZ-JKFIT
	 Reference Energy          =    -378.7300109540224753 [Eh]
	 Singles Energy            =      -0.0000000000000000 [Eh]
	 Same-Spin Energy          =      -0.4132586734578881 [Eh]
	 Opposite-Spin Energy      =      -1.2907128835048911 [Eh]
	 Correlation Energy        =      -1.7039715569627791 [Eh]
	 Total Energy              =    -380.4339825109852313 [Eh]

	 ================> DF-SCS-MP2 Energies <==================
	-----------------------------------------------------------
	 SCS Same-Spin Scale       =       0.3333333333333333 [-]
	 SCS Opposite-Spin Scale   =       1.2000000000000000 [-]
	 SCS Same-Spin Energy      =      -0.1377528911526294 [Eh]
	 SCS Opposite-Spin Energy  =      -1.5488554602058693 [Eh]
	 SCS Correlation Energy    =      -1.6866083513584986 [Eh]
	 SCS Total Energy          =    -380.4166193053809479 [Eh]
	-----------------------------------------------------------

  Dipole Moment: [D]
     X:     1.4282      Y:     0.6086      Z:     0.0314     Total:     1.5528

*** Psi4 exiting successfully. Buy a developer a beer!
