                               Psi4 1.3.2 release

  ==> Input File <==

--------------------------------------------------------------------------
#psi4
#
memory 32 gb

molecule  {
0 1
  N        0.2222710     1.0128310     0.0000010
  N        0.7926860    -1.3208380    -0.0000020
  C       -1.5206760    -0.6557300    -0.0000030
  C       -2.4976210     0.2265170     0.7463830
  C       -2.4976210     0.2265190    -0.7463820
  C       -0.0883020    -0.2997600     0.0000010
  C        1.5276990     1.3180910     0.0000010
  C        2.0920280    -0.9819740     0.0000030
  C        2.5210310     0.3421130     0.0000010
  H       -1.7051520    -1.7251160     0.0000010
  H       -2.0735420     1.0920370     1.2438350
  H       -3.3111280    -0.2648640     1.2701610
  H       -3.3111290    -0.2648490    -1.2701700
  H       -2.0735380     1.0920430    -1.2438240
  H        1.7737980     2.3789750    -0.0000070
  H        2.8018760    -1.8077390    -0.0000100
  H        3.5748872     0.6009091     0.0999970
units angstrom
no_reorient  #important for SAPT in psi4, default
symmetry c1  #important for SAPT in psi4, default
}

set PROPERTIES_ORIGIN ["COM"]
properties('MP2/aug-cc-pvtz', properties = ['dipole'])
--------------------------------------------------------------------------

    Molecular point group: c1
  Charge       = 0
  Multiplicity = 1
  Basis Set: AUG-CC-PVTZ
    Blend: AUG-CC-PVTZ
  Basis Set: (AUG-CC-PVTZ AUX)
    Blend: AUG-CC-PVTZ-JKFIT

    Orbital Energies [Eh]
    ---------------------

    Doubly Occupied:

       1A    -15.566846     2A    -15.566784     3A    -11.319976
       4A    -11.299016     5A    -11.297677     6A    -11.242297
       7A    -11.234124     8A    -11.228656     9A    -11.227972
      10A     -1.305324    11A     -1.186858    12A     -1.149094
      13A     -1.064239    14A     -0.911369    15A     -0.890490
      16A     -0.821191    17A     -0.802689    18A     -0.718044
      19A     -0.698168    20A     -0.655907    21A     -0.634545
      22A     -0.607136    23A     -0.587537    24A     -0.576966
      25A     -0.527257    26A     -0.514243    27A     -0.477231
      28A     -0.441311    29A     -0.427217    30A     -0.417885
      31A     -0.407853    32A     -0.348162

  @DF-RHF Final Energy:  -378.72956377261193

   => Energetics <=

    Nuclear Repulsion Energy =            413.3803126973515418
    One-Electron Energy =               -1331.9116243577507248
    Two-Electron Energy =                 539.8017478877872009
    Total Energy =                       -378.7295637726119821
  Basis Set: (AUG-CC-PVTZ AUX)
    Blend: AUG-CC-PVTZ-RI
    Molecular point group: c1

    Geometry (in Angstrom), charge = 0, multiplicity = 1:

       Center              X                  Y                   Z               Mass
    ------------   -----------------  -----------------  -----------------  -----------------
         N            0.186514723951     1.021940100167    -0.000838513767    14.003074004430
         N            0.756929723951    -1.311728899833    -0.000841513767    14.003074004430
         C           -1.556432276049    -0.646620899833    -0.000842513767    12.000000000000
         C           -2.533377276049     0.235626100167     0.745543486233    12.000000000000
         C           -2.533377276049     0.235628100167    -0.747221513767    12.000000000000
         C           -0.124058276049    -0.290650899833    -0.000838513767    12.000000000000
         C            1.491942723951     1.327200100167    -0.000838513767    12.000000000000
         C            2.056271723951    -0.972864899833    -0.000836513767    12.000000000000
         C            2.485274723951     0.351222100167    -0.000838513767    12.000000000000
         H           -1.740908276049    -1.716006899833    -0.000838513767     1.007825032230
         H           -2.109298276049     1.101146100167     1.242995486233     1.007825032230
         H           -3.346884276049    -0.255754899833     1.269321486233     1.007825032230
         H           -3.346885276049    -0.255739899833    -1.271009513767     1.007825032230
         H           -2.109294276049     1.101152100167    -1.244663513767     1.007825032230
         H            1.738041723951     2.388084100167    -0.000846513767     1.007825032230
         H            2.766119723951    -1.798629899833    -0.000849513767     1.007825032230
         H            3.539130923951     0.610018200167     0.099157486233     1.007825032230

  Basis Set: AUG-CC-PVTZ
    Blend: AUG-CC-PVTZ
  Basis Set: (AUG-CC-PVTZ AUX)
    Blend: AUG-CC-PVTZ-JKFIT
	 Reference Energy          =    -378.7295637726119253 [Eh]
	 Singles Energy            =      -0.0000000000000000 [Eh]
	 Same-Spin Energy          =      -0.4132721074712393 [Eh]
	 Opposite-Spin Energy      =      -1.2907410219721971 [Eh]
	 Correlation Energy        =      -1.7040131294434364 [Eh]
	 Total Energy              =    -380.4335769020553357 [Eh]

	 ================> DF-SCS-MP2 Energies <==================
	-----------------------------------------------------------
	 SCS Same-Spin Scale       =       0.3333333333333333 [-]
	 SCS Opposite-Spin Scale   =       1.2000000000000000 [-]
	 SCS Same-Spin Energy      =      -0.1377573691570798 [Eh]
	 SCS Opposite-Spin Energy  =      -1.5488892263666365 [Eh]
	 SCS Correlation Energy    =      -1.6866465955237162 [Eh]
	 SCS Total Energy          =    -380.4162103681356371 [Eh]
	-----------------------------------------------------------

  Dipole Moment: [D]
     X:     1.4215      Y:     0.6072      Z:     0.0627     Total:     1.5470

*** Psi4 exiting successfully. Buy a developer a beer!
