                               Psi4 1.3.2 release

  ==> Input File <==

--------------------------------------------------------------------------
#psi4
#
memory 32 gb

molecule  {
0 1
  N        0.2222710     1.0128310     0.0000010
  N        0.7926860    -1.3208380    -0.0000020
  C       -1.5206760    -0.6557300    -0.0000030
  C       -2.4976210     0.2265170     0.7463830
  C       -2.4976210     0.2265190    -0.7463820
  C       -0.0883020    -0.2997600     0.0000010
  C        1.5276990     1.3180910     0.0000010
  C        2.0920280    -0.9819740     0.0000030
  C        2.5210310     0.3421130     0.0000010
  H       -1.7051520    -1.7251160     0.0000010
  H       -2.0735420     1.0920370     1.2438350
  H       -3.3111280    -0.2648640     1.2701610
  H       -3.3111290    -0.2648490    -1.2701700
  H       -2.0735380     1.0920430    -1.2438240
  H        1.7737980     2.3789750    -0.0000070
  H        2.8018760    -1.8077390    -0.0000100
  H        3.5748875     0.6009093     0.1999970
units angstrom
no_reorient  #important for SAPT in psi4, default
symmetry c1  #important for SAPT in psi4, default
}

set PROPERTIES_ORIGIN ["COM"]
properties('MP2/aug-cc-pvtz', properties = ['dipole'])
--------------------------------------------------------------------------

    Molecular point group: c1
  Charge       = 0
  Multiplicity = 1
  Basis Set: AUG-CC-PVTZ
    Blend: AUG-CC-PVTZ
  Basis Set: (AUG-CC-PVTZ AUX)
    Blend: AUG-CC-PVTZ-JKFIT

    Orbital Energies [Eh]
    ---------------------

    Doubly Occupied:

       1A    -15.566969     2A    -15.566909     3A    -11.320283
       4A    -11.299230     5A    -11.297895     6A    -11.243367
       7A    -11.234295     8A    -11.228817     9A    -11.228129
      10A     -1.305509    11A     -1.187033    12A     -1.149243
      13A     -1.063940    14A     -0.911037    15A     -0.890584
      16A     -0.821337    17A     -0.802732    18A     -0.717866
      19A     -0.697903    20A     -0.654682    21A     -0.633117
      22A     -0.606857    23A     -0.587685    24A     -0.576754
      25A     -0.527392    26A     -0.514385    27A     -0.477094
      28A     -0.441123    29A     -0.427310    30A     -0.418058
      31A     -0.407964    32A     -0.348049

  @DF-RHF Final Energy:  -378.72767159876480

   => Energetics <=

    Nuclear Repulsion Energy =            413.3293310760193435
    One-Electron Energy =               -1331.8069099808053579
    Two-Electron Energy =                 539.7499073060212140
    Total Energy =                       -378.7276715987648004
  Basis Set: (AUG-CC-PVTZ AUX)
    Blend: AUG-CC-PVTZ-RI
    Molecular point group: c1

    Geometry (in Angstrom), charge = 0, multiplicity = 1:

       Center              X                  Y                   Z               Mass
    ------------   -----------------  -----------------  -----------------  -----------------
         N            0.186514721433     1.021940098488    -0.001677887081    14.003074004430
         N            0.756929721433    -1.311728901512    -0.001680887081    14.003074004430
         C           -1.556432278567    -0.646620901512    -0.001681887081    12.000000000000
         C           -2.533377278567     0.235626098488     0.744704112919    12.000000000000
         C           -2.533377278567     0.235628098488    -0.748060887081    12.000000000000
         C           -0.124058278567    -0.290650901512    -0.001677887081    12.000000000000
         C            1.491942721433     1.327200098488    -0.001677887081    12.000000000000
         C            2.056271721433    -0.972864901512    -0.001675887081    12.000000000000
         C            2.485274721433     0.351222098488    -0.001677887081    12.000000000000
         H           -1.740908278567    -1.716006901512    -0.001677887081     1.007825032230
         H           -2.109298278567     1.101146098488     1.242156112919     1.007825032230
         H           -3.346884278567    -0.255754901512     1.268482112919     1.007825032230
         H           -3.346885278567    -0.255739901512    -1.271848887081     1.007825032230
         H           -2.109294278567     1.101152098488    -1.245502887081     1.007825032230
         H            1.738041721433     2.388084098488    -0.001685887081     1.007825032230
         H            2.766119721433    -1.798629901512    -0.001688887081     1.007825032230
         H            3.539131221433     0.610018398488     0.198318112919     1.007825032230

  Basis Set: AUG-CC-PVTZ
    Blend: AUG-CC-PVTZ
  Basis Set: (AUG-CC-PVTZ AUX)
    Blend: AUG-CC-PVTZ-JKFIT
	 Reference Energy          =    -378.7276715987648004 [Eh]
	 Singles Energy            =      -0.0000000000000000 [Eh]
	 Same-Spin Energy          =      -0.4133257116774623 [Eh]
	 Opposite-Spin Energy      =      -1.2908750975087768 [Eh]
	 Correlation Energy        =      -1.7042008091862391 [Eh]
	 Total Energy              =    -380.4318724079510616 [Eh]

	 ================> DF-SCS-MP2 Energies <==================
	-----------------------------------------------------------
	 SCS Same-Spin Scale       =       0.3333333333333333 [-]
	 SCS Opposite-Spin Scale   =       1.2000000000000000 [-]
	 SCS Same-Spin Energy      =      -0.1377752372258207 [Eh]
	 SCS Opposite-Spin Energy  =      -1.5490501170105322 [Eh]
	 SCS Correlation Energy    =      -1.6868253542363529 [Eh]
	 SCS Total Energy          =    -380.4144969530011622 [Eh]
	-----------------------------------------------------------

  Dipole Moment: [D]
     X:     1.3948      Y:     0.6016      Z:     0.1248     Total:     1.5241

*** Psi4 exiting successfully. Buy a developer a beer!
