                               Psi4 1.3.2 release

  ==> Input File <==

--------------------------------------------------------------------------
#psi4
#
memory 32 gb

molecule  {
0 1
  N        0.2222710     1.0128310     0.0000010
  N        0.7926860    -1.3208380    -0.0000020
  C       -1.5206759    -0.6557298    -0.1500030
  C       -2.4976210     0.2265170     0.7463830
  C       -2.4976210     0.2265190    -0.7463820
  C       -0.0883020    -0.2997600     0.0000010
  C        1.5276990     1.3180910     0.0000010
  C        2.0920280    -0.9819740     0.0000030
  C        2.5210310     0.3421130     0.0000010
  H       -1.7051520    -1.7251160     0.0000010
  H       -2.0735420     1.0920370     1.2438350
  H       -3.3111280    -0.2648640     1.2701610
  H       -3.3111290    -0.2648490    -1.2701700
  H       -2.0735380     1.0920430    -1.2438240
  H        1.7737980     2.3789750    -0.0000070
  H        2.8018760    -1.8077390    -0.0000100
  H        3.5748870     0.6009090    -0.0000030
units angstrom
no_reorient  #important for SAPT in psi4, default
symmetry c1  #important for SAPT in psi4, default
}

set PROPERTIES_ORIGIN ["COM"]
properties('MP2/aug-cc-pvtz', properties = ['dipole'])
--------------------------------------------------------------------------

    Molecular point group: c1
  Charge       = 0
  Multiplicity = 1
  Basis Set: AUG-CC-PVTZ
    Blend: AUG-CC-PVTZ
  Basis Set: (AUG-CC-PVTZ AUX)
    Blend: AUG-CC-PVTZ-JKFIT

    Orbital Energies [Eh]
    ---------------------

    Doubly Occupied:

       1A    -15.566786     2A    -15.566581     3A    -11.321209
       4A    -11.298936     5A    -11.297685     6A    -11.241734
       7A    -11.237550     8A    -11.229652     9A    -11.228453
      10A     -1.305194    11A     -1.186794    12A     -1.149758
      13A     -1.064357    14A     -0.910594    15A     -0.890376
      16A     -0.823845    17A     -0.801167    18A     -0.717546
      19A     -0.698080    20A     -0.656608    21A     -0.634431
      22A     -0.606809    23A     -0.587431    24A     -0.577236
      25A     -0.525512    26A     -0.513808    27A     -0.479464
      28A     -0.459681    29A     -0.418390    30A     -0.411905
      31A     -0.407196    32A     -0.341998

  @DF-RHF Final Energy:  -378.71986974749143

   => Energetics <=

    Nuclear Repulsion Energy =            413.2206813947934165
    One-Electron Energy =               -1331.5675706106499092
    Two-Electron Energy =                 539.6270194683650061
    Total Energy =                       -378.7198697474914297
  Basis Set: (AUG-CC-PVTZ AUX)
    Blend: AUG-CC-PVTZ-RI
    Molecular point group: c1

    Geometry (in Angstrom), charge = 0, multiplicity = 1:

       Center              X                  Y                   Z               Mass
    ------------   -----------------  -----------------  -----------------  -----------------
         N            0.186514715635     1.021940081018     0.014992270935    14.003074004430
         N            0.756929715635    -1.311728918982     0.014989270935    14.003074004430
         C           -1.556432184365    -0.646620718982    -0.135011729065    12.000000000000
         C           -2.533377284365     0.235626081018     0.761374270935    12.000000000000
         C           -2.533377284365     0.235628081018    -0.731390729065    12.000000000000
         C           -0.124058284365    -0.290650918982     0.014992270935    12.000000000000
         C            1.491942715635     1.327200081018     0.014992270935    12.000000000000
         C            2.056271715635    -0.972864918982     0.014994270935    12.000000000000
         C            2.485274715635     0.351222081018     0.014992270935    12.000000000000
         H           -1.740908284365    -1.716006918982     0.014992270935     1.007825032230
         H           -2.109298284365     1.101146081018     1.258826270935     1.007825032230
         H           -3.346884284365    -0.255754918982     1.285152270935     1.007825032230
         H           -3.346885284365    -0.255739918982    -1.255178729065     1.007825032230
         H           -2.109294284365     1.101152081018    -1.228832729065     1.007825032230
         H            1.738041715635     2.388084081018     0.014984270935     1.007825032230
         H            2.766119715635    -1.798629918982     0.014981270935     1.007825032230
         H            3.539130715635     0.610018081018     0.014988270935     1.007825032230

  Basis Set: AUG-CC-PVTZ
    Blend: AUG-CC-PVTZ
  Basis Set: (AUG-CC-PVTZ AUX)
    Blend: AUG-CC-PVTZ-JKFIT
	 Reference Energy          =    -378.7198697474914297 [Eh]
	 Singles Energy            =      -0.0000000000000000 [Eh]
	 Same-Spin Energy          =      -0.4138356434729322 [Eh]
	 Opposite-Spin Energy      =      -1.2919514607144178 [Eh]
	 Correlation Energy        =      -1.7057871041873500 [Eh]
	 Total Energy              =    -380.4256568516787524 [Eh]

	 ================> DF-SCS-MP2 Energies <==================
	-----------------------------------------------------------
	 SCS Same-Spin Scale       =       0.3333333333333333 [-]
	 SCS Opposite-Spin Scale   =       1.2000000000000000 [-]
	 SCS Same-Spin Energy      =      -0.1379452144909774 [Eh]
	 SCS Opposite-Spin Energy  =      -1.5503417528573014 [Eh]
	 SCS Correlation Energy    =      -1.6882869673482788 [Eh]
	 SCS Total Energy          =    -380.4081567148397198 [Eh]
	-----------------------------------------------------------

  Dipole Moment: [D]
     X:     1.4091      Y:     0.6132      Z:    -0.0659     Total:     1.5382

*** Psi4 exiting successfully. Buy a developer a beer!
