                               Psi4 1.3.2 release

  ==> Input File <==

--------------------------------------------------------------------------
#psi4
#
memory 32 gb

molecule  {
0 1
  N        0.2222710     1.0128310     0.0000010
  N        0.7926860    -1.3208380    -0.0000020
  C       -1.5206758    -0.6557297    -0.2000030
  C       -2.4976210     0.2265170     0.7463830
  C       -2.4976210     0.2265190    -0.7463820
  C       -0.0883020    -0.2997600     0.0000010
  C        1.5276990     1.3180910     0.0000010
  C        2.0920280    -0.9819740     0.0000030
  C        2.5210310     0.3421130     0.0000010
  H       -1.7051520    -1.7251160     0.0000010
  H       -2.0735420     1.0920370     1.2438350
  H       -3.3111280    -0.2648640     1.2701610
  H       -3.3111290    -0.2648490    -1.2701700
  H       -2.0735380     1.0920430    -1.2438240
  H        1.7737980     2.3789750    -0.0000070
  H        2.8018760    -1.8077390    -0.0000100
  H        3.5748870     0.6009090    -0.0000030
units angstrom
no_reorient  #important for SAPT in psi4, default
symmetry c1  #important for SAPT in psi4, default
}

set PROPERTIES_ORIGIN ["COM"]
properties('MP2/aug-cc-pvtz', properties = ['dipole'])
--------------------------------------------------------------------------

    Molecular point group: c1
  Charge       = 0
  Multiplicity = 1
  Basis Set: AUG-CC-PVTZ
    Blend: AUG-CC-PVTZ
  Basis Set: (AUG-CC-PVTZ AUX)
    Blend: AUG-CC-PVTZ-JKFIT

    Orbital Energies [Eh]
    ---------------------

    Doubly Occupied:

       1A    -15.566760     2A    -15.566451     3A    -11.322188
       4A    -11.298920     5A    -11.297735     6A    -11.241575
       7A    -11.240121     8A    -11.230266     9A    -11.229082
      10A     -1.305129    11A     -1.186778    12A     -1.150263
      13A     -1.064347    14A     -0.909888    15A     -0.890303
      16A     -0.825817    17A     -0.800096    18A     -0.717107
      19A     -0.697919    20A     -0.656789    21A     -0.633976
      22A     -0.606474    23A     -0.587381    24A     -0.577316
      25A     -0.524615    26A     -0.513277    27A     -0.482781
      28A     -0.464894    29A     -0.418358    30A     -0.408993
      31A     -0.405143    32A     -0.337520

  @DF-RHF Final Energy:  -378.71200120898953

   => Energetics <=

    Nuclear Repulsion Energy =            413.0834772639378798
    One-Electron Energy =               -1331.2744321829343335
    Two-Electron Energy =                 539.4789537100068628
    Total Energy =                       -378.7120012089895909
  Basis Set: (AUG-CC-PVTZ AUX)
    Blend: AUG-CC-PVTZ-RI
    Molecular point group: c1

    Geometry (in Angstrom), charge = 0, multiplicity = 1:

       Center              X                  Y                   Z               Mass
    ------------   -----------------  -----------------  -----------------  -----------------
         N            0.186514705641     1.021940071024     0.019989408064    14.003074004430
         N            0.756929705641    -1.311728928976     0.019986408064    14.003074004430
         C           -1.556432094359    -0.646620628976    -0.180014591936    12.000000000000
         C           -2.533377294359     0.235626071024     0.766371408064    12.000000000000
         C           -2.533377294359     0.235628071024    -0.726393591936    12.000000000000
         C           -0.124058294359    -0.290650928976     0.019989408064    12.000000000000
         C            1.491942705641     1.327200071024     0.019989408064    12.000000000000
         C            2.056271705641    -0.972864928976     0.019991408064    12.000000000000
         C            2.485274705641     0.351222071024     0.019989408064    12.000000000000
         H           -1.740908294359    -1.716006928976     0.019989408064     1.007825032230
         H           -2.109298294359     1.101146071024     1.263823408064     1.007825032230
         H           -3.346884294359    -0.255754928976     1.290149408064     1.007825032230
         H           -3.346885294359    -0.255739928976    -1.250181591936     1.007825032230
         H           -2.109294294359     1.101152071024    -1.223835591936     1.007825032230
         H            1.738041705641     2.388084071024     0.019981408064     1.007825032230
         H            2.766119705641    -1.798629928976     0.019978408064     1.007825032230
         H            3.539130705641     0.610018071024     0.019985408064     1.007825032230

  Basis Set: AUG-CC-PVTZ
    Blend: AUG-CC-PVTZ
  Basis Set: (AUG-CC-PVTZ AUX)
    Blend: AUG-CC-PVTZ-JKFIT
	 Reference Energy          =    -378.7120012089895340 [Eh]
	 Singles Energy            =      -0.0000000000000000 [Eh]
	 Same-Spin Energy          =      -0.4142800803376742 [Eh]
	 Opposite-Spin Energy      =      -1.2929089913098395 [Eh]
	 Correlation Energy        =      -1.7071890716475138 [Eh]
	 Total Energy              =    -380.4191902806370535 [Eh]

	 ================> DF-SCS-MP2 Energies <==================
	-----------------------------------------------------------
	 SCS Same-Spin Scale       =       0.3333333333333333 [-]
	 SCS Opposite-Spin Scale   =       1.2000000000000000 [-]
	 SCS Same-Spin Energy      =      -0.1380933601125580 [Eh]
	 SCS Opposite-Spin Energy  =      -1.5514907895718073 [Eh]
	 SCS Correlation Energy    =      -1.6895841496843653 [Eh]
	 SCS Total Energy          =    -380.4015853586739127 [Eh]
	-----------------------------------------------------------

  Dipole Moment: [D]
     X:     1.3917      Y:     0.6181      Z:    -0.0837     Total:     1.5251

*** Psi4 exiting successfully. Buy a developer a beer!
