                               Psi4 1.3.2 release

  ==> Input File <==

--------------------------------------------------------------------------
#psi4
#
memory 32 gb

molecule  {
0 1
  N        0.2222710     1.0128310     0.0000010
  N        0.7926860    -1.3208380    -0.0000020
  C       -1.5206760    -0.6557300    -0.0000030
  C       -2.4976210     0.2265170     0.7463830
  C       -2.4976210     0.2265190    -0.7463820
  C       -0.0883020    -0.2997600     0.0000010
  C        1.5276990     1.3180910     0.0000010
  C        2.0920280    -0.9819740     0.0000030
  C        2.5210310     0.3421130     0.0000010
  H       -1.7051520    -1.7251160     0.0000010
  H       -2.0735420     1.0920370     1.2438350
  H       -3.3111280    -0.2648640     1.2701610
  H       -3.3111290    -0.2648490    -1.2701700
  H       -2.0735380     1.0920430    -1.2438240
  H        1.7737980     2.3789750    -0.0000070
  H        2.8018759    -1.8077388    -0.0500100
  H        3.5748870     0.6009090    -0.0000030
units angstrom
no_reorient  #important for SAPT in psi4, default
symmetry c1  #important for SAPT in psi4, default
}

set PROPERTIES_ORIGIN ["COM"]
properties('MP2/aug-cc-pvtz', properties = ['dipole'])
--------------------------------------------------------------------------

    Molecular point group: c1
  Charge       = 0
  Multiplicity = 1
  Basis Set: AUG-CC-PVTZ
    Blend: AUG-CC-PVTZ
  Basis Set: (AUG-CC-PVTZ AUX)
    Blend: AUG-CC-PVTZ-JKFIT

    Orbital Energies [Eh]
    ---------------------

    Doubly Occupied:

       1A    -15.566822     2A    -15.566756     3A    -11.319886
       4A    -11.298954     5A    -11.297719     6A    -11.241955
       7A    -11.234073     8A    -11.228607     9A    -11.227923
      10A     -1.305273    11A     -1.186805    12A     -1.149050
      13A     -1.064341    14A     -0.911482    15A     -0.890401
      16A     -0.821148    17A     -0.802610    18A     -0.718092
      19A     -0.698226    20A     -0.656371    21A     -0.634980
      22A     -0.607190    23A     -0.587533    24A     -0.576838
      25A     -0.527209    26A     -0.514196    27A     -0.477284
      28A     -0.441384    29A     -0.427196    30A     -0.417869
      31A     -0.407742    32A     -0.348202

  @DF-RHF Final Energy:  -378.72998810830040

   => Energetics <=

    Nuclear Repulsion Energy =            413.3932018421359089
    One-Electron Energy =               -1331.9381466360787272
    Two-Electron Energy =                 539.8149566856424144
    Total Energy =                       -378.7299881083004038
  Basis Set: (AUG-CC-PVTZ AUX)
    Blend: AUG-CC-PVTZ-RI
    Molecular point group: c1

    Geometry (in Angstrom), charge = 0, multiplicity = 1:

       Center              X                  Y                   Z               Mass
    ------------   -----------------  -----------------  -----------------  -----------------
         N            0.186514726469     1.021940099328     0.000420546205    14.003074004430
         N            0.756929726469    -1.311728900672     0.000417546205    14.003074004430
         C           -1.556432273531    -0.646620900672     0.000416546205    12.000000000000
         C           -2.533377273531     0.235626099328     0.746802546205    12.000000000000
         C           -2.533377273531     0.235628099328    -0.745962453795    12.000000000000
         C           -0.124058273531    -0.290650900672     0.000420546205    12.000000000000
         C            1.491942726469     1.327200099328     0.000420546205    12.000000000000
         C            2.056271726469    -0.972864900672     0.000422546205    12.000000000000
         C            2.485274726469     0.351222099328     0.000420546205    12.000000000000
         H           -1.740908273531    -1.716006900672     0.000420546205     1.007825032230
         H           -2.109298273531     1.101146099328     1.244254546205     1.007825032230
         H           -3.346884273531    -0.255754900672     1.270580546205     1.007825032230
         H           -3.346885273531    -0.255739900672    -1.269750453795     1.007825032230
         H           -2.109294273531     1.101152099328    -1.243404453795     1.007825032230
         H            1.738041726469     2.388084099328     0.000412546205     1.007825032230
         H            2.766119626469    -1.798629700672    -0.049590453795     1.007825032230
         H            3.539130726469     0.610018099328     0.000416546205     1.007825032230

  Basis Set: AUG-CC-PVTZ
    Blend: AUG-CC-PVTZ
  Basis Set: (AUG-CC-PVTZ AUX)
    Blend: AUG-CC-PVTZ-JKFIT
	 Reference Energy          =    -378.7299881083004038 [Eh]
	 Singles Energy            =      -0.0000000000000000 [Eh]
	 Same-Spin Energy          =      -0.4132655492681163 [Eh]
	 Opposite-Spin Energy      =      -1.2907250051357735 [Eh]
	 Correlation Energy        =      -1.7039905544038898 [Eh]
	 Total Energy              =    -380.4339786627043054 [Eh]

	 ================> DF-SCS-MP2 Energies <==================
	-----------------------------------------------------------
	 SCS Same-Spin Scale       =       0.3333333333333333 [-]
	 SCS Opposite-Spin Scale   =       1.2000000000000000 [-]
	 SCS Same-Spin Energy      =      -0.1377551830893721 [Eh]
	 SCS Opposite-Spin Energy  =      -1.5488700061629281 [Eh]
	 SCS Correlation Energy    =      -1.6866251892523003 [Eh]
	 SCS Total Energy          =    -380.4166132975527148 [Eh]
	-----------------------------------------------------------

  Dipole Moment: [D]
     X:     1.4289      Y:     0.6103      Z:    -0.0235     Total:     1.5540

*** Psi4 exiting successfully. Buy a developer a beer!
