                               Psi4 1.3.2 release

  ==> Input File <==

--------------------------------------------------------------------------
#psi4
#
memory 32 gb

molecule  {
0 1
  N        0.2222710     1.0128310     0.0000010
  N        0.7926860    -1.3208380    -0.0000020
  C       -1.5206760    -0.6557300    -0.0000030
  C       -2.4976210     0.2265170     0.7463830
  C       -2.4976210     0.2265190    -0.7463820
  C       -0.0883020    -0.2997600     0.0000010
  C        1.5276990     1.3180910     0.0000010
  C        2.0920280    -0.9819740     0.0000030
  C        2.5210310     0.3421130     0.0000010
  H       -1.7051520    -1.7251160     0.0000010
  H       -2.0735420     1.0920370     1.2438350
  H       -3.3111280    -0.2648640     1.2701610
  H       -3.3111290    -0.2648490    -1.2701700
  H       -2.0735380     1.0920430    -1.2438240
  H        1.7737980     2.3789750    -0.0000070
  H        2.8018760    -1.8077390    -0.0000100
  H        3.5748876     0.6009094     0.2499970
units angstrom
no_reorient  #important for SAPT in psi4, default
symmetry c1  #important for SAPT in psi4, default
}

set PROPERTIES_ORIGIN ["COM"]
properties('MP2/aug-cc-pvtz', properties = ['dipole'])
--------------------------------------------------------------------------

    Molecular point group: c1
  Charge       = 0
  Multiplicity = 1
  Basis Set: AUG-CC-PVTZ
    Blend: AUG-CC-PVTZ
  Basis Set: (AUG-CC-PVTZ AUX)
    Blend: AUG-CC-PVTZ-JKFIT

    Orbital Energies [Eh]
    ---------------------

    Doubly Occupied:

       1A    -15.567062     2A    -15.567003     3A    -11.320511
       4A    -11.299391     5A    -11.298059     6A    -11.244156
       7A    -11.234421     8A    -11.228936     9A    -11.228246
      10A     -1.305648    11A     -1.187165    12A     -1.149354
      13A     -1.063730    14A     -0.910807    15A     -0.890655
      16A     -0.821445    17A     -0.802769    18A     -0.717764
      19A     -0.697737    20A     -0.653913    21A     -0.631978
      22A     -0.606598    23A     -0.587796    24A     -0.576587
      25A     -0.527493    26A     -0.514490    27A     -0.476982
      28A     -0.440988    29A     -0.427377    30A     -0.418187
      31A     -0.408049    32A     -0.347969

  @DF-RHF Final Energy:  -378.72615339571331

   => Energetics <=

    Nuclear Repulsion Energy =            413.2920314953183265
    One-Electron Energy =               -1331.7298397325466794
    Two-Electron Energy =                 539.7116548415150419
    Total Energy =                       -378.7261533957133679
  Basis Set: (AUG-CC-PVTZ AUX)
    Blend: AUG-CC-PVTZ-RI
    Molecular point group: c1

    Geometry (in Angstrom), charge = 0, multiplicity = 1:

       Center              X                  Y                   Z               Mass
    ------------   -----------------  -----------------  -----------------  -----------------
         N            0.186514720593     1.021940097649    -0.002097573739    14.003074004430
         N            0.756929720593    -1.311728902351    -0.002100573739    14.003074004430
         C           -1.556432279407    -0.646620902351    -0.002101573739    12.000000000000
         C           -2.533377279407     0.235626097649     0.744284426261    12.000000000000
         C           -2.533377279407     0.235628097649    -0.748480573739    12.000000000000
         C           -0.124058279407    -0.290650902351    -0.002097573739    12.000000000000
         C            1.491942720593     1.327200097649    -0.002097573739    12.000000000000
         C            2.056271720593    -0.972864902351    -0.002095573739    12.000000000000
         C            2.485274720593     0.351222097649    -0.002097573739    12.000000000000
         H           -1.740908279407    -1.716006902351    -0.002097573739     1.007825032230
         H           -2.109298279407     1.101146097649     1.241736426261     1.007825032230
         H           -3.346884279407    -0.255754902351     1.268062426261     1.007825032230
         H           -3.346885279407    -0.255739902351    -1.272268573739     1.007825032230
         H           -2.109294279407     1.101152097649    -1.245922573739     1.007825032230
         H            1.738041720593     2.388084097649    -0.002105573739     1.007825032230
         H            2.766119720593    -1.798629902351    -0.002108573739     1.007825032230
         H            3.539131320593     0.610018497649     0.247898426261     1.007825032230

  Basis Set: AUG-CC-PVTZ
    Blend: AUG-CC-PVTZ
  Basis Set: (AUG-CC-PVTZ AUX)
    Blend: AUG-CC-PVTZ-JKFIT
	 Reference Energy          =    -378.7261533957133111 [Eh]
	 Singles Energy            =      -0.0000000000000000 [Eh]
	 Same-Spin Energy          =      -0.4133655017007767 [Eh]
	 Opposite-Spin Energy      =      -1.2909905182563777 [Eh]
	 Correlation Energy        =      -1.7043560199571544 [Eh]
	 Total Energy              =    -380.4305094156704854 [Eh]

	 ================> DF-SCS-MP2 Energies <==================
	-----------------------------------------------------------
	 SCS Same-Spin Scale       =       0.3333333333333333 [-]
	 SCS Opposite-Spin Scale   =       1.2000000000000000 [-]
	 SCS Same-Spin Energy      =      -0.1377885005669255 [Eh]
	 SCS Opposite-Spin Energy  =      -1.5491886219076532 [Eh]
	 SCS Correlation Energy    =      -1.6869771224745786 [Eh]
	 SCS Total Energy          =    -380.4131305181878702 [Eh]
	-----------------------------------------------------------

  Dipole Moment: [D]
     X:     1.3750      Y:     0.5975      Z:     0.1554     Total:     1.5073

*** Psi4 exiting successfully. Buy a developer a beer!
