                               Psi4 1.3.2 release

  ==> Input File <==

--------------------------------------------------------------------------
#psi4
#
memory 32 gb

molecule  {
0 1
  N        0.2222710     1.0128310     0.0000010
  N        0.7926860    -1.3208380    -0.0000020
  C       -1.5206760    -0.6557300    -0.0000030
  C       -2.4976210     0.2265170     0.7463830
  C       -2.4976210     0.2265190    -0.7463820
  C       -0.0883020    -0.2997600     0.0000010
  C        1.5276990     1.3180910     0.0000010
  C        2.0920280    -0.9819740     0.0000030
  C        2.5210310     0.3421130     0.0000010
  H       -1.7051520    -1.7251160     0.0000010
  H       -2.0735420     1.0920370     1.2438350
  H       -3.3111280    -0.2648640     1.2701610
  H       -3.3111290    -0.2648490    -1.2701700
  H       -2.0735380     1.0920430    -1.2438240
  H        1.7737980     2.3789750    -0.0000070
  H        2.8018757    -1.8077385    -0.1000100
  H        3.5748870     0.6009090    -0.0000030
units angstrom
no_reorient  #important for SAPT in psi4, default
symmetry c1  #important for SAPT in psi4, default
}

set PROPERTIES_ORIGIN ["COM"]
properties('MP2/aug-cc-pvtz', properties = ['dipole'])
--------------------------------------------------------------------------

    Molecular point group: c1
  Charge       = 0
  Multiplicity = 1
  Basis Set: AUG-CC-PVTZ
    Blend: AUG-CC-PVTZ
  Basis Set: (AUG-CC-PVTZ AUX)
    Blend: AUG-CC-PVTZ-JKFIT

    Orbital Energies [Eh]
    ---------------------

    Doubly Occupied:

       1A    -15.566872     2A    -15.566796     3A    -11.319924
       4A    -11.298982     5A    -11.298061     6A    -11.242009
       7A    -11.234091     8A    -11.228623     9A    -11.227938
      10A     -1.305307    11A     -1.186819    12A     -1.149068
      13A     -1.064332    14A     -0.911471    15A     -0.890229
      16A     -0.821163    17A     -0.802413    18A     -0.718023
      19A     -0.698102    20A     -0.656379    21A     -0.634949
      22A     -0.607121    23A     -0.587656    24A     -0.576259
      25A     -0.527200    26A     -0.514196    27A     -0.477317
      28A     -0.441409    29A     -0.427231    30A     -0.417989
      31A     -0.407521    32A     -0.348200

  @DF-RHF Final Energy:  -378.72947312580789

   => Energetics <=

    Nuclear Repulsion Energy =            413.3799641851590536
    One-Electron Energy =               -1331.9115708076758438
    Two-Electron Energy =                 539.8021334967089615
    Total Energy =                       -378.7294731258078855
  Basis Set: (AUG-CC-PVTZ AUX)
    Blend: AUG-CC-PVTZ-RI
    Molecular point group: c1

    Geometry (in Angstrom), charge = 0, multiplicity = 1:

       Center              X                  Y                   Z               Mass
    ------------   -----------------  -----------------  -----------------  -----------------
         N            0.186514728148     1.021940096810     0.000840232863    14.003074004430
         N            0.756929728148    -1.311728903190     0.000837232863    14.003074004430
         C           -1.556432271852    -0.646620903190     0.000836232863    12.000000000000
         C           -2.533377271852     0.235626096810     0.747222232863    12.000000000000
         C           -2.533377271852     0.235628096810    -0.745542767137    12.000000000000
         C           -0.124058271852    -0.290650903190     0.000840232863    12.000000000000
         C            1.491942728148     1.327200096810     0.000840232863    12.000000000000
         C            2.056271728148    -0.972864903190     0.000842232863    12.000000000000
         C            2.485274728148     0.351222096810     0.000840232863    12.000000000000
         H           -1.740908271852    -1.716006903190     0.000840232863     1.007825032230
         H           -2.109298271852     1.101146096810     1.244674232863     1.007825032230
         H           -3.346884271852    -0.255754903190     1.271000232863     1.007825032230
         H           -3.346885271852    -0.255739903190    -1.269330767137     1.007825032230
         H           -2.109294271852     1.101152096810    -1.242984767137     1.007825032230
         H            1.738041728148     2.388084096810     0.000832232863     1.007825032230
         H            2.766119428148    -1.798629403190    -0.099170767137     1.007825032230
         H            3.539130728148     0.610018096810     0.000836232863     1.007825032230

  Basis Set: AUG-CC-PVTZ
    Blend: AUG-CC-PVTZ
  Basis Set: (AUG-CC-PVTZ AUX)
    Blend: AUG-CC-PVTZ-JKFIT
	 Reference Energy          =    -378.7294731258078855 [Eh]
	 Singles Energy            =      -0.0000000000000000 [Eh]
	 Same-Spin Energy          =      -0.4132996648648199 [Eh]
	 Opposite-Spin Energy      =      -1.2907901511874720 [Eh]
	 Correlation Energy        =      -1.7040898160522919 [Eh]
	 Total Energy              =    -380.4335629418602025 [Eh]

	 ================> DF-SCS-MP2 Energies <==================
	-----------------------------------------------------------
	 SCS Same-Spin Scale       =       0.3333333333333333 [-]
	 SCS Opposite-Spin Scale   =       1.2000000000000000 [-]
	 SCS Same-Spin Energy      =      -0.1377665549549400 [Eh]
	 SCS Opposite-Spin Energy  =      -1.5489481814249664 [Eh]
	 SCS Correlation Energy    =      -1.6867147363799064 [Eh]
	 SCS Total Energy          =    -380.4161878621877690 [Eh]
	-----------------------------------------------------------

  Dipole Moment: [D]
     X:     1.4244      Y:     0.6141      Z:    -0.0470     Total:     1.5518

*** Psi4 exiting successfully. Buy a developer a beer!
