                               Psi4 1.3.2 release

  ==> Input File <==

--------------------------------------------------------------------------
#psi4
#
memory 32 gb

molecule  {
0 1
  N        0.2222710     1.0128310     0.0000010
  N        0.7926860    -1.3208380    -0.0000020
  C       -1.5206758    -0.6557296    -0.2500030
  C       -2.4976210     0.2265170     0.7463830
  C       -2.4976210     0.2265190    -0.7463820
  C       -0.0883020    -0.2997600     0.0000010
  C        1.5276990     1.3180910     0.0000010
  C        2.0920280    -0.9819740     0.0000030
  C        2.5210310     0.3421130     0.0000010
  H       -1.7051520    -1.7251160     0.0000010
  H       -2.0735420     1.0920370     1.2438350
  H       -3.3111280    -0.2648640     1.2701610
  H       -3.3111290    -0.2648490    -1.2701700
  H       -2.0735380     1.0920430    -1.2438240
  H        1.7737980     2.3789750    -0.0000070
  H        2.8018760    -1.8077390    -0.0000100
  H        3.5748870     0.6009090    -0.0000030
units angstrom
no_reorient  #important for SAPT in psi4, default
symmetry c1  #important for SAPT in psi4, default
}

set PROPERTIES_ORIGIN ["COM"]
properties('MP2/aug-cc-pvtz', properties = ['dipole'])
--------------------------------------------------------------------------

    Molecular point group: c1
  Charge       = 0
  Multiplicity = 1
  Basis Set: AUG-CC-PVTZ
    Blend: AUG-CC-PVTZ
  Basis Set: (AUG-CC-PVTZ AUX)
    Blend: AUG-CC-PVTZ-JKFIT

    Orbital Energies [Eh]
    ---------------------

    Doubly Occupied:

       1A    -15.566712     2A    -15.566280     3A    -11.323370
       4A    -11.298891     5A    -11.297784     6A    -11.243256
       7A    -11.241370     8A    -11.230951     9A    -11.230010
      10A     -1.305027    11A     -1.186744    12A     -1.150850
      13A     -1.064312    14A     -0.908966    15A     -0.890196
      16A     -0.828245    17A     -0.798793    18A     -0.716545
      19A     -0.697696    20A     -0.657014    21A     -0.633371
      22A     -0.606018    23A     -0.587310    24A     -0.577329
      25A     -0.523992    26A     -0.512414    27A     -0.488264
      28A     -0.467366    29A     -0.418395    30A     -0.408312
      31A     -0.401615    32A     -0.332252

  @DF-RHF Final Energy:  -378.70205427467585

   => Energetics <=

    Nuclear Repulsion Energy =            412.9076034470657532
    One-Electron Energy =               -1330.9000192595933640
    Two-Electron Energy =                 539.2903615378518225
    Total Energy =                       -378.7020542746757883
  Basis Set: (AUG-CC-PVTZ AUX)
    Blend: AUG-CC-PVTZ-RI
    Molecular point group: c1

    Geometry (in Angstrom), charge = 0, multiplicity = 1:

       Center              X                  Y                   Z               Mass
    ------------   -----------------  -----------------  -----------------  -----------------
         N            0.186514705641     1.021940061029     0.024986545193    14.003074004430
         N            0.756929705641    -1.311728938971     0.024983545193    14.003074004430
         C           -1.556432094359    -0.646620538971    -0.225017454807    12.000000000000
         C           -2.533377294359     0.235626061029     0.771368545193    12.000000000000
         C           -2.533377294359     0.235628061029    -0.721396454807    12.000000000000
         C           -0.124058294359    -0.290650938971     0.024986545193    12.000000000000
         C            1.491942705641     1.327200061029     0.024986545193    12.000000000000
         C            2.056271705641    -0.972864938971     0.024988545193    12.000000000000
         C            2.485274705641     0.351222061029     0.024986545193    12.000000000000
         H           -1.740908294359    -1.716006938971     0.024986545193     1.007825032230
         H           -2.109298294359     1.101146061029     1.268820545193     1.007825032230
         H           -3.346884294359    -0.255754938971     1.295146545193     1.007825032230
         H           -3.346885294359    -0.255739938971    -1.245184454807     1.007825032230
         H           -2.109294294359     1.101152061029    -1.218838454807     1.007825032230
         H            1.738041705641     2.388084061029     0.024978545193     1.007825032230
         H            2.766119705641    -1.798629938971     0.024975545193     1.007825032230
         H            3.539130705641     0.610018061029     0.024982545193     1.007825032230

  Basis Set: AUG-CC-PVTZ
    Blend: AUG-CC-PVTZ
  Basis Set: (AUG-CC-PVTZ AUX)
    Blend: AUG-CC-PVTZ-JKFIT
	 Reference Energy          =    -378.7020542746758451 [Eh]
	 Singles Energy            =      -0.0000000000000000 [Eh]
	 Same-Spin Energy          =      -0.4148416126651446 [Eh]
	 Opposite-Spin Energy      =      -1.2941298987125589 [Eh]
	 Correlation Energy        =      -1.7089715113777035 [Eh]
	 Total Energy              =    -380.4110257860535285 [Eh]

	 ================> DF-SCS-MP2 Energies <==================
	-----------------------------------------------------------
	 SCS Same-Spin Scale       =       0.3333333333333333 [-]
	 SCS Opposite-Spin Scale   =       1.2000000000000000 [-]
	 SCS Same-Spin Energy      =      -0.1382805375550482 [Eh]
	 SCS Opposite-Spin Energy  =      -1.5529558784550705 [Eh]
	 SCS Correlation Energy    =      -1.6912364160101188 [Eh]
	 SCS Total Energy          =    -380.3932906906859444 [Eh]
	-----------------------------------------------------------

  Dipole Moment: [D]
     X:     1.3684      Y:     0.6264      Z:    -0.0976     Total:     1.5081

*** Psi4 exiting successfully. Buy a developer a beer!
