                               Psi4 1.3.2 release

  ==> Input File <==

--------------------------------------------------------------------------
#psi4
#
memory 32 gb

molecule  {
0 1
  N        0.2222710     1.0128310     0.0000010
  N        0.7926860    -1.3208380    -0.0000020
  C       -1.5206759    -0.6557299    -0.1000030
  C       -2.4976210     0.2265170     0.7463830
  C       -2.4976210     0.2265190    -0.7463820
  C       -0.0883020    -0.2997600     0.0000010
  C        1.5276990     1.3180910     0.0000010
  C        2.0920280    -0.9819740     0.0000030
  C        2.5210310     0.3421130     0.0000010
  H       -1.7051520    -1.7251160     0.0000010
  H       -2.0735420     1.0920370     1.2438350
  H       -3.3111280    -0.2648640     1.2701610
  H       -3.3111290    -0.2648490    -1.2701700
  H       -2.0735380     1.0920430    -1.2438240
  H        1.7737980     2.3789750    -0.0000070
  H        2.8018760    -1.8077390    -0.0000100
  H        3.5748870     0.6009090    -0.0000030
units angstrom
no_reorient  #important for SAPT in psi4, default
symmetry c1  #important for SAPT in psi4, default
}

set PROPERTIES_ORIGIN ["COM"]
properties('MP2/aug-cc-pvtz', properties = ['dipole'])
--------------------------------------------------------------------------

    Molecular point group: c1
  Charge       = 0
  Multiplicity = 1
  Basis Set: AUG-CC-PVTZ
    Blend: AUG-CC-PVTZ
  Basis Set: (AUG-CC-PVTZ AUX)
    Blend: AUG-CC-PVTZ-JKFIT

    Orbital Energies [Eh]
    ---------------------

    Doubly Occupied:

       1A    -15.566799     2A    -15.566672     3A    -11.320478
       4A    -11.298942     5A    -11.297642     6A    -11.241846
       7A    -11.235640     8A    -11.229130     9A    -11.228094
      10A     -1.305234    11A     -1.186800    12A     -1.149370
      13A     -1.064353    14A     -0.911092    15A     -0.890424
      16A     -0.822372    17A     -0.801982    18A     -0.717862
      19A     -0.698187    20A     -0.656476    21A     -0.634746
      22A     -0.607038    23A     -0.587464    24A     -0.577138
      25A     -0.526383    26A     -0.514066    27A     -0.477996
      28A     -0.452570    29A     -0.419109    30A     -0.416519
      31A     -0.407651    32A     -0.345389

  @DF-RHF Final Energy:  -378.72556131010418

   => Energetics <=

    Nuclear Repulsion Energy =            413.3189113392962781
    One-Electron Energy =               -1331.7780200531274204
    Two-Electron Energy =                 539.7335474037270160
    Total Energy =                       -378.7255613101041263
  Basis Set: (AUG-CC-PVTZ AUX)
    Blend: AUG-CC-PVTZ-RI
    Molecular point group: c1

    Geometry (in Angstrom), charge = 0, multiplicity = 1:

       Center              X                  Y                   Z               Mass
    ------------   -----------------  -----------------  -----------------  -----------------
         N            0.186514715635     1.021940091012     0.009995133806    14.003074004430
         N            0.756929715635    -1.311728908988     0.009992133806    14.003074004430
         C           -1.556432184365    -0.646620808988    -0.090008866194    12.000000000000
         C           -2.533377284365     0.235626091012     0.756377133806    12.000000000000
         C           -2.533377284365     0.235628091012    -0.736387866194    12.000000000000
         C           -0.124058284365    -0.290650908988     0.009995133806    12.000000000000
         C            1.491942715635     1.327200091012     0.009995133806    12.000000000000
         C            2.056271715635    -0.972864908988     0.009997133806    12.000000000000
         C            2.485274715635     0.351222091012     0.009995133806    12.000000000000
         H           -1.740908284365    -1.716006908988     0.009995133806     1.007825032230
         H           -2.109298284365     1.101146091012     1.253829133806     1.007825032230
         H           -3.346884284365    -0.255754908988     1.280155133806     1.007825032230
         H           -3.346885284365    -0.255739908988    -1.260175866194     1.007825032230
         H           -2.109294284365     1.101152091012    -1.233829866194     1.007825032230
         H            1.738041715635     2.388084091012     0.009987133806     1.007825032230
         H            2.766119715635    -1.798629908988     0.009984133806     1.007825032230
         H            3.539130715635     0.610018091012     0.009991133806     1.007825032230

  Basis Set: AUG-CC-PVTZ
    Blend: AUG-CC-PVTZ
  Basis Set: (AUG-CC-PVTZ AUX)
    Blend: AUG-CC-PVTZ-JKFIT
	 Reference Energy          =    -378.7255613101041831 [Eh]
	 Singles Energy            =      -0.0000000000000000 [Eh]
	 Same-Spin Energy          =      -0.4135139989693888 [Eh]
	 Opposite-Spin Energy      =      -1.2912613488827254 [Eh]
	 Correlation Energy        =      -1.7047753478521142 [Eh]
	 Total Energy              =    -380.4303366579562748 [Eh]

	 ================> DF-SCS-MP2 Energies <==================
	-----------------------------------------------------------
	 SCS Same-Spin Scale       =       0.3333333333333333 [-]
	 SCS Opposite-Spin Scale   =       1.2000000000000000 [-]
	 SCS Same-Spin Energy      =      -0.1378379996564629 [Eh]
	 SCS Opposite-Spin Energy  =      -1.5495136186592704 [Eh]
	 SCS Correlation Energy    =      -1.6873516183157333 [Eh]
	 SCS Total Energy          =    -380.4129129284199280 [Eh]
	-----------------------------------------------------------

  Dipole Moment: [D]
     X:     1.4211      Y:     0.6106      Z:    -0.0454     Total:     1.5474

*** Psi4 exiting successfully. Buy a developer a beer!
