                               Psi4 1.3.2 release

  ==> Input File <==

--------------------------------------------------------------------------
#psi4
#
memory 32 gb

molecule  {
0 1
  N        0.2222710     1.0128310     0.0000010
  N        0.7926860    -1.3208380    -0.0000020
  C       -1.5206760    -0.6557300    -0.0000030
  C       -2.4976210     0.2265170     0.7463830
  C       -2.4976210     0.2265190    -0.7463820
  C       -0.0883020    -0.2997600     0.0000010
  C        1.5276990     1.3180910     0.0000010
  C        2.0920280    -0.9819740     0.0000030
  C        2.5210310     0.3421130     0.0000010
  H       -1.7051520    -1.7251160     0.0000010
  H       -2.0735420     1.0920370     1.2438350
  H       -3.3111280    -0.2648640     1.2701610
  H       -3.3111290    -0.2648490    -1.2701700
  H       -2.0735380     1.0920430    -1.2438240
  H        1.7737980     2.3789750    -0.0000070
  H        2.8018752    -1.8077376    -0.3000100
  H        3.5748870     0.6009090    -0.0000030
units angstrom
no_reorient  #important for SAPT in psi4, default
symmetry c1  #important for SAPT in psi4, default
}

set PROPERTIES_ORIGIN ["COM"]
properties('MP2/aug-cc-pvtz', properties = ['dipole'])
--------------------------------------------------------------------------

    Molecular point group: c1
  Charge       = 0
  Multiplicity = 1
  Basis Set: AUG-CC-PVTZ
    Blend: AUG-CC-PVTZ
  Basis Set: (AUG-CC-PVTZ AUX)
    Blend: AUG-CC-PVTZ-JKFIT

    Orbital Energies [Eh]
    ---------------------

    Doubly Occupied:

       1A    -15.567416     2A    -15.567224     3A    -11.320341
       4A    -11.301603     5A    -11.299295     6A    -11.242600
       7A    -11.234296     8A    -11.228795     9A    -11.228101
      10A     -1.305680    11A     -1.186989    12A     -1.149262
      13A     -1.064280    14A     -0.911436    15A     -0.888579
      16A     -0.821330    17A     -0.800504    18A     -0.717436
      19A     -0.696843    20A     -0.656490    21A     -0.634659
      22A     -0.606482    23A     -0.588358    24A     -0.570632
      25A     -0.527066    26A     -0.514191    27A     -0.477677
      28A     -0.441681    29A     -0.427591    30A     -0.419035
      31A     -0.405442    32A     -0.348187

  @DF-RHF Final Energy:  -378.72342986206684

   => Energetics <=

    Nuclear Repulsion Energy =            413.2443373039475887
    One-Electron Energy =               -1331.6365348216834263
    Two-Electron Energy =                 539.6687676556690576
    Total Energy =                       -378.7234298620668369
  Basis Set: (AUG-CC-PVTZ AUX)
    Blend: AUG-CC-PVTZ-RI
    Molecular point group: c1

    Geometry (in Angstrom), charge = 0, multiplicity = 1:

       Center              X                  Y                   Z               Mass
    ------------   -----------------  -----------------  -----------------  -----------------
         N            0.186514732344     1.021940089255     0.002518979492    14.003074004430
         N            0.756929732344    -1.311728910745     0.002515979492    14.003074004430
         C           -1.556432267656    -0.646620910745     0.002514979492    12.000000000000
         C           -2.533377267656     0.235626089255     0.748900979492    12.000000000000
         C           -2.533377267656     0.235628089255    -0.743864020508    12.000000000000
         C           -0.124058267656    -0.290650910745     0.002518979492    12.000000000000
         C            1.491942732344     1.327200089255     0.002518979492    12.000000000000
         C            2.056271732344    -0.972864910745     0.002520979492    12.000000000000
         C            2.485274732344     0.351222089255     0.002518979492    12.000000000000
         H           -1.740908267656    -1.716006910745     0.002518979492     1.007825032230
         H           -2.109298267656     1.101146089255     1.246352979492     1.007825032230
         H           -3.346884267656    -0.255754910745     1.272678979492     1.007825032230
         H           -3.346885267656    -0.255739910745    -1.267652020508     1.007825032230
         H           -2.109294267656     1.101152089255    -1.241306020508     1.007825032230
         H            1.738041732344     2.388084089255     0.002510979492     1.007825032230
         H            2.766118932344    -1.798628510745    -0.297492020508     1.007825032230
         H            3.539130732344     0.610018089255     0.002514979492     1.007825032230

  Basis Set: AUG-CC-PVTZ
    Blend: AUG-CC-PVTZ
  Basis Set: (AUG-CC-PVTZ AUX)
    Blend: AUG-CC-PVTZ-JKFIT
	 Reference Energy          =    -378.7234298620668369 [Eh]
	 Singles Energy            =      -0.0000000000000000 [Eh]
	 Same-Spin Energy          =      -0.4136611933474518 [Eh]
	 Opposite-Spin Energy      =      -1.2915932749406194 [Eh]
	 Correlation Energy        =      -1.7052544682880713 [Eh]
	 Total Energy              =    -380.4286843303548835 [Eh]

	 ================> DF-SCS-MP2 Energies <==================
	-----------------------------------------------------------
	 SCS Same-Spin Scale       =       0.3333333333333333 [-]
	 SCS Opposite-Spin Scale   =       1.2000000000000000 [-]
	 SCS Same-Spin Energy      =      -0.1378870644491506 [Eh]
	 SCS Opposite-Spin Energy  =      -1.5499119299287432 [Eh]
	 SCS Correlation Energy    =      -1.6877989943778937 [Eh]
	 SCS Total Energy          =    -380.4112288564447226 [Eh]
	-----------------------------------------------------------

  Dipole Moment: [D]
     X:     1.3765      Y:     0.6538      Z:    -0.1380     Total:     1.5301

*** Psi4 exiting successfully. Buy a developer a beer!
