                               Psi4 1.3.2 release

  ==> Input File <==

--------------------------------------------------------------------------
#psi4
#
memory 32 gb

molecule  {
1 1
  C        0.0002390     0.0000000     0.0000070
  N        1.3351690    -0.0037410     0.0000090
  N       -0.6645470     1.1579100     0.0000060
  N       -0.6710310    -1.1541680    -0.0000370
  H       -1.6824900    -1.1797440    -0.0000320
  H       -0.1917480    -2.0454120     0.0002210
  H        1.8634770    -0.8669560    -0.0001490
  H        1.8683040     0.8565010     0.0001050
  H       -0.1802750     2.0464480    -0.0001350
  H       -1.6758148     1.1891849     0.2501080
units angstrom
no_reorient  #important for SAPT in psi4, default
symmetry c1  #important for SAPT in psi4, default
}

set PROPERTIES_ORIGIN ["COM"]
properties('MP2/aug-cc-pvtz', properties = ['dipole'])
--------------------------------------------------------------------------

    Molecular point group: c1
  Charge       = 1
  Multiplicity = 1
  Basis Set: AUG-CC-PVTZ
    Blend: AUG-CC-PVTZ
  Basis Set: (AUG-CC-PVTZ AUX)
    Blend: AUG-CC-PVTZ-JKFIT

    Orbital Energies [Eh]
    ---------------------

    Doubly Occupied:

       1A    -15.800799     2A    -15.799939     3A    -15.799605
       4A    -11.611456     5A     -1.546619     6A     -1.400134
       7A     -1.397029     8A     -1.077275     9A     -0.982112
      10A     -0.978277    11A     -0.867783    12A     -0.867257
      13A     -0.862354    14A     -0.813111    15A     -0.631877
      16A     -0.631533

  @DF-RHF Final Energy:  -204.61190162534845

   => Energetics <=

    Nuclear Repulsion Energy =            133.1307044893586351
    One-Electron Energy =                -533.3508925423138862
    Two-Electron Energy =                 195.6082864276067710
    Total Energy =                       -204.6119016253484517
  Basis Set: (AUG-CC-PVTZ AUX)
    Blend: AUG-CC-PVTZ-RI
    Molecular point group: c1

    Geometry (in Angstrom), charge = 1, multiplicity = 1:

       Center              X                  Y                   Z               Mass
    ------------   -----------------  -----------------  -----------------  -----------------
         C            0.000262223024    -0.000000600678    -0.004186592507    12.000000000000
         N            1.335192223024    -0.003741600678    -0.004184592507    14.003074004430
         N           -0.664523776976     1.157909399322    -0.004187592507    14.003074004430
         N           -0.671007776976    -1.154168600678    -0.004230592507    14.003074004430
         H           -1.682466776976    -1.179744600678    -0.004225592507     1.007825032230
         H           -0.191724776976    -2.045412600678    -0.003972592507     1.007825032230
         H            1.863500223024    -0.866956600678    -0.004342592507     1.007825032230
         H            1.868327223024     0.856500399322    -0.004088592507     1.007825032230
         H           -0.180251776976     2.046447399322    -0.004328592507     1.007825032230
         H           -1.675791576976     1.189184299322     0.245914407493     1.007825032230

  Basis Set: AUG-CC-PVTZ
    Blend: AUG-CC-PVTZ
  Basis Set: (AUG-CC-PVTZ AUX)
    Blend: AUG-CC-PVTZ-JKFIT
	 Reference Energy          =    -204.6119016253484517 [Eh]
	 Singles Energy            =      -0.0000000000000000 [Eh]
	 Same-Spin Energy          =      -0.2034757674590869 [Eh]
	 Opposite-Spin Energy      =      -0.6545721333579065 [Eh]
	 Correlation Energy        =      -0.8580479008169934 [Eh]
	 Total Energy              =    -205.4699495261654363 [Eh]

	 ================> DF-SCS-MP2 Energies <==================
	-----------------------------------------------------------
	 SCS Same-Spin Scale       =       0.3333333333333333 [-]
	 SCS Opposite-Spin Scale   =       1.2000000000000000 [-]
	 SCS Same-Spin Energy      =      -0.0678252558196956 [Eh]
	 SCS Opposite-Spin Energy  =      -0.7854865600294878 [Eh]
	 SCS Correlation Energy    =      -0.8533118158491835 [Eh]
	 SCS Total Energy          =    -205.4652134411976476 [Eh]
	-----------------------------------------------------------

  Dipole Moment: [D]
     X:     0.0263      Y:    -0.0177      Z:     0.3698     Total:     0.3712

*** Psi4 exiting successfully. Buy a developer a beer!
