                               Psi4 1.3.2 release

  ==> Input File <==

--------------------------------------------------------------------------
#psi4
#
memory 32 gb

molecule  {
1 1
  C        0.0002390     0.0000000     0.0000070
  N        1.3351690    -0.0037410     0.0000090
  N       -0.6645470     1.1579100     0.0000060
  N       -0.6710310    -1.1541680    -0.0000370
  H       -1.6824900    -1.1797440    -0.0000320
  H       -0.1917480    -2.0454120     0.0002210
  H        1.8634770    -0.8669560    -0.0001490
  H        1.8683040     0.8565010     0.0001050
  H       -0.1802750     2.0464480    -0.0001350
  H       -1.6758323     1.1891730     0.1001080
units angstrom
no_reorient  #important for SAPT in psi4, default
symmetry c1  #important for SAPT in psi4, default
}

set PROPERTIES_ORIGIN ["COM"]
properties('MP2/aug-cc-pvtz', properties = ['dipole'])
--------------------------------------------------------------------------

    Molecular point group: c1
  Charge       = 1
  Multiplicity = 1
  Basis Set: AUG-CC-PVTZ
    Blend: AUG-CC-PVTZ
  Basis Set: (AUG-CC-PVTZ AUX)
    Blend: AUG-CC-PVTZ-JKFIT

    Orbital Energies [Eh]
    ---------------------

    Doubly Occupied:

       1A    -15.799713     2A    -15.799676     3A    -15.799511
       4A    -11.611669     5A     -1.547187     6A     -1.400101
       7A     -1.399536     8A     -1.079039     9A     -0.982398
      10A     -0.981716    11A     -0.867778    12A     -0.867512
      13A     -0.866870    14A     -0.815403    15A     -0.631695
      16A     -0.631603

  @DF-RHF Final Energy:  -204.61402250382417

   => Energetics <=

    Nuclear Repulsion Energy =            133.2425019423555739
    One-Electron Energy =                -533.5502333229051146
    Two-Electron Energy =                 195.6937088767253385
    Total Energy =                       -204.6140225038241738
  Basis Set: (AUG-CC-PVTZ AUX)
    Blend: AUG-CC-PVTZ-RI
    Molecular point group: c1

    Geometry (in Angstrom), charge = 1, multiplicity = 1:

       Center              X                  Y                   Z               Mass
    ------------   -----------------  -----------------  -----------------  -----------------
         C            0.000262516698    -0.000000400980    -0.001669386544    12.000000000000
         N            1.335192516698    -0.003741400980    -0.001667386544    14.003074004430
         N           -0.664523483302     1.157909599020    -0.001670386544    14.003074004430
         N           -0.671007483302    -1.154168400980    -0.001713386544    14.003074004430
         H           -1.682466483302    -1.179744400980    -0.001708386544     1.007825032230
         H           -0.191724483302    -2.045412400980    -0.001455386544     1.007825032230
         H            1.863500516698    -0.866956400980    -0.001825386544     1.007825032230
         H            1.868327516698     0.856500599020    -0.001571386544     1.007825032230
         H           -0.180251483302     2.046447599020    -0.001811386544     1.007825032230
         H           -1.675808783302     1.189172599020     0.098431613456     1.007825032230

  Basis Set: AUG-CC-PVTZ
    Blend: AUG-CC-PVTZ
  Basis Set: (AUG-CC-PVTZ AUX)
    Blend: AUG-CC-PVTZ-JKFIT
	 Reference Energy          =    -204.6140225038241738 [Eh]
	 Singles Energy            =      -0.0000000000000000 [Eh]
	 Same-Spin Energy          =      -0.2033111168357284 [Eh]
	 Opposite-Spin Energy      =      -0.6541265066454343 [Eh]
	 Correlation Energy        =      -0.8574376234811627 [Eh]
	 Total Energy              =    -205.4714601273053347 [Eh]

	 ================> DF-SCS-MP2 Energies <==================
	-----------------------------------------------------------
	 SCS Same-Spin Scale       =       0.3333333333333333 [-]
	 SCS Opposite-Spin Scale   =       1.2000000000000000 [-]
	 SCS Same-Spin Energy      =      -0.0677703722785761 [Eh]
	 SCS Opposite-Spin Energy  =      -0.7849518079745211 [Eh]
	 SCS Correlation Energy    =      -0.8527221802530973 [Eh]
	 SCS Total Energy          =    -205.4667446840772698 [Eh]
	-----------------------------------------------------------

  Dipole Moment: [D]
     X:     0.0077      Y:    -0.0030      Z:     0.1489     Total:     0.1491

*** Psi4 exiting successfully. Buy a developer a beer!
