                               Psi4 1.3.2 release

  ==> Input File <==

--------------------------------------------------------------------------
#psi4
#
memory 32 gb

molecule  {
1 1
  C        0.0002390     0.0000000     0.0000070
  N        1.3351690    -0.0037410     0.0000090
  N       -0.6645470     1.1579100     0.0000060
  N       -0.6710347    -1.1541736     0.2999630
  H       -1.6824900    -1.1797440    -0.0000320
  H       -0.1917480    -2.0454120     0.0002210
  H        1.8634770    -0.8669560    -0.0001490
  H        1.8683040     0.8565010     0.0001050
  H       -0.1802750     2.0464480    -0.0001350
  H       -1.6758440     1.1891650     0.0001080
units angstrom
no_reorient  #important for SAPT in psi4, default
symmetry c1  #important for SAPT in psi4, default
}

set PROPERTIES_ORIGIN ["COM"]
properties('MP2/aug-cc-pvtz', properties = ['dipole'])
--------------------------------------------------------------------------

    Molecular point group: c1
  Charge       = 1
  Multiplicity = 1
  Basis Set: AUG-CC-PVTZ
    Blend: AUG-CC-PVTZ
  Basis Set: (AUG-CC-PVTZ AUX)
    Blend: AUG-CC-PVTZ-JKFIT

    Orbital Energies [Eh]
    ---------------------

    Doubly Occupied:

       1A    -15.806327     2A    -15.804972     3A    -15.804838
       4A    -11.615123     5A     -1.544280     6A     -1.403527
       7A     -1.390014     8A     -1.074164     9A     -0.974994
      10A     -0.973921    11A     -0.871556    12A     -0.865163
      13A     -0.842377    14A     -0.803939    15A     -0.642180
      16A     -0.633595

  @DF-RHF Final Energy:  -204.60157419099716

   => Energetics <=

    Nuclear Repulsion Energy =            132.3419308842096314
    One-Electron Energy =                -531.7850711736641642
    Two-Electron Energy =                 194.8415660984573492
    Total Energy =                       -204.6015741909971553
  Basis Set: (AUG-CC-PVTZ AUX)
    Blend: AUG-CC-PVTZ-RI
    Molecular point group: c1

    Geometry (in Angstrom), charge = 1, multiplicity = 1:

       Center              X                  Y                   Z               Mass
    ------------   -----------------  -----------------  -----------------  -----------------
         C            0.000263575755     0.000001039002    -0.069941131936    12.000000000000
         N            1.335193575755    -0.003739960998    -0.069939131936    14.003074004430
         N           -0.664522424245     1.157911039002    -0.069942131936    14.003074004430
         N           -0.671010124245    -1.154172560998     0.230014868064    14.003074004430
         H           -1.682465424245    -1.179742960998    -0.069980131936     1.007825032230
         H           -0.191723424245    -2.045410960998    -0.069727131936     1.007825032230
         H            1.863501575755    -0.866954960998    -0.070097131936     1.007825032230
         H            1.868328575755     0.856502039002    -0.069843131936     1.007825032230
         H           -0.180250424245     2.046449039002    -0.070083131936     1.007825032230
         H           -1.675819424245     1.189166039002    -0.069840131936     1.007825032230

  Basis Set: AUG-CC-PVTZ
    Blend: AUG-CC-PVTZ
  Basis Set: (AUG-CC-PVTZ AUX)
    Blend: AUG-CC-PVTZ-JKFIT
	 Reference Energy          =    -204.6015741909971553 [Eh]
	 Singles Energy            =      -0.0000000000000000 [Eh]
	 Same-Spin Energy          =      -0.2039788437174923 [Eh]
	 Opposite-Spin Energy      =      -0.6568815450616241 [Eh]
	 Correlation Energy        =      -0.8608603887791164 [Eh]
	 Total Energy              =    -205.4624345797762714 [Eh]

	 ================> DF-SCS-MP2 Energies <==================
	-----------------------------------------------------------
	 SCS Same-Spin Scale       =       0.3333333333333333 [-]
	 SCS Opposite-Spin Scale   =       1.2000000000000000 [-]
	 SCS Same-Spin Energy      =      -0.0679929479058308 [Eh]
	 SCS Opposite-Spin Energy  =      -0.7882578540739489 [Eh]
	 SCS Correlation Energy    =      -0.8562508019797797 [Eh]
	 SCS Total Energy          =    -205.4578249929769242 [Eh]
	-----------------------------------------------------------

  Dipole Moment: [D]
     X:     0.1612      Y:     0.2706      Z:    -0.9457     Total:     0.9968

*** Psi4 exiting successfully. Buy a developer a beer!
