                               Psi4 1.3.2 release

  ==> Input File <==

--------------------------------------------------------------------------
#psi4
#
memory 32 gb

molecule  {
1 1
  C        0.0002390     0.0000000     0.0000070
  N        1.3351690    -0.0037410     0.0000090
  N       -0.6645470     1.1579100     0.0000060
  N       -0.6710310    -1.1541680    -0.0000370
  H       -1.6824900    -1.1797440    -0.0000320
  H       -0.1917480    -2.0454120     0.0002210
  H        1.8634770    -0.8669560    -0.0001490
  H        1.8683040     0.8565010     0.0001050
  H       -0.1802750     2.0464480    -0.0001350
  H       -1.6758382     1.1891690     0.0501080
units angstrom
no_reorient  #important for SAPT in psi4, default
symmetry c1  #important for SAPT in psi4, default
}

set PROPERTIES_ORIGIN ["COM"]
properties('MP2/aug-cc-pvtz', properties = ['dipole'])
--------------------------------------------------------------------------

    Molecular point group: c1
  Charge       = 1
  Multiplicity = 1
  Basis Set: AUG-CC-PVTZ
    Blend: AUG-CC-PVTZ
  Basis Set: (AUG-CC-PVTZ AUX)
    Blend: AUG-CC-PVTZ-JKFIT

    Orbital Energies [Eh]
    ---------------------

    Doubly Occupied:

       1A    -15.799643     2A    -15.799548     3A    -15.799492
       4A    -11.611701     5A     -1.547272     6A     -1.400107
       7A     -1.399902     8A     -1.079315     9A     -0.982440
      10A     -0.982243    11A     -0.867851    12A     -0.867561
      13A     -0.867424    14A     -0.815724    15A     -0.631684
      16A     -0.631594

  @DF-RHF Final Energy:  -204.61425100446527

   => Energetics <=

    Nuclear Repulsion Energy =            133.2590570124531837
    One-Electron Energy =                -533.5796178760944031
    Two-Electron Energy =                 195.7063098591759456
    Total Energy =                       -204.6142510044652738
  Basis Set: (AUG-CC-PVTZ AUX)
    Blend: AUG-CC-PVTZ-RI
    Molecular point group: c1

    Geometry (in Angstrom), charge = 1, multiplicity = 1:

       Center              X                  Y                   Z               Mass
    ------------   -----------------  -----------------  -----------------  -----------------
         C            0.000262615708    -0.000000333855    -0.000830317889    12.000000000000
         N            1.335192615708    -0.003741333855    -0.000828317889    14.003074004430
         N           -0.664523384292     1.157909666145    -0.000831317889    14.003074004430
         N           -0.671007384292    -1.154168333855    -0.000874317889    14.003074004430
         H           -1.682466384292    -1.179744333855    -0.000869317889     1.007825032230
         H           -0.191724384292    -2.045412333855    -0.000616317889     1.007825032230
         H            1.863500615708    -0.866956333855    -0.000986317889     1.007825032230
         H            1.868327615708     0.856500666145    -0.000732317889     1.007825032230
         H           -0.180251384292     2.046447666145    -0.000972317889     1.007825032230
         H           -1.675814584292     1.189168666145     0.049270682111     1.007825032230

  Basis Set: AUG-CC-PVTZ
    Blend: AUG-CC-PVTZ
  Basis Set: (AUG-CC-PVTZ AUX)
    Blend: AUG-CC-PVTZ-JKFIT
	 Reference Energy          =    -204.6142510044652738 [Eh]
	 Singles Energy            =      -0.0000000000000000 [Eh]
	 Same-Spin Energy          =      -0.2032873848315510 [Eh]
	 Opposite-Spin Energy      =      -0.6540641060210903 [Eh]
	 Correlation Energy        =      -0.8573514908526413 [Eh]
	 Total Energy              =    -205.4716024953179101 [Eh]

	 ================> DF-SCS-MP2 Energies <==================
	-----------------------------------------------------------
	 SCS Same-Spin Scale       =       0.3333333333333333 [-]
	 SCS Opposite-Spin Scale   =       1.2000000000000000 [-]
	 SCS Same-Spin Energy      =      -0.0677624616105170 [Eh]
	 SCS Opposite-Spin Energy  =      -0.7848769272253083 [Eh]
	 SCS Correlation Energy    =      -0.8526393888358254 [Eh]
	 SCS Total Energy          =    -205.4668903933010995 [Eh]
	-----------------------------------------------------------

  Dipole Moment: [D]
     X:     0.0049      Y:    -0.0008      Z:     0.0746     Total:     0.0748

*** Psi4 exiting successfully. Buy a developer a beer!
