                               Psi4 1.3.2 release

  ==> Input File <==

--------------------------------------------------------------------------
#psi4
#
memory 32 gb

molecule  {
1 1
  C        0.0002390     0.0000000     0.0000070
  N        1.3351690    -0.0037410     0.0000090
  N       -0.6645470     1.1579100     0.0000060
  N       -0.6710310    -1.1541680    -0.0000370
  H       -1.6824900    -1.1797440    -0.0000320
  H       -0.1917480    -2.0454120     0.0002210
  H        1.8634770    -0.8669560    -0.0001490
  H        1.8683040     0.8565010     0.0001050
  H       -0.1802750     2.0464480    -0.0001350
  H       -1.6758265     1.1891770     0.1501080
units angstrom
no_reorient  #important for SAPT in psi4, default
symmetry c1  #important for SAPT in psi4, default
}

set PROPERTIES_ORIGIN ["COM"]
properties('MP2/aug-cc-pvtz', properties = ['dipole'])
--------------------------------------------------------------------------

    Molecular point group: c1
  Charge       = 1
  Multiplicity = 1
  Basis Set: AUG-CC-PVTZ
    Blend: AUG-CC-PVTZ
  Basis Set: (AUG-CC-PVTZ AUX)
    Blend: AUG-CC-PVTZ-JKFIT

    Orbital Energies [Eh]
    ---------------------

    Doubly Occupied:

       1A    -15.799975     2A    -15.799744     3A    -15.799538
       4A    -11.611618     5A     -1.547047     6A     -1.400109
       7A     -1.398921     8A     -1.078593     9A     -0.982329
      10A     -0.980857    11A     -0.867766    12A     -0.867451
      13A     -0.865812    14A     -0.814866    15A     -0.631732
      16A     -0.631597

  @DF-RHF Final Energy:  -204.61359760459271

   => Energetics <=

    Nuclear Repulsion Energy =            133.2152438468635864
    One-Electron Energy =                -533.5017744792124859
    Two-Electron Energy =                 195.6729330277561871
    Total Energy =                       -204.6135976045927123
  Basis Set: (AUG-CC-PVTZ AUX)
    Blend: AUG-CC-PVTZ-RI
    Molecular point group: c1

    Geometry (in Angstrom), charge = 1, multiplicity = 1:

       Center              X                  Y                   Z               Mass
    ------------   -----------------  -----------------  -----------------  -----------------
         C            0.000262419366    -0.000000468105    -0.002508455198    12.000000000000
         N            1.335192419366    -0.003741468105    -0.002506455198    14.003074004430
         N           -0.664523580634     1.157909531895    -0.002509455198    14.003074004430
         N           -0.671007580634    -1.154168468105    -0.002552455198    14.003074004430
         H           -1.682466580634    -1.179744468105    -0.002547455198     1.007825032230
         H           -0.191724580634    -2.045412468105    -0.002294455198     1.007825032230
         H            1.863500419366    -0.866956468105    -0.002664455198     1.007825032230
         H            1.868327419366     0.856500531895    -0.002410455198     1.007825032230
         H           -0.180251580634     2.046447531895    -0.002650455198     1.007825032230
         H           -1.675803080634     1.189176531895     0.147592544802     1.007825032230

  Basis Set: AUG-CC-PVTZ
    Blend: AUG-CC-PVTZ
  Basis Set: (AUG-CC-PVTZ AUX)
    Blend: AUG-CC-PVTZ-JKFIT
	 Reference Energy          =    -204.6135976045927123 [Eh]
	 Singles Energy            =      -0.0000000000000000 [Eh]
	 Same-Spin Energy          =      -0.2033505585422627 [Eh]
	 Opposite-Spin Energy      =      -0.6542313736581518 [Eh]
	 Correlation Energy        =      -0.8575819322004146 [Eh]
	 Total Energy              =    -205.4711795367931302 [Eh]

	 ================> DF-SCS-MP2 Energies <==================
	-----------------------------------------------------------
	 SCS Same-Spin Scale       =       0.3333333333333333 [-]
	 SCS Opposite-Spin Scale   =       1.2000000000000000 [-]
	 SCS Same-Spin Energy      =      -0.0677835195140876 [Eh]
	 SCS Opposite-Spin Energy  =      -0.7850776483897821 [Eh]
	 SCS Correlation Energy    =      -0.8528611679038697 [Eh]
	 SCS Total Energy          =    -205.4664587724965941 [Eh]
	-----------------------------------------------------------

  Dipole Moment: [D]
     X:     0.0123      Y:    -0.0067      Z:     0.2229     Total:     0.2234

*** Psi4 exiting successfully. Buy a developer a beer!
