                               Psi4 1.3.2 release

  ==> Input File <==

--------------------------------------------------------------------------
#psi4
#
memory 32 gb

molecule  {
1 1
  C        0.0002390     0.0000000     0.0000070
  N        1.3351690    -0.0037410     0.0000090
  N       -0.6645470     1.1579100     0.0000060
  N       -0.6710310    -1.1541680    -0.0000370
  H       -1.6824900    -1.1797440    -0.0000320
  H       -0.1917480    -2.0454120     0.0002210
  H        1.8634770    -0.8669560    -0.0001490
  H        1.8683040     0.8565010     0.0001050
  H       -0.1802750     2.0464480    -0.0001350
  H       -1.6758206     1.1891809     0.2001080
units angstrom
no_reorient  #important for SAPT in psi4, default
symmetry c1  #important for SAPT in psi4, default
}

set PROPERTIES_ORIGIN ["COM"]
properties('MP2/aug-cc-pvtz', properties = ['dipole'])
--------------------------------------------------------------------------

    Molecular point group: c1
  Charge       = 1
  Multiplicity = 1
  Basis Set: AUG-CC-PVTZ
    Blend: AUG-CC-PVTZ
  Basis Set: (AUG-CC-PVTZ AUX)
    Blend: AUG-CC-PVTZ-JKFIT

    Orbital Energies [Eh]
    ---------------------

    Doubly Occupied:

       1A    -15.800341     2A    -15.799832     3A    -15.799570
       4A    -11.611546     5A     -1.546857     6A     -1.400121
       7A     -1.398078     8A     -1.077996     9A     -0.982234
      10A     -0.979697    11A     -0.867772    12A     -0.867366
      13A     -0.864302    14A     -0.814106    15A     -0.631795
      16A     -0.631572

  @DF-RHF Final Energy:  -204.61291564211498

   => Energetics <=

    Nuclear Repulsion Energy =            133.1777659668661329
    One-Electron Energy =                -533.4349941511433144
    Two-Electron Energy =                 195.6443125421622256
    Total Energy =                       -204.6129156421149844
  Basis Set: (AUG-CC-PVTZ AUX)
    Blend: AUG-CC-PVTZ-RI
    Molecular point group: c1

    Geometry (in Angstrom), charge = 1, multiplicity = 1:

       Center              X                  Y                   Z               Mass
    ------------   -----------------  -----------------  -----------------  -----------------
         C            0.000262320356    -0.000000533553    -0.003347523853    12.000000000000
         N            1.335192320356    -0.003741533553    -0.003345523853    14.003074004430
         N           -0.664523679644     1.157909466447    -0.003348523853    14.003074004430
         N           -0.671007679644    -1.154168533553    -0.003391523853    14.003074004430
         H           -1.682466679644    -1.179744533553    -0.003386523853     1.007825032230
         H           -0.191724679644    -2.045412533553    -0.003133523853     1.007825032230
         H            1.863500320356    -0.866956533553    -0.003503523853     1.007825032230
         H            1.868327320356     0.856500466447    -0.003249523853     1.007825032230
         H           -0.180251679644     2.046447466447    -0.003489523853     1.007825032230
         H           -1.675797279644     1.189180366447     0.196753476147     1.007825032230

  Basis Set: AUG-CC-PVTZ
    Blend: AUG-CC-PVTZ
  Basis Set: (AUG-CC-PVTZ AUX)
    Blend: AUG-CC-PVTZ-JKFIT
	 Reference Energy          =    -204.6129156421149844 [Eh]
	 Singles Energy            =      -0.0000000000000000 [Eh]
	 Same-Spin Energy          =      -0.2034055340930400 [Eh]
	 Opposite-Spin Energy      =      -0.6543796506455167 [Eh]
	 Correlation Energy        =      -0.8577851847385567 [Eh]
	 Total Energy              =    -205.4707008268535446 [Eh]

	 ================> DF-SCS-MP2 Energies <==================
	-----------------------------------------------------------
	 SCS Same-Spin Scale       =       0.3333333333333333 [-]
	 SCS Opposite-Spin Scale   =       1.2000000000000000 [-]
	 SCS Same-Spin Energy      =      -0.0678018446976800 [Eh]
	 SCS Opposite-Spin Energy  =      -0.7852555807746201 [Eh]
	 SCS Correlation Energy    =      -0.8530574254723001 [Eh]
	 SCS Total Energy          =    -205.4659730675872709 [Eh]
	-----------------------------------------------------------

  Dipole Moment: [D]
     X:     0.0185      Y:    -0.0116      Z:     0.2966     Total:     0.2974

*** Psi4 exiting successfully. Buy a developer a beer!
