                               Psi4 1.3.2 release

  ==> Input File <==

--------------------------------------------------------------------------
#psi4
#
memory 32 gb

molecule  {
1 1
  C        0.0002390     0.0000000     0.0000070
  N        1.3351690    -0.0037410     0.0000090
  N       -0.6645470     1.1579100     0.0000060
  N       -0.6710394    -1.1541726     0.2499630
  H       -1.6824900    -1.1797440    -0.0000320
  H       -0.1917480    -2.0454120     0.0002210
  H        1.8634770    -0.8669560    -0.0001490
  H        1.8683040     0.8565010     0.0001050
  H       -0.1802750     2.0464480    -0.0001350
  H       -1.6758440     1.1891650     0.0001080
units angstrom
no_reorient  #important for SAPT in psi4, default
symmetry c1  #important for SAPT in psi4, default
}

set PROPERTIES_ORIGIN ["COM"]
properties('MP2/aug-cc-pvtz', properties = ['dipole'])
--------------------------------------------------------------------------

    Molecular point group: c1
  Charge       = 1
  Multiplicity = 1
  Basis Set: AUG-CC-PVTZ
    Blend: AUG-CC-PVTZ
  Basis Set: (AUG-CC-PVTZ AUX)
    Blend: AUG-CC-PVTZ-JKFIT

    Orbital Energies [Eh]
    ---------------------

    Doubly Occupied:

       1A    -15.803994     2A    -15.803504     3A    -15.803368
       4A    -11.614183     5A     -1.545149     6A     -1.402594
       7A     -1.393174     8A     -1.075387     9A     -0.976691
      10A     -0.976351    11A     -0.870513    12A     -0.866296
      13A     -0.850122    14A     -0.807442    15A     -0.639025
      16A     -0.633079

  @DF-RHF Final Energy:  -204.60613059579467

   => Energetics <=

    Nuclear Repulsion Energy =            132.6161726734165995
    One-Electron Energy =                -532.3228601593765461
    Two-Electron Energy =                 195.1005568901652794
    Total Energy =                       -204.6061305957946672
  Basis Set: (AUG-CC-PVTZ AUX)
    Blend: AUG-CC-PVTZ-RI
    Molecular point group: c1

    Geometry (in Angstrom), charge = 1, multiplicity = 1:

       Center              X                  Y                   Z               Mass
    ------------   -----------------  -----------------  -----------------  -----------------
         C            0.000264671637     0.000000805836    -0.058282818152    12.000000000000
         N            1.335194671637    -0.003740194164    -0.058280818152    14.003074004430
         N           -0.664521328363     1.157910805836    -0.058283818152    14.003074004430
         N           -0.671013728363    -1.154171794164     0.191673181848    14.003074004430
         H           -1.682464328363    -1.179743194164    -0.058321818152     1.007825032230
         H           -0.191722328363    -2.045411194164    -0.058068818152     1.007825032230
         H            1.863502671637    -0.866955194164    -0.058438818152     1.007825032230
         H            1.868329671637     0.856501805836    -0.058184818152     1.007825032230
         H           -0.180249328363     2.046448805836    -0.058424818152     1.007825032230
         H           -1.675818328363     1.189165805836    -0.058181818152     1.007825032230

  Basis Set: AUG-CC-PVTZ
    Blend: AUG-CC-PVTZ
  Basis Set: (AUG-CC-PVTZ AUX)
    Blend: AUG-CC-PVTZ-JKFIT
	 Reference Energy          =    -204.6061305957946672 [Eh]
	 Singles Energy            =      -0.0000000000000000 [Eh]
	 Same-Spin Energy          =      -0.2037546191801199 [Eh]
	 Opposite-Spin Energy      =      -0.6559837107526978 [Eh]
	 Correlation Energy        =      -0.8597383299328176 [Eh]
	 Total Energy              =    -205.4658689257274773 [Eh]

	 ================> DF-SCS-MP2 Energies <==================
	-----------------------------------------------------------
	 SCS Same-Spin Scale       =       0.3333333333333333 [-]
	 SCS Opposite-Spin Scale   =       1.2000000000000000 [-]
	 SCS Same-Spin Energy      =      -0.0679182063933733 [Eh]
	 SCS Opposite-Spin Energy  =      -0.7871804529032373 [Eh]
	 SCS Correlation Energy    =      -0.8550986592966107 [Eh]
	 SCS Total Energy          =    -205.4612292550912684 [Eh]
	-----------------------------------------------------------

  Dipole Moment: [D]
     X:     0.1170      Y:     0.1946      Z:    -0.7955     Total:     0.8273

*** Psi4 exiting successfully. Buy a developer a beer!
