                               Psi4 1.3.2 release

  ==> Input File <==

--------------------------------------------------------------------------
#psi4
#
memory 32 gb

molecule  {
1 1
  C        0.0002390     0.0000000     0.0000070
  N        1.3351690    -0.0037410     0.0000090
  N       -0.6645470     1.1579100     0.0000060
  N       -0.6710310    -1.1541680    -0.0000370
  H       -1.6824900    -1.1797440    -0.0000320
  H       -0.1917480    -2.0454120     0.0002210
  H        1.8634770    -0.8669560    -0.0001490
  H        1.8683040     0.8565010     0.0001050
  H       -0.1802750     2.0464480    -0.0001350
  H       -1.6758440     1.1891650     0.0001080
units angstrom
no_reorient  #important for SAPT in psi4, default
symmetry c1  #important for SAPT in psi4, default
}

set PROPERTIES_ORIGIN ["COM"]
properties('MP2/aug-cc-pvtz', properties = ['dipole'])
--------------------------------------------------------------------------

    Molecular point group: c1
  Charge       = 1
  Multiplicity = 1
  Basis Set: AUG-CC-PVTZ
    Blend: AUG-CC-PVTZ
  Basis Set: (AUG-CC-PVTZ AUX)
    Blend: AUG-CC-PVTZ-JKFIT

    Orbital Energies [Eh]
    ---------------------

    Doubly Occupied:

       1A    -15.799629     2A    -15.799504     3A    -15.799476
       4A    -11.611711     5A     -1.547301     6A     -1.400128
       7A     -1.400004     8A     -1.079409     9A     -0.982459
      10A     -0.982415    11A     -0.867941    12A     -0.867605
      13A     -0.867515    14A     -0.815831    15A     -0.631683
      16A     -0.631588

  @DF-RHF Final Energy:  -204.61432261033676

   => Energetics <=

    Nuclear Repulsion Energy =            133.2646094136389081
    One-Electron Energy =                -533.5894649326756962
    Two-Electron Energy =                 195.7105329087000030
    Total Energy =                       -204.6143226103367567
  Basis Set: (AUG-CC-PVTZ AUX)
    Blend: AUG-CC-PVTZ-RI
    Molecular point group: c1

    Geometry (in Angstrom), charge = 1, multiplicity = 1:

       Center              X                  Y                   Z               Mass
    ------------   -----------------  -----------------  -----------------  -----------------
         C            0.000262713040    -0.000000266729     0.000008750765    12.000000000000
         N            1.335192713040    -0.003741266729     0.000010750765    14.003074004430
         N           -0.664523286960     1.157909733271     0.000007750765    14.003074004430
         N           -0.671007286960    -1.154168266729    -0.000035249235    14.003074004430
         H           -1.682466286960    -1.179744266729    -0.000030249235     1.007825032230
         H           -0.191724286960    -2.045412266729     0.000222750765     1.007825032230
         H            1.863500713040    -0.866956266729    -0.000147249235     1.007825032230
         H            1.868327713040     0.856500733271     0.000106750765     1.007825032230
         H           -0.180251286960     2.046447733271    -0.000133249235     1.007825032230
         H           -1.675820286960     1.189164733271     0.000109750765     1.007825032230

  Basis Set: AUG-CC-PVTZ
    Blend: AUG-CC-PVTZ
  Basis Set: (AUG-CC-PVTZ AUX)
    Blend: AUG-CC-PVTZ-JKFIT
	 Reference Energy          =    -204.6143226103367567 [Eh]
	 Singles Energy            =      -0.0000000000000000 [Eh]
	 Same-Spin Energy          =      -0.2032794552529848 [Eh]
	 Opposite-Spin Energy      =      -0.6540433923531220 [Eh]
	 Correlation Energy        =      -0.8573228476061069 [Eh]
	 Total Energy              =    -205.4716454579428557 [Eh]

	 ================> DF-SCS-MP2 Energies <==================
	-----------------------------------------------------------
	 SCS Same-Spin Scale       =       0.3333333333333333 [-]
	 SCS Opposite-Spin Scale   =       1.2000000000000000 [-]
	 SCS Same-Spin Energy      =      -0.0677598184176616 [Eh]
	 SCS Opposite-Spin Energy  =      -0.7848520708237464 [Eh]
	 SCS Correlation Energy    =      -0.8526118892414081 [Eh]
	 SCS Total Energy          =    -205.4669344995781728 [Eh]
	-----------------------------------------------------------

  Dipole Moment: [D]
     X:     0.0039      Y:     0.0000      Z:     0.0003     Total:     0.0039

*** Psi4 exiting successfully. Buy a developer a beer!
