                               Psi4 1.3.2 release

  ==> Input File <==

--------------------------------------------------------------------------
#psi4
#
memory 32 gb

molecule  {
1 1
  C        0.0002390     0.0000000     0.0000070
  N        1.3351690    -0.0037410     0.0000090
  N       -0.6645470     1.1579100     0.0000060
  N       -0.6710341    -1.1541726     0.2499630
  H       -1.6824900    -1.1797440    -0.0000320
  H       -0.1917480    -2.0454120     0.0002210
  H        1.8634770    -0.8669560    -0.0001490
  H        1.8683040     0.8565010     0.0001050
  H       -0.1802750     2.0464480    -0.0001350
  H       -1.6758440     1.1891650     0.0001080
units angstrom
no_reorient  #important for SAPT in psi4, default
symmetry c1  #important for SAPT in psi4, default
}

set PROPERTIES_ORIGIN ["COM"]
properties('MP2/aug-cc-pvtz', properties = ['dipole'])
--------------------------------------------------------------------------

    Molecular point group: c1
  Charge       = 1
  Multiplicity = 1
  Basis Set: AUG-CC-PVTZ
    Blend: AUG-CC-PVTZ
  Basis Set: (AUG-CC-PVTZ AUX)
    Blend: AUG-CC-PVTZ-JKFIT

    Orbital Energies [Eh]
    ---------------------

    Doubly Occupied:

       1A    -15.803994     2A    -15.803503     3A    -15.803368
       4A    -11.614183     5A     -1.545150     6A     -1.402594
       7A     -1.393174     8A     -1.075387     9A     -0.976691
      10A     -0.976351    11A     -0.870513    12A     -0.866296
      13A     -0.850121    14A     -0.807442    15A     -0.639025
      16A     -0.633079

  @DF-RHF Final Energy:  -204.60613050688787

   => Energetics <=

    Nuclear Repulsion Energy =            132.6162204831970541
    One-Electron Energy =                -532.3229568236266687
    Two-Electron Energy =                 195.1006058335417777
    Total Energy =                       -204.6061305068878653
  Basis Set: (AUG-CC-PVTZ AUX)
    Blend: AUG-CC-PVTZ-RI
    Molecular point group: c1

    Geometry (in Angstrom), charge = 1, multiplicity = 1:

       Center              X                  Y                   Z               Mass
    ------------   -----------------  -----------------  -----------------  -----------------
         C            0.000263435856     0.000000805836    -0.058282818152    12.000000000000
         N            1.335193435856    -0.003740194164    -0.058280818152    14.003074004430
         N           -0.664522564144     1.157910805836    -0.058283818152    14.003074004430
         N           -0.671009664144    -1.154171794164     0.191673181848    14.003074004430
         H           -1.682465564144    -1.179743194164    -0.058321818152     1.007825032230
         H           -0.191723564144    -2.045411194164    -0.058068818152     1.007825032230
         H            1.863501435856    -0.866955194164    -0.058438818152     1.007825032230
         H            1.868328435856     0.856501805836    -0.058184818152     1.007825032230
         H           -0.180250564144     2.046448805836    -0.058424818152     1.007825032230
         H           -1.675819564144     1.189165805836    -0.058181818152     1.007825032230

  Basis Set: AUG-CC-PVTZ
    Blend: AUG-CC-PVTZ
  Basis Set: (AUG-CC-PVTZ AUX)
    Blend: AUG-CC-PVTZ-JKFIT
	 Reference Energy          =    -204.6061305068878653 [Eh]
	 Singles Energy            =      -0.0000000000000000 [Eh]
	 Same-Spin Energy          =      -0.2037546398598856 [Eh]
	 Opposite-Spin Energy      =      -0.6559837210807037 [Eh]
	 Correlation Energy        =      -0.8597383609405893 [Eh]
	 Total Energy              =    -205.4658688678284477 [Eh]

	 ================> DF-SCS-MP2 Energies <==================
	-----------------------------------------------------------
	 SCS Same-Spin Scale       =       0.3333333333333333 [-]
	 SCS Opposite-Spin Scale   =       1.2000000000000000 [-]
	 SCS Same-Spin Energy      =      -0.0679182132866285 [Eh]
	 SCS Opposite-Spin Energy  =      -0.7871804652968444 [Eh]
	 SCS Correlation Energy    =      -0.8550986785834729 [Eh]
	 SCS Total Energy          =    -205.4612291854713249 [Eh]
	-----------------------------------------------------------

  Dipole Moment: [D]
     X:     0.1170      Y:     0.1945      Z:    -0.7955     Total:     0.8273

*** Psi4 exiting successfully. Buy a developer a beer!
