                               Psi4 1.3.2 release

  ==> Input File <==

--------------------------------------------------------------------------
#psi4
#
memory 32 gb

molecule  {
1 1
  C        0.0002390     0.0000000     0.0000070
  N        1.3351690    -0.0037410     0.0000090
  N       -0.6645470     1.1579100     0.0000060
  N       -0.6710411    -1.1541736     0.2999630
  H       -1.6824900    -1.1797440    -0.0000320
  H       -0.1917480    -2.0454120     0.0002210
  H        1.8634770    -0.8669560    -0.0001490
  H        1.8683040     0.8565010     0.0001050
  H       -0.1802750     2.0464480    -0.0001350
  H       -1.6758440     1.1891650     0.0001080
units angstrom
no_reorient  #important for SAPT in psi4, default
symmetry c1  #important for SAPT in psi4, default
}

set PROPERTIES_ORIGIN ["COM"]
properties('MP2/aug-cc-pvtz', properties = ['dipole'])
--------------------------------------------------------------------------

    Molecular point group: c1
  Charge       = 1
  Multiplicity = 1
  Basis Set: AUG-CC-PVTZ
    Blend: AUG-CC-PVTZ
  Basis Set: (AUG-CC-PVTZ AUX)
    Blend: AUG-CC-PVTZ-JKFIT

    Orbital Energies [Eh]
    ---------------------

    Doubly Occupied:

       1A    -15.806327     2A    -15.804973     3A    -15.804838
       4A    -11.615124     5A     -1.544279     6A     -1.403527
       7A     -1.390013     8A     -1.074164     9A     -0.974994
      10A     -0.973921    11A     -0.871557    12A     -0.865162
      13A     -0.842378    14A     -0.803938    15A     -0.642180
      16A     -0.633595

  @DF-RHF Final Energy:  -204.60157433348613

   => Energetics <=

    Nuclear Repulsion Energy =            132.3418737995095285
    One-Electron Energy =                -531.7849559000578665
    Two-Electron Energy =                 194.8415077670622111
    Total Energy =                       -204.6015743334861270
  Basis Set: (AUG-CC-PVTZ AUX)
    Blend: AUG-CC-PVTZ-RI
    Molecular point group: c1

    Geometry (in Angstrom), charge = 1, multiplicity = 1:

       Center              X                  Y                   Z               Mass
    ------------   -----------------  -----------------  -----------------  -----------------
         C            0.000265068020     0.000001039002    -0.069941131936    12.000000000000
         N            1.335195068020    -0.003739960998    -0.069939131936    14.003074004430
         N           -0.664520931980     1.157911039002    -0.069942131936    14.003074004430
         N           -0.671015031980    -1.154172560998     0.230014868064    14.003074004430
         H           -1.682463931980    -1.179742960998    -0.069980131936     1.007825032230
         H           -0.191721931980    -2.045410960998    -0.069727131936     1.007825032230
         H            1.863503068020    -0.866954960998    -0.070097131936     1.007825032230
         H            1.868330068020     0.856502039002    -0.069843131936     1.007825032230
         H           -0.180248931980     2.046449039002    -0.070083131936     1.007825032230
         H           -1.675817931980     1.189166039002    -0.069840131936     1.007825032230

  Basis Set: AUG-CC-PVTZ
    Blend: AUG-CC-PVTZ
  Basis Set: (AUG-CC-PVTZ AUX)
    Blend: AUG-CC-PVTZ-JKFIT
	 Reference Energy          =    -204.6015743334861270 [Eh]
	 Singles Energy            =      -0.0000000000000000 [Eh]
	 Same-Spin Energy          =      -0.2039788165659671 [Eh]
	 Opposite-Spin Energy      =      -0.6568815293142309 [Eh]
	 Correlation Energy        =      -0.8608603458801980 [Eh]
	 Total Energy              =    -205.4624346793663108 [Eh]

	 ================> DF-SCS-MP2 Energies <==================
	-----------------------------------------------------------
	 SCS Same-Spin Scale       =       0.3333333333333333 [-]
	 SCS Opposite-Spin Scale   =       1.2000000000000000 [-]
	 SCS Same-Spin Energy      =      -0.0679929388553224 [Eh]
	 SCS Opposite-Spin Energy  =      -0.7882578351770771 [Eh]
	 SCS Correlation Energy    =      -0.8562507740323995 [Eh]
	 SCS Total Energy          =    -205.4578251075185165 [Eh]
	-----------------------------------------------------------

  Dipole Moment: [D]
     X:     0.1612      Y:     0.2707      Z:    -0.9457     Total:     0.9968

*** Psi4 exiting successfully. Buy a developer a beer!
