                               Psi4 1.3.2 release

  ==> Input File <==

--------------------------------------------------------------------------
#psi4
#
memory 32 gb

molecule  {
1 1
  C        0.0002390     0.0000000     0.0000070
  N        1.3351690    -0.0037410     0.0000090
  N       -0.6645470     1.1579100     0.0000060
  N       -0.6710310    -1.1541680    -0.0000370
  H       -1.6824900    -1.1797440    -0.0000320
  H       -0.1917480    -2.0454120     0.0002210
  H        1.8634770    -0.8669560    -0.0001490
  H        1.8683040     0.8565010     0.0001050
  H       -0.1802750     2.0464480    -0.0001350
  H       -1.6758090     1.1891889     0.3001080
units angstrom
no_reorient  #important for SAPT in psi4, default
symmetry c1  #important for SAPT in psi4, default
}

set PROPERTIES_ORIGIN ["COM"]
properties('MP2/aug-cc-pvtz', properties = ['dipole'])
--------------------------------------------------------------------------

    Molecular point group: c1
  Charge       = 1
  Multiplicity = 1
  Basis Set: AUG-CC-PVTZ
    Blend: AUG-CC-PVTZ
  Basis Set: (AUG-CC-PVTZ AUX)
    Blend: AUG-CC-PVTZ-JKFIT

    Orbital Energies [Eh]
    ---------------------

    Doubly Occupied:

       1A    -15.801341     2A    -15.800063     3A    -15.799639
       4A    -11.611346     5A     -1.546341     6A     -1.400146
       7A     -1.395800     8A     -1.076455     9A     -0.981964
      10A     -0.976645    11A     -0.867797    12A     -0.867122
      13A     -0.859982    14A     -0.811863    15A     -0.631970
      16A     -0.631482

  @DF-RHF Final Energy:  -204.61047437844343

   => Energetics <=

    Nuclear Repulsion Energy =            133.0748200629506073
    One-Electron Energy =                -533.2506807351913949
    Two-Electron Energy =                 195.5653862937973599
    Total Energy =                       -204.6104743784434277
  Basis Set: (AUG-CC-PVTZ AUX)
    Blend: AUG-CC-PVTZ-RI
    Molecular point group: c1

    Geometry (in Angstrom), charge = 1, multiplicity = 1:

       Center              X                  Y                   Z               Mass
    ------------   -----------------  -----------------  -----------------  -----------------
         C            0.000262125692    -0.000000667804    -0.005025661162    12.000000000000
         N            1.335192125692    -0.003741667804    -0.005023661162    14.003074004430
         N           -0.664523874308     1.157909332196    -0.005026661162    14.003074004430
         N           -0.671007874308    -1.154168667804    -0.005069661162    14.003074004430
         H           -1.682466874308    -1.179744667804    -0.005064661162     1.007825032230
         H           -0.191724874308    -2.045412667804    -0.004811661162     1.007825032230
         H            1.863500125692    -0.866956667804    -0.005181661162     1.007825032230
         H            1.868327125692     0.856500332196    -0.004927661162     1.007825032230
         H           -0.180251874308     2.046447332196    -0.005167661162     1.007825032230
         H           -1.675785874308     1.189188232196     0.295075338838     1.007825032230

  Basis Set: AUG-CC-PVTZ
    Blend: AUG-CC-PVTZ
  Basis Set: (AUG-CC-PVTZ AUX)
    Blend: AUG-CC-PVTZ-JKFIT
	 Reference Energy          =    -204.6104743784434277 [Eh]
	 Singles Energy            =      -0.0000000000000000 [Eh]
	 Same-Spin Energy          =      -0.2035608536322703 [Eh]
	 Opposite-Spin Energy      =      -0.6548092442741263 [Eh]
	 Correlation Energy        =      -0.8583700979063966 [Eh]
	 Total Energy              =    -205.4688444763498296 [Eh]

	 ================> DF-SCS-MP2 Energies <==================
	-----------------------------------------------------------
	 SCS Same-Spin Scale       =       0.3333333333333333 [-]
	 SCS Opposite-Spin Scale   =       1.2000000000000000 [-]
	 SCS Same-Spin Energy      =      -0.0678536178774234 [Eh]
	 SCS Opposite-Spin Energy  =      -0.7857710931289515 [Eh]
	 SCS Correlation Energy    =      -0.8536247110063749 [Eh]
	 SCS Total Energy          =    -205.4640990894498032 [Eh]
	-----------------------------------------------------------

  Dipole Moment: [D]
     X:     0.0353      Y:    -0.0248      Z:     0.4425     Total:     0.4446

*** Psi4 exiting successfully. Buy a developer a beer!
