                               Psi4 1.3.2 release

  ==> Input File <==

--------------------------------------------------------------------------
#psi4
#
memory 32 gb

molecule  {
1 1
  C        0.0002390     0.0000000     0.0000070
  N        1.3351690    -0.0037410     0.0000090
  N       -0.6645470     1.1579100     0.0000060
  N       -0.6710327    -1.1541689     0.0499630
  H       -1.6824900    -1.1797440    -0.0000320
  H       -0.1917480    -2.0454120     0.0002210
  H        1.8634770    -0.8669560    -0.0001490
  H        1.8683040     0.8565010     0.0001050
  H       -0.1802750     2.0464480    -0.0001350
  H       -1.6758440     1.1891650     0.0001080
units angstrom
no_reorient  #important for SAPT in psi4, default
symmetry c1  #important for SAPT in psi4, default
}

set PROPERTIES_ORIGIN ["COM"]
properties('MP2/aug-cc-pvtz', properties = ['dipole'])
--------------------------------------------------------------------------

    Molecular point group: c1
  Charge       = 1
  Multiplicity = 1
  Basis Set: AUG-CC-PVTZ
    Blend: AUG-CC-PVTZ
  Basis Set: (AUG-CC-PVTZ AUX)
    Blend: AUG-CC-PVTZ-JKFIT

    Orbital Energies [Eh]
    ---------------------

    Doubly Occupied:

       1A    -15.799799     2A    -15.799669     3A    -15.799636
       4A    -11.611820     5A     -1.547209     6A     -1.400215
       7A     -1.399765     8A     -1.079207     9A     -0.982186
      10A     -0.982140    11A     -0.867926    12A     -0.867608
      13A     -0.866948    14A     -0.815480    15A     -0.631922
      16A     -0.631715

  @DF-RHF Final Energy:  -204.61406076894062

   => Energetics <=

    Nuclear Repulsion Energy =            133.2380028588978007
    One-Electron Energy =                -533.5376397707269689
    Two-Electron Energy =                 195.6855761428885501
    Total Energy =                       -204.6140607689406181
  Basis Set: (AUG-CC-PVTZ AUX)
    Blend: AUG-CC-PVTZ-RI
    Molecular point group: c1

    Geometry (in Angstrom), charge = 1, multiplicity = 1:

       Center              X                  Y                   Z               Mass
    ------------   -----------------  -----------------  -----------------  -----------------
         C            0.000263109423    -0.000000056879    -0.011649563018    12.000000000000
         N            1.335193109423    -0.003741056879    -0.011647563018    14.003074004430
         N           -0.664522890577     1.157909943121    -0.011650563018    14.003074004430
         N           -0.671008590577    -1.154168956879     0.038306436982    14.003074004430
         H           -1.682465890577    -1.179744056879    -0.011688563018     1.007825032230
         H           -0.191723890577    -2.045412056879    -0.011435563018     1.007825032230
         H            1.863501109423    -0.866956056879    -0.011805563018     1.007825032230
         H            1.868328109423     0.856500943121    -0.011551563018     1.007825032230
         H           -0.180250890577     2.046447943121    -0.011791563018     1.007825032230
         H           -1.675819890577     1.189164943121    -0.011548563018     1.007825032230

  Basis Set: AUG-CC-PVTZ
    Blend: AUG-CC-PVTZ
  Basis Set: (AUG-CC-PVTZ AUX)
    Blend: AUG-CC-PVTZ-JKFIT
	 Reference Energy          =    -204.6140607689406181 [Eh]
	 Singles Energy            =      -0.0000000000000000 [Eh]
	 Same-Spin Energy          =      -0.2032975080481933 [Eh]
	 Opposite-Spin Energy      =      -0.6541163416227698 [Eh]
	 Correlation Energy        =      -0.8574138496709631 [Eh]
	 Total Energy              =    -205.4714746186115804 [Eh]

	 ================> DF-SCS-MP2 Energies <==================
	-----------------------------------------------------------
	 SCS Same-Spin Scale       =       0.3333333333333333 [-]
	 SCS Opposite-Spin Scale   =       1.2000000000000000 [-]
	 SCS Same-Spin Energy      =      -0.0677658360160644 [Eh]
	 SCS Opposite-Spin Energy  =      -0.7849396099473237 [Eh]
	 SCS Correlation Energy    =      -0.8527054459633882 [Eh]
	 SCS Total Energy          =    -205.4667662149039984 [Eh]
	-----------------------------------------------------------

  Dipole Moment: [D]
     X:     0.0088      Y:     0.0084      Z:    -0.1618     Total:     0.1623

*** Psi4 exiting successfully. Buy a developer a beer!
