                               Psi4 1.3.2 release

  ==> Input File <==

--------------------------------------------------------------------------
#psi4
#
memory 32 gb

molecule  {
1 1
  C        0.0002390     0.0000000     0.0000070
  N        1.3351690    -0.0037410     0.0000090
  N       -0.6645470     1.1579100     0.0000060
  N       -0.6710361    -1.1541708     0.1499630
  H       -1.6824900    -1.1797440    -0.0000320
  H       -0.1917480    -2.0454120     0.0002210
  H        1.8634770    -0.8669560    -0.0001490
  H        1.8683040     0.8565010     0.0001050
  H       -0.1802750     2.0464480    -0.0001350
  H       -1.6758440     1.1891650     0.0001080
units angstrom
no_reorient  #important for SAPT in psi4, default
symmetry c1  #important for SAPT in psi4, default
}

set PROPERTIES_ORIGIN ["COM"]
properties('MP2/aug-cc-pvtz', properties = ['dipole'])
--------------------------------------------------------------------------

    Molecular point group: c1
  Charge       = 1
  Multiplicity = 1
  Basis Set: AUG-CC-PVTZ
    Blend: AUG-CC-PVTZ
  Basis Set: (AUG-CC-PVTZ AUX)
    Blend: AUG-CC-PVTZ-JKFIT

    Orbital Energies [Eh]
    ---------------------

    Doubly Occupied:

       1A    -15.801116     2A    -15.800986     3A    -15.800956
       4A    -11.612661     5A     -1.546495     6A     -1.401061
       7A     -1.397624     8A     -1.077724     9A     -0.980177
      10A     -0.979995    11A     -0.868812    12A     -0.867383
      13A     -0.861417    14A     -0.812722    15A     -0.634316
      16A     -0.632212

  @DF-RHF Final Energy:  -204.61175448988203

   => Energetics <=

    Nuclear Repulsion Energy =            133.0270365947166624
    One-Electron Energy =                -533.1262666115300135
    Two-Electron Energy =                 195.4874755269313198
    Total Energy =                       -204.6117544898820313
  Basis Set: (AUG-CC-PVTZ AUX)
    Blend: AUG-CC-PVTZ-RI
    Molecular point group: c1

    Geometry (in Angstrom), charge = 1, multiplicity = 1:

       Center              X                  Y                   Z               Mass
    ------------   -----------------  -----------------  -----------------  -----------------
         C            0.000263902188     0.000000386137    -0.034966190585    12.000000000000
         N            1.335193902188    -0.003740613863    -0.034964190585    14.003074004430
         N           -0.664522097812     1.157910386137    -0.034967190585    14.003074004430
         N           -0.671011197812    -1.154170413863     0.114989809415    14.003074004430
         H           -1.682465097812    -1.179743613863    -0.035005190585     1.007825032230
         H           -0.191723097812    -2.045411613863    -0.034752190585     1.007825032230
         H            1.863501902188    -0.866955613863    -0.035122190585     1.007825032230
         H            1.868328902188     0.856501386137    -0.034868190585     1.007825032230
         H           -0.180250097812     2.046448386137    -0.035108190585     1.007825032230
         H           -1.675819097812     1.189165386137    -0.034865190585     1.007825032230

  Basis Set: AUG-CC-PVTZ
    Blend: AUG-CC-PVTZ
  Basis Set: (AUG-CC-PVTZ AUX)
    Blend: AUG-CC-PVTZ-JKFIT
	 Reference Energy          =    -204.6117544898820313 [Eh]
	 Singles Energy            =      -0.0000000000000000 [Eh]
	 Same-Spin Energy          =      -0.2034453729614745 [Eh]
	 Opposite-Spin Energy      =      -0.6547214398742092 [Eh]
	 Correlation Energy        =      -0.8581668128356836 [Eh]
	 Total Energy              =    -205.4699213027177223 [Eh]

	 ================> DF-SCS-MP2 Energies <==================
	-----------------------------------------------------------
	 SCS Same-Spin Scale       =       0.3333333333333333 [-]
	 SCS Opposite-Spin Scale   =       1.2000000000000000 [-]
	 SCS Same-Spin Energy      =      -0.0678151243204915 [Eh]
	 SCS Opposite-Spin Energy  =      -0.7856657278490510 [Eh]
	 SCS Correlation Energy    =      -0.8534808521695425 [Eh]
	 SCS Total Energy          =    -205.4652353420515851 [Eh]
	-----------------------------------------------------------

  Dipole Moment: [D]
     X:     0.0467      Y:     0.0736      Z:    -0.4832     Total:     0.4910

*** Psi4 exiting successfully. Buy a developer a beer!
