                               Psi4 1.3.2 release

  ==> Input File <==

--------------------------------------------------------------------------
#psi4
#
memory 32 gb

molecule  {
1 1
  C        0.0002390     0.0000000     0.0000070
  N        1.3351690    -0.0037410     0.0000090
  N       -0.6645470     1.1579100     0.0000060
  N       -0.6710377    -1.1541717     0.1999630
  H       -1.6824900    -1.1797440    -0.0000320
  H       -0.1917480    -2.0454120     0.0002210
  H        1.8634770    -0.8669560    -0.0001490
  H        1.8683040     0.8565010     0.0001050
  H       -0.1802750     2.0464480    -0.0001350
  H       -1.6758440     1.1891650     0.0001080
units angstrom
no_reorient  #important for SAPT in psi4, default
symmetry c1  #important for SAPT in psi4, default
}

set PROPERTIES_ORIGIN ["COM"]
properties('MP2/aug-cc-pvtz', properties = ['dipole'])
--------------------------------------------------------------------------

    Molecular point group: c1
  Charge       = 1
  Multiplicity = 1
  Basis Set: AUG-CC-PVTZ
    Blend: AUG-CC-PVTZ
  Basis Set: (AUG-CC-PVTZ AUX)
    Blend: AUG-CC-PVTZ-JKFIT

    Orbital Energies [Eh]
    ---------------------

    Doubly Occupied:

       1A    -15.802235     2A    -15.802196     3A    -15.802062
       4A    -11.613351     5A     -1.545894     6A     -1.401759
       7A     -1.395701     8A     -1.076609     9A     -0.978474
      10A     -0.978399    11A     -0.869584    12A     -0.866998
      13A     -0.856486    14A     -0.810379    15A     -0.636393
      16A     -0.632609

  @DF-RHF Final Energy:  -204.60945103777252

   => Energetics <=

    Nuclear Repulsion Energy =            132.8455006345074878
    One-Electron Energy =                -532.7716433104445741
    Two-Electron Energy =                 195.3166916381645422
    Total Energy =                       -204.6094510377725157
  Basis Set: (AUG-CC-PVTZ AUX)
    Blend: AUG-CC-PVTZ-RI
    Molecular point group: c1

    Geometry (in Angstrom), charge = 1, multiplicity = 1:

       Center              X                  Y                   Z               Mass
    ------------   -----------------  -----------------  -----------------  -----------------
         C            0.000264275254     0.000000595986    -0.046624504369    12.000000000000
         N            1.335194275254    -0.003740404014    -0.046622504369    14.003074004430
         N           -0.664521724746     1.157910595986    -0.046625504369    14.003074004430
         N           -0.671012424746    -1.154171104014     0.153331495631    14.003074004430
         H           -1.682464724746    -1.179743404014    -0.046663504369     1.007825032230
         H           -0.191722724746    -2.045411404014    -0.046410504369     1.007825032230
         H            1.863502275254    -0.866955404014    -0.046780504369     1.007825032230
         H            1.868329275254     0.856501595986    -0.046526504369     1.007825032230
         H           -0.180249724746     2.046448595986    -0.046766504369     1.007825032230
         H           -1.675818724746     1.189165595986    -0.046523504369     1.007825032230

  Basis Set: AUG-CC-PVTZ
    Blend: AUG-CC-PVTZ
  Basis Set: (AUG-CC-PVTZ AUX)
    Blend: AUG-CC-PVTZ-JKFIT
	 Reference Energy          =    -204.6094510377725157 [Eh]
	 Singles Energy            =      -0.0000000000000000 [Eh]
	 Same-Spin Energy          =      -0.2035784103455856 [Eh]
	 Opposite-Spin Energy      =      -0.6552671273557522 [Eh]
	 Correlation Energy        =      -0.8588455377013378 [Eh]
	 Total Energy              =    -205.4682965754738575 [Eh]

	 ================> DF-SCS-MP2 Energies <==================
	-----------------------------------------------------------
	 SCS Same-Spin Scale       =       0.3333333333333333 [-]
	 SCS Opposite-Spin Scale   =       1.2000000000000000 [-]
	 SCS Same-Spin Energy      =      -0.0678594701151952 [Eh]
	 SCS Opposite-Spin Energy  =      -0.7863205528269026 [Eh]
	 SCS Correlation Energy    =      -0.8541800229420978 [Eh]
	 SCS Total Energy          =    -205.4636310607146186 [Eh]
	-----------------------------------------------------------

  Dipole Moment: [D]
     X:     0.0784      Y:     0.1281      Z:    -0.6410     Total:     0.6583

*** Psi4 exiting successfully. Buy a developer a beer!
