                               Psi4 1.3.2 release

  ==> Input File <==

--------------------------------------------------------------------------
#psi4
#
memory 32 gb

molecule  {
1 1
  C        0.0002390     0.0000000     0.0000070
  N        1.3351690    -0.0037410     0.0000090
  N       -0.6645470     1.1579100     0.0000060
  N       -0.6710322    -1.1541699     0.0999630
  H       -1.6824900    -1.1797440    -0.0000320
  H       -0.1917480    -2.0454120     0.0002210
  H        1.8634770    -0.8669560    -0.0001490
  H        1.8683040     0.8565010     0.0001050
  H       -0.1802750     2.0464480    -0.0001350
  H       -1.6758440     1.1891650     0.0001080
units angstrom
no_reorient  #important for SAPT in psi4, default
symmetry c1  #important for SAPT in psi4, default
}

set PROPERTIES_ORIGIN ["COM"]
properties('MP2/aug-cc-pvtz', properties = ['dipole'])
--------------------------------------------------------------------------

    Molecular point group: c1
  Charge       = 1
  Multiplicity = 1
  Basis Set: AUG-CC-PVTZ
    Blend: AUG-CC-PVTZ
  Basis Set: (AUG-CC-PVTZ AUX)
    Blend: AUG-CC-PVTZ-JKFIT

    Orbital Energies [Eh]
    ---------------------

    Doubly Occupied:

       1A    -15.800303     2A    -15.800169     3A    -15.800118
       4A    -11.612142     5A     -1.546938     6A     -1.400537
       7A     -1.398971     8A     -1.078623     9A     -0.981423
      10A     -0.981294    11A     -0.868240    12A     -0.867558
      13A     -0.864903    14A     -0.814435    15A     -0.632819
      16A     -0.631910

  @DF-RHF Final Energy:  -204.61323856347983

   => Energetics <=

    Nuclear Repulsion Energy =            133.1584717156448221
    One-Electron Energy =                -533.3826560369628851
    Two-Electron Energy =                 195.6109457578382091
    Total Energy =                       -204.6132385634798254
  Basis Set: (AUG-CC-PVTZ AUX)
    Blend: AUG-CC-PVTZ-RI
    Molecular point group: c1

    Geometry (in Angstrom), charge = 1, multiplicity = 1:

       Center              X                  Y                   Z               Mass
    ------------   -----------------  -----------------  -----------------  -----------------
         C            0.000262992840     0.000000176287    -0.023307876802    12.000000000000
         N            1.335192992840    -0.003740823713    -0.023305876802    14.003074004430
         N           -0.664523007160     1.157910176287    -0.023308876802    14.003074004430
         N           -0.671008207160    -1.154169723713     0.076648123198    14.003074004430
         H           -1.682466007160    -1.179743823713    -0.023346876802     1.007825032230
         H           -0.191724007160    -2.045411823713    -0.023093876802     1.007825032230
         H            1.863500992840    -0.866955823713    -0.023463876802     1.007825032230
         H            1.868327992840     0.856501176287    -0.023209876802     1.007825032230
         H           -0.180251007160     2.046448176287    -0.023449876802     1.007825032230
         H           -1.675820007160     1.189165176287    -0.023206876802     1.007825032230

  Basis Set: AUG-CC-PVTZ
    Blend: AUG-CC-PVTZ
  Basis Set: (AUG-CC-PVTZ AUX)
    Blend: AUG-CC-PVTZ-JKFIT
	 Reference Energy          =    -204.6132385634798254 [Eh]
	 Singles Energy            =      -0.0000000000000000 [Eh]
	 Same-Spin Energy          =      -0.2033523935450960 [Eh]
	 Opposite-Spin Energy      =      -0.6543398713883013 [Eh]
	 Correlation Energy        =      -0.8576922649333973 [Eh]
	 Total Energy              =    -205.4709308284132305 [Eh]

	 ================> DF-SCS-MP2 Energies <==================
	-----------------------------------------------------------
	 SCS Same-Spin Scale       =       0.3333333333333333 [-]
	 SCS Opposite-Spin Scale   =       1.2000000000000000 [-]
	 SCS Same-Spin Energy      =      -0.0677841311816987 [Eh]
	 SCS Opposite-Spin Energy  =      -0.7852078456659616 [Eh]
	 SCS Correlation Energy    =      -0.8529919768476603 [Eh]
	 SCS Total Energy          =    -205.4662305403274729 [Eh]
	-----------------------------------------------------------

  Dipole Moment: [D]
     X:     0.0232      Y:     0.0332      Z:    -0.3232     Total:     0.3257

*** Psi4 exiting successfully. Buy a developer a beer!
