                               Psi4 1.4a3.dev225

  ==> Input File <==

--------------------------------------------------------------------------
#psi4
#
memory 32 gb

molecule  {
0 1
  C        1.0263950     0.7136030    -0.2588130
  H        1.1306490     0.7086198    -1.4012076
  H        1.8429100     1.3210490     0.1448880
  C       -0.3601520     1.2292020     0.1446520
  H       -0.6870960     2.0857750    -0.4528770
  H       -0.3315630     1.5598150     1.1889690
  C       -1.3000070     0.0069920     0.0001120
  H       -1.9535870     0.1085250    -0.8716480
  H       -1.9541250    -0.0875590     0.8722560
  C       -0.3733790    -1.2251960    -0.1448730
  H       -0.3482280    -1.5556240    -1.1893400
  H       -0.7095900    -2.0784640     0.4522460
  C        1.0185680    -0.7246730     0.2589190
  H        1.8285570    -1.3409040    -0.1446150
  H        1.1180650    -0.7210110     1.3515470
units angstrom
no_reorient  #important for SAPT in psi4, default
symmetry c1  #important for SAPT in psi4, default
}

set PROPERTIES_ORIGIN ["COM"]
properties('MP2/aug-cc-pvtz', properties = ['dipole'])
--------------------------------------------------------------------------

    Molecular point group: c1
  Charge       = 0
  Multiplicity = 1
  Basis Set: AUG-CC-PVTZ
    Blend: AUG-CC-PVTZ
  Basis Set: (AUG-CC-PVTZ AUX)
    Blend: AUG-CC-PVTZ-JKFIT

    Orbital Energies [Eh]
    ---------------------

    Doubly Occupied:

       1A    -11.218187     2A    -11.212853     3A    -11.212668
       4A    -11.212257     5A    -11.211834     6A     -1.114081
       7A     -0.955553     8A     -0.953313     9A     -0.771683
      10A     -0.765586    11A     -0.647138    12A     -0.643529
      13A     -0.567453    14A     -0.563252    15A     -0.475203
      16A     -0.474199    17A     -0.463848    18A     -0.460092
      19A     -0.455620    20A     -0.447016

  @DF-RHF Final Energy:  -195.22757874813794

   => Energetics <=

    Nuclear Repulsion Energy =            187.6512135107449524
    One-Electron Energy =                -634.1068544934088322
    Two-Electron Energy =                 251.2280622345259644
    Total Energy =                       -195.2275787481379439
  Basis Set: (AUG-CC-PVTZ AUX)
    Blend: AUG-CC-PVTZ-RI
    Molecular point group: c1

    Geometry (in Angstrom), charge = 0, multiplicity = 1:

       Center              X                  Y                   Z               Mass
    ------------   -----------------  -----------------  -----------------  -----------------
         C            1.025359141727     0.713612139275    -0.258096555991    12.000000000000
         H            1.129613141727     0.708628939275    -1.400491155991     1.007825032230
         H            1.841874141727     1.321058139275     0.145604444009     1.007825032230
         C           -0.361187858273     1.229211139275     0.145368444009    12.000000000000
         H           -0.688131858273     2.085784139275    -0.452160555991     1.007825032230
         H           -0.332598858273     1.559824139275     1.189685444009     1.007825032230
         C           -1.301042858273     0.007001139275     0.000828444009    12.000000000000
         H           -1.954622858273     0.108534139275    -0.870931555991     1.007825032230
         H           -1.955160858273    -0.087549860725     0.872972444009     1.007825032230
         C           -0.374414858273    -1.225186860725    -0.144156555991    12.000000000000
         H           -0.349263858273    -1.555614860725    -1.188623555991     1.007825032230
         H           -0.710625858273    -2.078454860725     0.452962444009     1.007825032230
         C            1.017532141727    -0.724663860725     0.259635444009    12.000000000000
         H            1.827521141727    -1.340894860725    -0.143898555991     1.007825032230
         H            1.117029141727    -0.721001860725     1.352263444009     1.007825032230

  Basis Set: AUG-CC-PVTZ
    Blend: AUG-CC-PVTZ
  Basis Set: (AUG-CC-PVTZ AUX)
    Blend: AUG-CC-PVTZ-JKFIT
	 Reference Energy          =    -195.2275787481379439 [Eh]
	 Singles Energy            =      -0.0000000000000000 [Eh]
	 Same-Spin Energy          =      -0.2103601617700549 [Eh]
	 Opposite-Spin Energy      =      -0.7670199864806012 [Eh]
	 Correlation Energy        =      -0.9773801482506561 [Eh]
	 Total Energy              =    -196.2049588963886038 [Eh]

	 ================> DF-SCS-MP2 Energies <==================
	-----------------------------------------------------------
	 SCS Same-Spin Scale       =       0.3333333333333333 [-]
	 SCS Opposite-Spin Scale   =       1.2000000000000000 [-]
	 SCS Same-Spin Energy      =      -0.0701200539233516 [Eh]
	 SCS Opposite-Spin Energy  =      -0.9204239837767214 [Eh]
	 SCS Correlation Energy    =      -0.9905440377000730 [Eh]
	 SCS Total Energy          =    -196.2181227858380055 [Eh]
	-----------------------------------------------------------

  Dipole Moment: [D]
     X:     0.0133      Y:    -0.0046      Z:     0.0400     Total:     0.0424

*** Psi4 exiting successfully. Buy a developer a beer!
