                               Psi4 1.3.2 release

  ==> Input File <==

--------------------------------------------------------------------------
#psi4
#
memory 32 gb

molecule  {
0 1
  C        1.2117420    -0.3525450    -0.2190010
  H        1.3325290    -0.4906140    -1.3002220
  H        2.1759510    -0.5761600     0.2485890
  C        0.7652972     1.0935679     0.0619467
  H        1.1084680     1.8032250    -0.6349350
  H        1.0691420     1.3876900     1.0718560
  C       -0.8306080     0.9948330     0.0623410
  H       -1.2681980     1.6525530    -0.6947150
  H       -1.2400120     1.3098640     1.0275540
  C       -1.1697790    -0.4855090    -0.2024840
  H       -1.3014870    -0.6562650    -1.2775470
  H       -2.0928200    -0.8034510     0.2925940
  C        0.0707210    -1.2425960     0.2759250
  H        0.1244030    -2.2689340    -0.1016700
  H        0.0823430    -1.2895900     1.3722040
units angstrom
no_reorient  #important for SAPT in psi4, default
symmetry c1  #important for SAPT in psi4, default
}

set PROPERTIES_ORIGIN ["COM"]
properties('MP2/aug-cc-pvtz', properties = ['dipole'])
--------------------------------------------------------------------------

    Molecular point group: c1
  Charge       = 0
  Multiplicity = 1
  Basis Set: AUG-CC-PVTZ
    Blend: AUG-CC-PVTZ
  Basis Set: (AUG-CC-PVTZ AUX)
    Blend: AUG-CC-PVTZ-JKFIT

    Orbital Energies [Eh]
    ---------------------

    Doubly Occupied:

       1A    -11.213843     2A    -11.212634     3A    -11.212055
       4A    -11.211640     5A    -11.210824     6A     -1.110193
       7A     -0.957468     8A     -0.950553     9A     -0.774260
      10A     -0.769444    11A     -0.648582    12A     -0.640166
      13A     -0.571256    14A     -0.565893    15A     -0.480216
      16A     -0.471896    17A     -0.462896    18A     -0.458829
      19A     -0.452216    20A     -0.448782

  @DF-RHF Final Energy:  -195.22724498072179

   => Energetics <=

    Nuclear Repulsion Energy =            187.2964309223165742
    One-Electron Energy =                -633.4000594023614212
    Two-Electron Energy =                 250.8763834993230546
    Total Energy =                       -195.2272449807217924
  Basis Set: (AUG-CC-PVTZ AUX)
    Blend: AUG-CC-PVTZ-RI
    Molecular point group: c1

    Geometry (in Angstrom), charge = 0, multiplicity = 1:

       Center              X                  Y                   Z               Mass
    ------------   -----------------  -----------------  -----------------  -----------------
         C            1.203769174718    -0.354854752167    -0.215411718252    12.000000000000
         H            1.324556174718    -0.492923752167    -1.296632718252     1.007825032230
         H            2.167978174718    -0.578469752167     0.252178281748     1.007825032230
         C            0.757324374718     1.091258147833     0.065535981748    12.000000000000
         H            1.100495174718     1.800915247833    -0.631345718252     1.007825032230
         H            1.061169174718     1.385380247833     1.075445281748     1.007825032230
         C           -0.838580825282     0.992523247833     0.065930281748    12.000000000000
         H           -1.276170825282     1.650243247833    -0.691125718252     1.007825032230
         H           -1.247984825282     1.307554247833     1.031143281748     1.007825032230
         C           -1.177751825282    -0.487818752167    -0.198894718252    12.000000000000
         H           -1.309459825282    -0.658574752167    -1.273957718252     1.007825032230
         H           -2.100792825282    -0.805760752167     0.296183281748     1.007825032230
         C            0.062748174718    -1.244905752167     0.279514281748    12.000000000000
         H            0.116430174718    -2.271243752167    -0.098080718252     1.007825032230
         H            0.074370174718    -1.291899752167     1.375793281748     1.007825032230

  Basis Set: AUG-CC-PVTZ
    Blend: AUG-CC-PVTZ
  Basis Set: (AUG-CC-PVTZ AUX)
    Blend: AUG-CC-PVTZ-JKFIT
	 Reference Energy          =    -195.2272449807217924 [Eh]
	 Singles Energy            =      -0.0000000000000000 [Eh]
	 Same-Spin Energy          =      -0.2101881144876849 [Eh]
	 Opposite-Spin Energy      =      -0.7666800335235953 [Eh]
	 Correlation Energy        =      -0.9768681480112802 [Eh]
	 Total Energy              =    -196.2041131287330700 [Eh]

	 ================> DF-SCS-MP2 Energies <==================
	-----------------------------------------------------------
	 SCS Same-Spin Scale       =       0.3333333333333333 [-]
	 SCS Opposite-Spin Scale   =       1.2000000000000000 [-]
	 SCS Same-Spin Energy      =      -0.0700627048292283 [Eh]
	 SCS Opposite-Spin Energy  =      -0.9200160402283143 [Eh]
	 SCS Correlation Energy    =      -0.9900787450575426 [Eh]
	 SCS Total Energy          =    -196.2173237257793232 [Eh]
	-----------------------------------------------------------

  Dipole Moment: [D]
     X:     0.0069      Y:    -0.0197      Z:    -0.0117     Total:     0.0239

*** Psi4 exiting successfully. Buy a developer a beer!
