                               Psi4 1.3.2 release

  ==> Input File <==

--------------------------------------------------------------------------
#psi4
#
memory 32 gb

molecule  {
0 1
  C        1.2117420    -0.3525450    -0.2190010
  H        1.3325290    -0.4906140    -1.3002220
  H        2.1759510    -0.5761600     0.2485890
  C        0.7515126     0.9817280     0.0630077
  H        1.1084680     1.8032250    -0.6349350
  H        1.0691420     1.3876900     1.0718560
  C       -0.8306080     0.9948330     0.0623410
  H       -1.2681980     1.6525530    -0.6947150
  H       -1.2400120     1.3098640     1.0275540
  C       -1.1697790    -0.4855090    -0.2024840
  H       -1.3014870    -0.6562650    -1.2775470
  H       -2.0928200    -0.8034510     0.2925940
  C        0.0707210    -1.2425960     0.2759250
  H        0.1244030    -2.2689340    -0.1016700
  H        0.0823430    -1.2895900     1.3722040
units angstrom
no_reorient  #important for SAPT in psi4, default
symmetry c1  #important for SAPT in psi4, default
}

set PROPERTIES_ORIGIN ["COM"]
properties('MP2/aug-cc-pvtz', properties = ['dipole'])
--------------------------------------------------------------------------

    Molecular point group: c1
  Charge       = 0
  Multiplicity = 1
  Basis Set: AUG-CC-PVTZ
    Blend: AUG-CC-PVTZ
  Basis Set: (AUG-CC-PVTZ AUX)
    Blend: AUG-CC-PVTZ-JKFIT

    Orbital Energies [Eh]
    ---------------------

    Doubly Occupied:

       1A    -11.215895     2A    -11.213489     3A    -11.212774
       4A    -11.211358     5A    -11.207657     6A     -1.124023
       7A     -0.967311     8A     -0.948065     9A     -0.777070
      10A     -0.759890    11A     -0.649530    12A     -0.648008
      13A     -0.569934    14A     -0.561948    15A     -0.497469
      16A     -0.472795    17A     -0.468096    18A     -0.458823
      19A     -0.445430    20A     -0.435313

  @DF-RHF Final Energy:  -195.21851082293972

   => Energetics <=

    Nuclear Repulsion Energy =            188.7913121785016415
    One-Electron Energy =                -636.3298950231122717
    Two-Electron Energy =                 252.3200720216709101
    Total Energy =                       -195.2185108229397201
  Basis Set: (AUG-CC-PVTZ AUX)
    Blend: AUG-CC-PVTZ-RI
    Molecular point group: c1

    Geometry (in Angstrom), charge = 0, multiplicity = 1:

       Center              X                  Y                   Z               Mass
    ------------   -----------------  -----------------  -----------------  -----------------
         C            1.206129610363    -0.335703606215    -0.215593400871    12.000000000000
         H            1.326916610363    -0.473772606215    -1.296814400871     1.007825032230
         H            2.170338610363    -0.559318606215     0.251996599129     1.007825032230
         C            0.745900210363     0.998569393785     0.066415299129    12.000000000000
         H            1.102855610363     1.820066393785    -0.631527400871     1.007825032230
         H            1.063529610363     1.404531393785     1.075263599129     1.007825032230
         C           -0.836220389637     1.011674393785     0.065748599129    12.000000000000
         H           -1.273810389637     1.669394393785    -0.691307400871     1.007825032230
         H           -1.245624389637     1.326705393785     1.030961599129     1.007825032230
         C           -1.175391389637    -0.468667606215    -0.199076400871    12.000000000000
         H           -1.307099389637    -0.639423606215    -1.274139400871     1.007825032230
         H           -2.098432389637    -0.786609606215     0.296001599129     1.007825032230
         C            0.065108610363    -1.225754606215     0.279332599129    12.000000000000
         H            0.118790610363    -2.252092606215    -0.098262400871     1.007825032230
         H            0.076730610363    -1.272748606215     1.375611599129     1.007825032230

  Basis Set: AUG-CC-PVTZ
    Blend: AUG-CC-PVTZ
  Basis Set: (AUG-CC-PVTZ AUX)
    Blend: AUG-CC-PVTZ-JKFIT
	 Reference Energy          =    -195.2185108229397201 [Eh]
	 Singles Energy            =      -0.0000000000000000 [Eh]
	 Same-Spin Energy          =      -0.2111975834267132 [Eh]
	 Opposite-Spin Energy      =      -0.7676978022944557 [Eh]
	 Correlation Energy        =      -0.9788953857211690 [Eh]
	 Total Energy              =    -196.1974062086608797 [Eh]

	 ================> DF-SCS-MP2 Energies <==================
	-----------------------------------------------------------
	 SCS Same-Spin Scale       =       0.3333333333333333 [-]
	 SCS Opposite-Spin Scale   =       1.2000000000000000 [-]
	 SCS Same-Spin Energy      =      -0.0703991944755711 [Eh]
	 SCS Opposite-Spin Energy  =      -0.9212373627533468 [Eh]
	 SCS Correlation Energy    =      -0.9916365572289179 [Eh]
	 SCS Total Energy          =    -196.2101473801686495 [Eh]
	-----------------------------------------------------------

  Dipole Moment: [D]
     X:    -0.0014      Y:    -0.0569      Z:    -0.0035     Total:     0.0570

*** Psi4 exiting successfully. Buy a developer a beer!
