                               Psi4 1.3.2 release

  ==> Input File <==

--------------------------------------------------------------------------
#psi4
#
memory 32 gb

molecule  {
0 1
  C        1.2117420    -0.3525450    -0.2190010
  H        1.3215151    -0.4780242    -1.2016310
  H        2.1759510    -0.5761600     0.2485890
  C        0.7195370     1.0744300     0.0826010
  H        1.1084680     1.8032250    -0.6349350
  H        1.0691420     1.3876900     1.0718560
  C       -0.8306080     0.9948330     0.0623410
  H       -1.2681980     1.6525530    -0.6947150
  H       -1.2400120     1.3098640     1.0275540
  C       -1.1697790    -0.4855090    -0.2024840
  H       -1.3014870    -0.6562650    -1.2775470
  H       -2.0928200    -0.8034510     0.2925940
  C        0.0707210    -1.2425960     0.2759250
  H        0.1244030    -2.2689340    -0.1016700
  H        0.0823430    -1.2895900     1.3722040
units angstrom
no_reorient  #important for SAPT in psi4, default
symmetry c1  #important for SAPT in psi4, default
}

set PROPERTIES_ORIGIN ["COM"]
properties('MP2/aug-cc-pvtz', properties = ['dipole'])
--------------------------------------------------------------------------

    Molecular point group: c1
  Charge       = 0
  Multiplicity = 1
  Basis Set: AUG-CC-PVTZ
    Blend: AUG-CC-PVTZ
  Basis Set: (AUG-CC-PVTZ AUX)
    Blend: AUG-CC-PVTZ-JKFIT

    Orbital Energies [Eh]
    ---------------------

    Doubly Occupied:

       1A    -11.212083     2A    -11.211576     3A    -11.210994
       4A    -11.210723     5A    -11.198857     6A     -1.115767
       7A     -0.960174     8A     -0.954091     9A     -0.783458
      10A     -0.766830    11A     -0.649197    12A     -0.642789
      13A     -0.575020    14A     -0.567419    15A     -0.473703
      16A     -0.473496    17A     -0.464584    18A     -0.462425
      19A     -0.458438    20A     -0.449239

  @DF-RHF Final Energy:  -195.22372986450560

   => Energetics <=

    Nuclear Repulsion Energy =            188.3365030797036752
    One-Electron Energy =                -635.4387402092653474
    Two-Electron Energy =                 251.8785072650560721
    Total Energy =                       -195.2237298645056001
  Basis Set: (AUG-CC-PVTZ AUX)
    Blend: AUG-CC-PVTZ-RI
    Molecular point group: c1

    Geometry (in Angstrom), charge = 0, multiplicity = 1:

       Center              X                  Y                   Z               Mass
    ------------   -----------------  -----------------  -----------------  -----------------
         C            1.211763416606    -0.351758691929    -0.220366380736    12.000000000000
         H            1.321536516606    -0.477237891929    -1.202996380736     1.007825032230
         H            2.175972416606    -0.575373691929     0.247223619264     1.007825032230
         C            0.719558416606     1.075216308071     0.081235619264    12.000000000000
         H            1.108489416606     1.804011308071    -0.636300380736     1.007825032230
         H            1.069163416606     1.388476308071     1.070490619264     1.007825032230
         C           -0.830586583394     0.995619308071     0.060975619264    12.000000000000
         H           -1.268176583394     1.653339308071    -0.696080380736     1.007825032230
         H           -1.239990583394     1.310650308071     1.026188619264     1.007825032230
         C           -1.169757583394    -0.484722691929    -0.203849380736    12.000000000000
         H           -1.301465583394    -0.655478691929    -1.278912380736     1.007825032230
         H           -2.092798583394    -0.802664691929     0.291228619264     1.007825032230
         C            0.070742416606    -1.241809691929     0.274559619264    12.000000000000
         H            0.124424416606    -2.268147691929    -0.103035380736     1.007825032230
         H            0.082364416606    -1.288803691929     1.370838619264     1.007825032230

  Basis Set: AUG-CC-PVTZ
    Blend: AUG-CC-PVTZ
  Basis Set: (AUG-CC-PVTZ AUX)
    Blend: AUG-CC-PVTZ-JKFIT
	 Reference Energy          =    -195.2237298645056001 [Eh]
	 Singles Energy            =      -0.0000000000000000 [Eh]
	 Same-Spin Energy          =      -0.2103869954334951 [Eh]
	 Opposite-Spin Energy      =      -0.7662249764674219 [Eh]
	 Correlation Energy        =      -0.9766119719009171 [Eh]
	 Total Energy              =    -196.2003418364065226 [Eh]

	 ================> DF-SCS-MP2 Energies <==================
	-----------------------------------------------------------
	 SCS Same-Spin Scale       =       0.3333333333333333 [-]
	 SCS Opposite-Spin Scale   =       1.2000000000000000 [-]
	 SCS Same-Spin Energy      =      -0.0701289984778317 [Eh]
	 SCS Opposite-Spin Energy  =      -0.9194699717609063 [Eh]
	 SCS Correlation Energy    =      -0.9895989702387380 [Eh]
	 SCS Total Energy          =    -196.2133288347443454 [Eh]
	-----------------------------------------------------------

  Dipole Moment: [D]
     X:     0.0246      Y:    -0.0376      Z:    -0.0608     Total:     0.0756

*** Psi4 exiting successfully. Buy a developer a beer!
