                               Psi4 1.3.2 release

  ==> Input File <==

--------------------------------------------------------------------------
#psi4
#
memory 32 gb

molecule  {
0 1
  C        1.2117420    -0.3525450    -0.2190010
  H        1.4054670    -0.5096616    -1.2869319
  H        2.1759510    -0.5761600     0.2485890
  C        0.7195370     1.0744300     0.0826010
  H        1.1084680     1.8032250    -0.6349350
  H        1.0691420     1.3876900     1.0718560
  C       -0.8306080     0.9948330     0.0623410
  H       -1.2681980     1.6525530    -0.6947150
  H       -1.2400120     1.3098640     1.0275540
  C       -1.1697790    -0.4855090    -0.2024840
  H       -1.3014870    -0.6562650    -1.2775470
  H       -2.0928200    -0.8034510     0.2925940
  C        0.0707210    -1.2425960     0.2759250
  H        0.1244030    -2.2689340    -0.1016700
  H        0.0823430    -1.2895900     1.3722040
units angstrom
no_reorient  #important for SAPT in psi4, default
symmetry c1  #important for SAPT in psi4, default
}

set PROPERTIES_ORIGIN ["COM"]
properties('MP2/aug-cc-pvtz', properties = ['dipole'])
--------------------------------------------------------------------------

    Molecular point group: c1
  Charge       = 0
  Multiplicity = 1
  Basis Set: AUG-CC-PVTZ
    Blend: AUG-CC-PVTZ
  Basis Set: (AUG-CC-PVTZ AUX)
    Blend: AUG-CC-PVTZ-JKFIT

    Orbital Energies [Eh]
    ---------------------

    Doubly Occupied:

       1A    -11.212758     2A    -11.212451     3A    -11.212163
       4A    -11.211561     5A    -11.211397     6A     -1.113954
       7A     -0.955455     8A     -0.954703     9A     -0.775897
      10A     -0.766424    11A     -0.646252    12A     -0.644077
      13A     -0.567955    14A     -0.564776    15A     -0.475498
      16A     -0.473385    17A     -0.464190    18A     -0.459517
      19A     -0.457590    20A     -0.447993

  @DF-RHF Final Energy:  -195.22906491793248

   => Energetics <=

    Nuclear Repulsion Energy =            187.7709665480433330
    One-Electron Energy =                -634.3440710212831846
    Two-Electron Energy =                 251.3440395553073472
    Total Energy =                       -195.2290649179324760
  Basis Set: (AUG-CC-PVTZ AUX)
    Blend: AUG-CC-PVTZ-RI
    Molecular point group: c1

    Geometry (in Angstrom), charge = 0, multiplicity = 1:

       Center              X                  Y                   Z               Mass
    ------------   -----------------  -----------------  -----------------  -----------------
         C            1.210556068735    -0.351303701064    -0.219139632324    12.000000000000
         H            1.404281068735    -0.508420301064    -1.287070532324     1.007825032230
         H            2.174765068735    -0.574918701064     0.248450367676     1.007825032230
         C            0.718351068735     1.075671298936     0.082462367676    12.000000000000
         H            1.107282068735     1.804466298936    -0.635073632324     1.007825032230
         H            1.067956068735     1.388931298936     1.071717367676     1.007825032230
         C           -0.831793931265     0.996074298936     0.062202367676    12.000000000000
         H           -1.269383931265     1.653794298936    -0.694853632324     1.007825032230
         H           -1.241197931265     1.311105298936     1.027415367676     1.007825032230
         C           -1.170964931265    -0.484267701064    -0.202622632324    12.000000000000
         H           -1.302672931265    -0.655023701064    -1.277685632324     1.007825032230
         H           -2.094005931265    -0.802209701064     0.292455367676     1.007825032230
         C            0.069535068735    -1.241354701064     0.275786367676    12.000000000000
         H            0.123217068735    -2.267692701064    -0.101808632324     1.007825032230
         H            0.081157068735    -1.288348701064     1.372065367676     1.007825032230

  Basis Set: AUG-CC-PVTZ
    Blend: AUG-CC-PVTZ
  Basis Set: (AUG-CC-PVTZ AUX)
    Blend: AUG-CC-PVTZ-JKFIT
	 Reference Energy          =    -195.2290649179324760 [Eh]
	 Singles Energy            =      -0.0000000000000000 [Eh]
	 Same-Spin Energy          =      -0.2103259163279491 [Eh]
	 Opposite-Spin Energy      =      -0.7666037525346000 [Eh]
	 Correlation Energy        =      -0.9769296688625491 [Eh]
	 Total Energy              =    -196.2059945867950148 [Eh]

	 ================> DF-SCS-MP2 Energies <==================
	-----------------------------------------------------------
	 SCS Same-Spin Scale       =       0.3333333333333333 [-]
	 SCS Opposite-Spin Scale   =       1.2000000000000000 [-]
	 SCS Same-Spin Energy      =      -0.0701086387759830 [Eh]
	 SCS Opposite-Spin Energy  =      -0.9199245030415200 [Eh]
	 SCS Correlation Energy    =      -0.9900331418175030 [Eh]
	 SCS Total Energy          =    -196.2190980597499674 [Eh]
	-----------------------------------------------------------

  Dipole Moment: [D]
     X:     0.0190      Y:    -0.0273      Z:    -0.0030     Total:     0.0334

*** Psi4 exiting successfully. Buy a developer a beer!
