                               Psi4 1.3.2 release

  ==> Input File <==

--------------------------------------------------------------------------
#psi4
#
memory 32 gb

molecule  {
0 1
  C        1.2117420    -0.3525450    -0.2190010
  H        1.3325290    -0.4906140    -1.3002220
  H        2.1759510    -0.5761600     0.2485890
  C        0.8116013     1.1109440     0.0409500
  H        1.1084680     1.8032250    -0.6349350
  H        1.0691420     1.3876900     1.0718560
  C       -0.8306080     0.9948330     0.0623410
  H       -1.2681980     1.6525530    -0.6947150
  H       -1.2400120     1.3098640     1.0275540
  C       -1.1697790    -0.4855090    -0.2024840
  H       -1.3014870    -0.6562650    -1.2775470
  H       -2.0928200    -0.8034510     0.2925940
  C        0.0707210    -1.2425960     0.2759250
  H        0.1244030    -2.2689340    -0.1016700
  H        0.0823430    -1.2895900     1.3722040
units angstrom
no_reorient  #important for SAPT in psi4, default
symmetry c1  #important for SAPT in psi4, default
}

set PROPERTIES_ORIGIN ["COM"]
properties('MP2/aug-cc-pvtz', properties = ['dipole'])
--------------------------------------------------------------------------

    Molecular point group: c1
  Charge       = 0
  Multiplicity = 1
  Basis Set: AUG-CC-PVTZ
    Blend: AUG-CC-PVTZ
  Basis Set: (AUG-CC-PVTZ AUX)
    Blend: AUG-CC-PVTZ-JKFIT

    Orbital Energies [Eh]
    ---------------------

    Doubly Occupied:

       1A    -11.215429     2A    -11.213237     3A    -11.212556
       4A    -11.211850     5A    -11.210479     6A     -1.106709
       7A     -0.959835     8A     -0.947079     9A     -0.776098
      10A     -0.771018    11A     -0.650494    12A     -0.637224
      13A     -0.575383    14A     -0.564559    15A     -0.488622
      16A     -0.472014    17A     -0.463460    18A     -0.458353
      19A     -0.453067    20A     -0.434476

  @DF-RHF Final Energy:  -195.21909288698942

   => Energetics <=

    Nuclear Repulsion Energy =            186.7536519902428154
    One-Electron Energy =                -632.3016071458396254
    Two-Electron Energy =                 250.3288622686073950
    Total Energy =                       -195.2190928869894151
  Basis Set: (AUG-CC-PVTZ AUX)
    Blend: AUG-CC-PVTZ-RI
    Molecular point group: c1

    Geometry (in Angstrom), charge = 0, multiplicity = 1:

       Center              X                  Y                   Z               Mass
    ------------   -----------------  -----------------  -----------------  -----------------
         C            1.195840192510    -0.357830186043    -0.211816303144    12.000000000000
         H            1.316627192510    -0.495899186043    -1.293037303144     1.007825032230
         H            2.160049192510    -0.581445186043     0.255773696856     1.007825032230
         C            0.795699492510     1.105658813957     0.048134696856    12.000000000000
         H            1.092566192510     1.797939813957    -0.627750303144     1.007825032230
         H            1.053240192510     1.382404813957     1.079040696856     1.007825032230
         C           -0.846509807490     0.989547813957     0.069525696856    12.000000000000
         H           -1.284099807490     1.647267813957    -0.687530303144     1.007825032230
         H           -1.255913807490     1.304578813957     1.034738696856     1.007825032230
         C           -1.185680807490    -0.490794186043    -0.195299303144    12.000000000000
         H           -1.317388807490    -0.661550186043    -1.270362303144     1.007825032230
         H           -2.108721807490    -0.808736186043     0.299778696856     1.007825032230
         C            0.054819192510    -1.247881186043     0.283109696856    12.000000000000
         H            0.108501192510    -2.274219186043    -0.094485303144     1.007825032230
         H            0.066441192510    -1.294875186043     1.379388696856     1.007825032230

  Basis Set: AUG-CC-PVTZ
    Blend: AUG-CC-PVTZ
  Basis Set: (AUG-CC-PVTZ AUX)
    Blend: AUG-CC-PVTZ-JKFIT
	 Reference Energy          =    -195.2190928869894151 [Eh]
	 Singles Energy            =      -0.0000000000000000 [Eh]
	 Same-Spin Energy          =      -0.2101976893197141 [Eh]
	 Opposite-Spin Energy      =      -0.7670368156104662 [Eh]
	 Correlation Energy        =      -0.9772345049301803 [Eh]
	 Total Energy              =    -196.1963273919195956 [Eh]

	 ================> DF-SCS-MP2 Energies <==================
	-----------------------------------------------------------
	 SCS Same-Spin Scale       =       0.3333333333333333 [-]
	 SCS Opposite-Spin Scale   =       1.2000000000000000 [-]
	 SCS Same-Spin Energy      =      -0.0700658964399047 [Eh]
	 SCS Opposite-Spin Energy  =      -0.9204441787325595 [Eh]
	 SCS Correlation Energy    =      -0.9905100751724641 [Eh]
	 SCS Total Energy          =    -196.2096029621618811 [Eh]
	-----------------------------------------------------------

  Dipole Moment: [D]
     X:     0.0023      Y:    -0.0245      Z:    -0.0221     Total:     0.0331

*** Psi4 exiting successfully. Buy a developer a beer!
