                               Psi4 1.3.2 release

  ==> Input File <==

--------------------------------------------------------------------------
#psi4
#
memory 32 gb

molecule  {
0 1
  C        1.2117420    -0.3525450    -0.2190010
  H        1.4416042    -0.5189039    -1.2783307
  H        2.1759510    -0.5761600     0.2485890
  C        0.7195370     1.0744300     0.0826010
  H        1.1084680     1.8032250    -0.6349350
  H        1.0691420     1.3876900     1.0718560
  C       -0.8306080     0.9948330     0.0623410
  H       -1.2681980     1.6525530    -0.6947150
  H       -1.2400120     1.3098640     1.0275540
  C       -1.1697790    -0.4855090    -0.2024840
  H       -1.3014870    -0.6562650    -1.2775470
  H       -2.0928200    -0.8034510     0.2925940
  C        0.0707210    -1.2425960     0.2759250
  H        0.1244030    -2.2689340    -0.1016700
  H        0.0823430    -1.2895900     1.3722040
units angstrom
no_reorient  #important for SAPT in psi4, default
symmetry c1  #important for SAPT in psi4, default
}

set PROPERTIES_ORIGIN ["COM"]
properties('MP2/aug-cc-pvtz', properties = ['dipole'])
--------------------------------------------------------------------------

    Molecular point group: c1
  Charge       = 0
  Multiplicity = 1
  Basis Set: AUG-CC-PVTZ
    Blend: AUG-CC-PVTZ
  Basis Set: (AUG-CC-PVTZ AUX)
    Blend: AUG-CC-PVTZ-JKFIT

    Orbital Energies [Eh]
    ---------------------

    Doubly Occupied:

       1A    -11.212913     2A    -11.212627     3A    -11.212188
       4A    -11.211558     5A    -11.211343     6A     -1.113764
       7A     -0.955538     8A     -0.954732     9A     -0.776417
      10A     -0.766675    11A     -0.645961    12A     -0.644273
      13A     -0.567912    14A     -0.563831    15A     -0.476388
      16A     -0.473340    17A     -0.464568    18A     -0.459571
      19A     -0.456331    20A     -0.447821

  @DF-RHF Final Energy:  -195.22834744055572

   => Energetics <=

    Nuclear Repulsion Energy =            187.7285859765551663
    One-Electron Energy =                -634.2583625998242951
    Two-Electron Energy =                 251.3014291827134059
    Total Energy =                       -195.2283474405557229
  Basis Set: (AUG-CC-PVTZ AUX)
    Blend: AUG-CC-PVTZ-RI
    Molecular point group: c1

    Geometry (in Angstrom), charge = 0, multiplicity = 1:

       Center              X                  Y                   Z               Mass
    ------------   -----------------  -----------------  -----------------  -----------------
         C            1.210036364339    -0.351170783629    -0.219263329828    12.000000000000
         H            1.439898564339    -0.517529683629    -1.278593029828     1.007825032230
         H            2.174245364339    -0.574785783629     0.248326670172     1.007825032230
         C            0.717831364339     1.075804216371     0.082338670172    12.000000000000
         H            1.106762364339     1.804599216371    -0.635197329828     1.007825032230
         H            1.067436364339     1.389064216371     1.071593670172     1.007825032230
         C           -0.832313635661     0.996207216371     0.062078670172    12.000000000000
         H           -1.269903635661     1.653927216371    -0.694977329828     1.007825032230
         H           -1.241717635661     1.311238216371     1.027291670172     1.007825032230
         C           -1.171484635661    -0.484134783629    -0.202746329828    12.000000000000
         H           -1.303192635661    -0.654890783629    -1.277809329828     1.007825032230
         H           -2.094525635661    -0.802076783629     0.292331670172     1.007825032230
         C            0.069015364339    -1.241221783629     0.275662670172    12.000000000000
         H            0.122697364339    -2.267559783629    -0.101932329828     1.007825032230
         H            0.080637364339    -1.288215783629     1.371941670172     1.007825032230

  Basis Set: AUG-CC-PVTZ
    Blend: AUG-CC-PVTZ
  Basis Set: (AUG-CC-PVTZ AUX)
    Blend: AUG-CC-PVTZ-JKFIT
	 Reference Energy          =    -195.2283474405557229 [Eh]
	 Singles Energy            =      -0.0000000000000000 [Eh]
	 Same-Spin Energy          =      -0.2103307035849945 [Eh]
	 Opposite-Spin Energy      =      -0.7665934557318209 [Eh]
	 Correlation Energy        =      -0.9769241593168154 [Eh]
	 Total Energy              =    -196.2052715998725319 [Eh]

	 ================> DF-SCS-MP2 Energies <==================
	-----------------------------------------------------------
	 SCS Same-Spin Scale       =       0.3333333333333333 [-]
	 SCS Opposite-Spin Scale   =       1.2000000000000000 [-]
	 SCS Same-Spin Energy      =      -0.0701102345283315 [Eh]
	 SCS Opposite-Spin Energy  =      -0.9199121468781850 [Eh]
	 SCS Correlation Energy    =      -0.9900223814065165 [Eh]
	 SCS Total Energy          =    -196.2183698219622272 [Eh]
	-----------------------------------------------------------

  Dipole Moment: [D]
     X:     0.0274      Y:    -0.0291      Z:    -0.0040     Total:     0.0401

*** Psi4 exiting successfully. Buy a developer a beer!
