                               Psi4 1.3.2 release

  ==> Input File <==

--------------------------------------------------------------------------
#psi4
#
memory 32 gb

molecule  {
0 1
  C        1.2117420    -0.3525450    -0.2190010
  H        1.3325290    -0.4906140    -1.3002220
  H        2.1759510    -0.5761600     0.2485890
  C        0.5860738     1.0066887     0.1422609
  H        1.1084680     1.8032250    -0.6349350
  H        1.0691420     1.3876900     1.0718560
  C       -0.8306080     0.9948330     0.0623410
  H       -1.2681980     1.6525530    -0.6947150
  H       -1.2400120     1.3098640     1.0275540
  C       -1.1697790    -0.4855090    -0.2024840
  H       -1.3014870    -0.6562650    -1.2775470
  H       -2.0928200    -0.8034510     0.2925940
  C        0.0707210    -1.2425960     0.2759250
  H        0.1244030    -2.2689340    -0.1016700
  H        0.0823430    -1.2895900     1.3722040
units angstrom
no_reorient  #important for SAPT in psi4, default
symmetry c1  #important for SAPT in psi4, default
}

set PROPERTIES_ORIGIN ["COM"]
properties('MP2/aug-cc-pvtz', properties = ['dipole'])
--------------------------------------------------------------------------

    Molecular point group: c1
  Charge       = 0
  Multiplicity = 1
  Basis Set: AUG-CC-PVTZ
    Blend: AUG-CC-PVTZ
  Basis Set: (AUG-CC-PVTZ AUX)
    Blend: AUG-CC-PVTZ-JKFIT

    Orbital Energies [Eh]
    ---------------------

    Doubly Occupied:

       1A    -11.220236     2A    -11.213272     3A    -11.213174
       4A    -11.211394     5A    -11.207029     6A     -1.132356
       7A     -0.971350     8A     -0.949896     9A     -0.780239
      10A     -0.755306    11A     -0.657160    12A     -0.645807
      13A     -0.575550    14A     -0.555685    15A     -0.511704
      16A     -0.473363    17A     -0.471206    18A     -0.461471
      19A     -0.443012    20A     -0.415488

  @DF-RHF Final Energy:  -195.20104893814511

   => Energetics <=

    Nuclear Repulsion Energy =            189.7033227803167392
    One-Electron Energy =                -638.0793523448519409
    Two-Electron Energy =                 253.1749806263900950
    Total Energy =                       -195.2010489381451066
  Basis Set: (AUG-CC-PVTZ AUX)
    Blend: AUG-CC-PVTZ-RI
    Molecular point group: c1

    Geometry (in Angstrom), charge = 0, multiplicity = 1:

       Center              X                  Y                   Z               Mass
    ------------   -----------------  -----------------  -----------------  -----------------
         C            1.234458879300    -0.339977805394    -0.229164493123    12.000000000000
         H            1.355245879300    -0.478046805394    -1.310385493123     1.007825032230
         H            2.198667879300    -0.563592805394     0.238425506877     1.007825032230
         C            0.608790679300     1.019255894606     0.132097406877    12.000000000000
         H            1.131184879300     1.815792194606    -0.645098493123     1.007825032230
         H            1.091858879300     1.400257194606     1.061692506877     1.007825032230
         C           -0.807891120700     1.007400194606     0.052177506877    12.000000000000
         H           -1.245481120700     1.665120194606    -0.704878493123     1.007825032230
         H           -1.217295120700     1.322431194606     1.017390506877     1.007825032230
         C           -1.147062120700    -0.472941805394    -0.212647493123    12.000000000000
         H           -1.278770120700    -0.643697805394    -1.287710493123     1.007825032230
         H           -2.070103120700    -0.790883805394     0.282430506877     1.007825032230
         C            0.093437879300    -1.230028805394     0.265761506877    12.000000000000
         H            0.147119879300    -2.256366805394    -0.111833493123     1.007825032230
         H            0.105059879300    -1.277022805394     1.362040506877     1.007825032230

  Basis Set: AUG-CC-PVTZ
    Blend: AUG-CC-PVTZ
  Basis Set: (AUG-CC-PVTZ AUX)
    Blend: AUG-CC-PVTZ-JKFIT
	 Reference Energy          =    -195.2010489381451066 [Eh]
	 Singles Energy            =      -0.0000000000000000 [Eh]
	 Same-Spin Energy          =      -0.2120374284167079 [Eh]
	 Opposite-Spin Energy      =      -0.7688981176052663 [Eh]
	 Correlation Energy        =      -0.9809355460219742 [Eh]
	 Total Energy              =    -196.1819844841670886 [Eh]

	 ================> DF-SCS-MP2 Energies <==================
	-----------------------------------------------------------
	 SCS Same-Spin Scale       =       0.3333333333333333 [-]
	 SCS Opposite-Spin Scale   =       1.2000000000000000 [-]
	 SCS Same-Spin Energy      =      -0.0706791428055693 [Eh]
	 SCS Opposite-Spin Energy  =      -0.9226777411263195 [Eh]
	 SCS Correlation Energy    =      -0.9933568839318888 [Eh]
	 SCS Total Energy          =    -196.1944058220769875 [Eh]
	-----------------------------------------------------------

  Dipole Moment: [D]
     X:    -0.0579      Y:    -0.0934      Z:     0.0535     Total:     0.1222

*** Psi4 exiting successfully. Buy a developer a beer!
