                               Psi4 1.3.2 release

  ==> Input File <==

--------------------------------------------------------------------------
#psi4
#
memory 32 gb

molecule  {
0 1
  C        1.2117420    -0.3525450    -0.2190010
  H        1.3325290    -0.4906140    -1.3002220
  H        2.1759510    -0.5761600     0.2485890
  C        0.8583929     1.1265370     0.0196367
  H        1.1084680     1.8032250    -0.6349350
  H        1.0691420     1.3876900     1.0718560
  C       -0.8306080     0.9948330     0.0623410
  H       -1.2681980     1.6525530    -0.6947150
  H       -1.2400120     1.3098640     1.0275540
  C       -1.1697790    -0.4855090    -0.2024840
  H       -1.3014870    -0.6562650    -1.2775470
  H       -2.0928200    -0.8034510     0.2925940
  C        0.0707210    -1.2425960     0.2759250
  H        0.1244030    -2.2689340    -0.1016700
  H        0.0823430    -1.2895900     1.3722040
units angstrom
no_reorient  #important for SAPT in psi4, default
symmetry c1  #important for SAPT in psi4, default
}

set PROPERTIES_ORIGIN ["COM"]
properties('MP2/aug-cc-pvtz', properties = ['dipole'])
--------------------------------------------------------------------------

    Molecular point group: c1
  Charge       = 0
  Multiplicity = 1
  Basis Set: AUG-CC-PVTZ
    Blend: AUG-CC-PVTZ
  Basis Set: (AUG-CC-PVTZ AUX)
    Blend: AUG-CC-PVTZ-JKFIT

    Orbital Energies [Eh]
    ---------------------

    Doubly Occupied:

       1A    -11.216977     2A    -11.214062     3A    -11.213423
       4A    -11.212118     5A    -11.210913     6A     -1.103875
       7A     -0.962398     8A     -0.944293     9A     -0.780603
      10A     -0.770642    11A     -0.652927    12A     -0.634673
      13A     -0.579101    14A     -0.563451    15A     -0.497066
      16A     -0.472581    17A     -0.463314    18A     -0.457890
      19A     -0.453708    20A     -0.419150

  @DF-RHF Final Energy:  -195.20528799928218

   => Energetics <=

    Nuclear Repulsion Energy =            186.2327262283830009
    One-Electron Energy =                -631.2296975459290707
    Two-Electron Energy =                 249.7916833182638925
    Total Energy =                       -195.2052879992821772
  Basis Set: (AUG-CC-PVTZ AUX)
    Blend: AUG-CC-PVTZ-RI
    Molecular point group: c1

    Geometry (in Angstrom), charge = 0, multiplicity = 1:

       Center              X                  Y                   Z               Mass
    ------------   -----------------  -----------------  -----------------  -----------------
         C            1.187827732190    -0.360500286954    -0.208166674353    12.000000000000
         H            1.308614732190    -0.498569286954    -1.289387674353     1.007825032230
         H            2.152036732190    -0.584115286954     0.259423325647     1.007825032230
         C            0.834478632190     1.118581713046     0.030471025647    12.000000000000
         H            1.084553732190     1.795269713046    -0.624100674353     1.007825032230
         H            1.045227732190     1.379734713046     1.082690325647     1.007825032230
         C           -0.854522267810     0.986877713046     0.073175325647    12.000000000000
         H           -1.292112267810     1.644597713046    -0.683880674353     1.007825032230
         H           -1.263926267810     1.301908713046     1.038388325647     1.007825032230
         C           -1.193693267810    -0.493464286954    -0.191649674353    12.000000000000
         H           -1.325401267810    -0.664220286954    -1.266712674353     1.007825032230
         H           -2.116734267810    -0.811406286954     0.303428325647     1.007825032230
         C            0.046806732190    -1.250551286954     0.286759325647    12.000000000000
         H            0.100488732190    -2.276889286954    -0.090835674353     1.007825032230
         H            0.058428732190    -1.297545286954     1.383038325647     1.007825032230

  Basis Set: AUG-CC-PVTZ
    Blend: AUG-CC-PVTZ
  Basis Set: (AUG-CC-PVTZ AUX)
    Blend: AUG-CC-PVTZ-JKFIT
	 Reference Energy          =    -195.2052879992821772 [Eh]
	 Singles Energy            =      -0.0000000000000000 [Eh]
	 Same-Spin Energy          =      -0.2103842690296043 [Eh]
	 Opposite-Spin Energy      =      -0.7677642684802857 [Eh]
	 Correlation Energy        =      -0.9781485375098899 [Eh]
	 Total Energy              =    -196.1834365367920725 [Eh]

	 ================> DF-SCS-MP2 Energies <==================
	-----------------------------------------------------------
	 SCS Same-Spin Scale       =       0.3333333333333333 [-]
	 SCS Opposite-Spin Scale   =       1.2000000000000000 [-]
	 SCS Same-Spin Energy      =      -0.0701280896765348 [Eh]
	 SCS Opposite-Spin Energy  =      -0.9213171221763428 [Eh]
	 SCS Correlation Energy    =      -0.9914452118528775 [Eh]
	 SCS Total Energy          =    -196.1967332111350686 [Eh]
	-----------------------------------------------------------

  Dipole Moment: [D]
     X:    -0.0109      Y:    -0.0384      Z:    -0.0306     Total:     0.0503

*** Psi4 exiting successfully. Buy a developer a beer!
