                               Psi4 1.4a3.dev225

  ==> Input File <==

--------------------------------------------------------------------------
#psi4
#
memory 32 gb

molecule  {
0 1
  C        1.0263950     0.7136030    -0.2588130
  H        1.1242874     0.7089239    -1.3314980
  H        1.8429100     1.3210490     0.1448880
  C       -0.3601520     1.2292020     0.1446520
  H       -0.6870960     2.0857750    -0.4528770
  H       -0.3315630     1.5598150     1.1889690
  C       -1.3000070     0.0069920     0.0001120
  H       -1.9535870     0.1085250    -0.8716480
  H       -1.9541250    -0.0875590     0.8722560
  C       -0.3733790    -1.2251960    -0.1448730
  H       -0.3482280    -1.5556240    -1.1893400
  H       -0.7095900    -2.0784640     0.4522460
  C        1.0185680    -0.7246730     0.2589190
  H        1.8285570    -1.3409040    -0.1446150
  H        1.1180650    -0.7210110     1.3515470
units angstrom
no_reorient  #important for SAPT in psi4, default
symmetry c1  #important for SAPT in psi4, default
}

set PROPERTIES_ORIGIN ["COM"]
properties('MP2/aug-cc-pvtz', properties = ['dipole'])
--------------------------------------------------------------------------

    Molecular point group: c1
  Charge       = 0
  Multiplicity = 1
  Basis Set: AUG-CC-PVTZ
    Blend: AUG-CC-PVTZ
  Basis Set: (AUG-CC-PVTZ AUX)
    Blend: AUG-CC-PVTZ-JKFIT

    Orbital Energies [Eh]
    ---------------------

    Doubly Occupied:

       1A    -11.212412     2A    -11.212016     3A    -11.211665
       4A    -11.211392     5A    -11.209189     6A     -1.114649
       7A     -0.955776     8A     -0.954873     9A     -0.776746
      10A     -0.765907    11A     -0.647854    12A     -0.643137
      13A     -0.569400    14A     -0.566604    15A     -0.474488
      16A     -0.473650    17A     -0.463360    18A     -0.460563
      19A     -0.459105    20A     -0.447723

  @DF-RHF Final Energy:  -195.22962515776624

   => Energetics <=

    Nuclear Repulsion Energy =            187.9570123497223619
    One-Electron Energy =                -634.7122565656346751
    Two-Electron Energy =                 251.5256190581460487
    Total Energy =                       -195.2296251577662360
  Basis Set: (AUG-CC-PVTZ AUX)
    Blend: AUG-CC-PVTZ-RI
    Molecular point group: c1

    Geometry (in Angstrom), charge = 0, multiplicity = 1:

       Center              X                  Y                   Z               Mass
    ------------   -----------------  -----------------  -----------------  -----------------
         C            1.025450630594     0.713607765884    -0.259099079306    12.000000000000
         H            1.123343030594     0.708928665884    -1.331784079306     1.007825032230
         H            1.841965630594     1.321053765884     0.144601920694     1.007825032230
         C           -0.361096369406     1.229206765884     0.144365920694    12.000000000000
         H           -0.688040369406     2.085779765884    -0.453163079306     1.007825032230
         H           -0.332507369406     1.559819765884     1.188682920694     1.007825032230
         C           -1.300951369406     0.006996765884    -0.000174079306    12.000000000000
         H           -1.954531369406     0.108529765884    -0.871934079306     1.007825032230
         H           -1.955069369406    -0.087554234116     0.871969920694     1.007825032230
         C           -0.374323369406    -1.225191234116    -0.145159079306    12.000000000000
         H           -0.349172369406    -1.555619234116    -1.189626079306     1.007825032230
         H           -0.710534369406    -2.078459234116     0.451959920694     1.007825032230
         C            1.017623630594    -0.724668234116     0.258632920694    12.000000000000
         H            1.827612630594    -1.340899234116    -0.144901079306     1.007825032230
         H            1.117120630594    -0.721006234116     1.351260920694     1.007825032230

  Basis Set: AUG-CC-PVTZ
    Blend: AUG-CC-PVTZ
  Basis Set: (AUG-CC-PVTZ AUX)
    Blend: AUG-CC-PVTZ-JKFIT
	 Reference Energy          =    -195.2296251577662360 [Eh]
	 Singles Energy            =      -0.0000000000000000 [Eh]
	 Same-Spin Energy          =      -0.2103681651925082 [Eh]
	 Opposite-Spin Energy      =      -0.7665841046393611 [Eh]
	 Correlation Energy        =      -0.9769522698318693 [Eh]
	 Total Energy              =    -196.2065774275980914 [Eh]

	 ================> DF-SCS-MP2 Energies <==================
	-----------------------------------------------------------
	 SCS Same-Spin Scale       =       0.3333333333333333 [-]
	 SCS Opposite-Spin Scale   =       1.2000000000000000 [-]
	 SCS Same-Spin Energy      =      -0.0701227217308361 [Eh]
	 SCS Opposite-Spin Energy  =      -0.9199009255672332 [Eh]
	 SCS Correlation Energy    =      -0.9900236472980694 [Eh]
	 SCS Total Energy          =    -196.2196488050643097 [Eh]
	-----------------------------------------------------------

  Dipole Moment: [D]
     X:     0.0285      Y:     0.0015      Z:    -0.0146     Total:     0.0321

*** Psi4 exiting successfully. Buy a developer a beer!
