                               Psi4 1.3.2 release

  ==> Input File <==

--------------------------------------------------------------------------
#psi4
#
memory 32 gb

molecule  {
0 1
  C        1.2117420    -0.3525450    -0.2190010
  H        1.3325290    -0.4906140    -1.3002220
  H        2.1759510    -0.5761600     0.2485890
  C        0.6875614     1.1671320     0.1021943
  H        1.1084680     1.8032250    -0.6349350
  H        1.0691420     1.3876900     1.0718560
  C       -0.8306080     0.9948330     0.0623410
  H       -1.2681980     1.6525530    -0.6947150
  H       -1.2400120     1.3098640     1.0275540
  C       -1.1697790    -0.4855090    -0.2024840
  H       -1.3014870    -0.6562650    -1.2775470
  H       -2.0928200    -0.8034510     0.2925940
  C        0.0707210    -1.2425960     0.2759250
  H        0.1244030    -2.2689340    -0.1016700
  H        0.0823430    -1.2895900     1.3722040
units angstrom
no_reorient  #important for SAPT in psi4, default
symmetry c1  #important for SAPT in psi4, default
}

set PROPERTIES_ORIGIN ["COM"]
properties('MP2/aug-cc-pvtz', properties = ['dipole'])
--------------------------------------------------------------------------

    Molecular point group: c1
  Charge       = 0
  Multiplicity = 1
  Basis Set: AUG-CC-PVTZ
    Blend: AUG-CC-PVTZ
  Basis Set: (AUG-CC-PVTZ AUX)
    Blend: AUG-CC-PVTZ-JKFIT

    Orbital Energies [Eh]
    ---------------------

    Doubly Occupied:

       1A    -11.215285     2A    -11.212873     3A    -11.211797
       4A    -11.211470     5A    -11.210697     6A     -1.107958
       7A     -0.961077     8A     -0.946325     9A     -0.775661
      10A     -0.769472    11A     -0.648553    12A     -0.637965
      13A     -0.575816    14A     -0.564293    15A     -0.484224
      16A     -0.472457    17A     -0.465953    18A     -0.462964
      19A     -0.454585    20A     -0.430683

  @DF-RHF Final Energy:  -195.22223538159966

   => Energetics <=

    Nuclear Repulsion Energy =            186.9785892236396023
    One-Electron Energy =                -632.7614349454902367
    Two-Electron Energy =                 250.5606103402510030
    Total Energy =                       -195.2222353815996598
  Basis Set: (AUG-CC-PVTZ AUX)
    Blend: AUG-CC-PVTZ-RI
    Molecular point group: c1

    Geometry (in Angstrom), charge = 0, multiplicity = 1:

       Center              X                  Y                   Z               Mass
    ------------   -----------------  -----------------  -----------------  -----------------
         C            1.217080431716    -0.367451659138    -0.222303602650    12.000000000000
         H            1.337867431716    -0.505520659138    -1.303524602650     1.007825032230
         H            2.181289431716    -0.591066659138     0.245286397350     1.007825032230
         C            0.692899831716     1.152225340862     0.098891697350    12.000000000000
         H            1.113806431716     1.788318340862    -0.638237602650     1.007825032230
         H            1.074480431716     1.372783340862     1.068553397350     1.007825032230
         C           -0.825269568284     0.979926340862     0.059038397350    12.000000000000
         H           -1.262859568284     1.637646340862    -0.698017602650     1.007825032230
         H           -1.234673568284     1.294957340862     1.024251397350     1.007825032230
         C           -1.164440568284    -0.500415659138    -0.205786602650    12.000000000000
         H           -1.296148568284    -0.671171659138    -1.280849602650     1.007825032230
         H           -2.087481568284    -0.818357659138     0.289291397350     1.007825032230
         C            0.076059431716    -1.257502659138     0.272622397350    12.000000000000
         H            0.129741431716    -2.283840659138    -0.104972602650     1.007825032230
         H            0.087681431716    -1.304496659138     1.368901397350     1.007825032230

  Basis Set: AUG-CC-PVTZ
    Blend: AUG-CC-PVTZ
  Basis Set: (AUG-CC-PVTZ AUX)
    Blend: AUG-CC-PVTZ-JKFIT
	 Reference Energy          =    -195.2222353815996598 [Eh]
	 Singles Energy            =      -0.0000000000000000 [Eh]
	 Same-Spin Energy          =      -0.2103185500313861 [Eh]
	 Opposite-Spin Energy      =      -0.7670579367619530 [Eh]
	 Correlation Energy        =      -0.9773764867933390 [Eh]
	 Total Energy              =    -196.1996118683929922 [Eh]

	 ================> DF-SCS-MP2 Energies <==================
	-----------------------------------------------------------
	 SCS Same-Spin Scale       =       0.3333333333333333 [-]
	 SCS Opposite-Spin Scale   =       1.2000000000000000 [-]
	 SCS Same-Spin Energy      =      -0.0701061833437953 [Eh]
	 SCS Opposite-Spin Energy  =      -0.9204695241143436 [Eh]
	 SCS Correlation Energy    =      -0.9905757074581389 [Eh]
	 SCS Total Energy          =    -196.2128110890577943 [Eh]
	-----------------------------------------------------------

  Dipole Moment: [D]
     X:     0.0004      Y:    -0.0244      Z:     0.0014     Total:     0.0244

*** Psi4 exiting successfully. Buy a developer a beer!
