                               Psi4 1.3.2 release

  ==> Input File <==

--------------------------------------------------------------------------
#psi4
#
memory 32 gb

molecule  {
0 1
  C        1.2117420    -0.3525450    -0.2190010
  H        1.3325290    -0.4906140    -1.3002220
  H        2.1759510    -0.5761600     0.2485890
  C        0.6968783     1.0642075     0.0927919
  H        1.1084680     1.8032250    -0.6349350
  H        1.0691420     1.3876900     1.0718560
  C       -0.8306080     0.9948330     0.0623410
  H       -1.2681980     1.6525530    -0.6947150
  H       -1.2400120     1.3098640     1.0275540
  C       -1.1697790    -0.4855090    -0.2024840
  H       -1.3014870    -0.6562650    -1.2775470
  H       -2.0928200    -0.8034510     0.2925940
  C        0.0707210    -1.2425960     0.2759250
  H        0.1244030    -2.2689340    -0.1016700
  H        0.0823430    -1.2895900     1.3722040
units angstrom
no_reorient  #important for SAPT in psi4, default
symmetry c1  #important for SAPT in psi4, default
}

set PROPERTIES_ORIGIN ["COM"]
properties('MP2/aug-cc-pvtz', properties = ['dipole'])
--------------------------------------------------------------------------

    Molecular point group: c1
  Charge       = 0
  Multiplicity = 1
  Basis Set: AUG-CC-PVTZ
    Blend: AUG-CC-PVTZ
  Basis Set: (AUG-CC-PVTZ AUX)
    Blend: AUG-CC-PVTZ-JKFIT

    Orbital Energies [Eh]
    ---------------------

    Doubly Occupied:

       1A    -11.213113     2A    -11.212266     3A    -11.211969
       4A    -11.211358     5A    -11.211090     6A     -1.116818
       7A     -0.957103     8A     -0.954252     9A     -0.775731
      10A     -0.764010    11A     -0.647956    12A     -0.644319
      13A     -0.568825    14A     -0.564553    15A     -0.477938
      16A     -0.473195    17A     -0.467163    18A     -0.459497
      19A     -0.456172    20A     -0.444926

  @DF-RHF Final Energy:  -195.22857484117858

   => Energetics <=

    Nuclear Repulsion Energy =            188.1540611904092373
    One-Electron Energy =                -635.1007597449977311
    Two-Electron Energy =                 251.7181237134098808
    Total Energy =                       -195.2285748411785846
  Basis Set: (AUG-CC-PVTZ AUX)
    Blend: AUG-CC-PVTZ-RI
    Molecular point group: c1

    Geometry (in Angstrom), charge = 0, multiplicity = 1:

       Center              X                  Y                   Z               Mass
    ------------   -----------------  -----------------  -----------------  -----------------
         C            1.215485032295    -0.349827160891    -0.220693562452    12.000000000000
         H            1.336272032295    -0.487896160891    -1.301914562452     1.007825032230
         H            2.179694032295    -0.573442160891     0.246896437548     1.007825032230
         C            0.700621332295     1.066925339109     0.091099337548    12.000000000000
         H            1.112211032295     1.805942839109    -0.636627562452     1.007825032230
         H            1.072885032295     1.390407839109     1.070163437548     1.007825032230
         C           -0.826864967705     0.997550839109     0.060648437548    12.000000000000
         H           -1.264454967705     1.655270839109    -0.696407562452     1.007825032230
         H           -1.236268967705     1.312581839109     1.025861437548     1.007825032230
         C           -1.166035967705    -0.482791160891    -0.204176562452    12.000000000000
         H           -1.297743967705    -0.653547160891    -1.279239562452     1.007825032230
         H           -2.089076967705    -0.800733160891     0.290901437548     1.007825032230
         C            0.074464032295    -1.239878160891     0.274232437548    12.000000000000
         H            0.128146032295    -2.266216160891    -0.103362562452     1.007825032230
         H            0.086086032295    -1.286872160891     1.370511437548     1.007825032230

  Basis Set: AUG-CC-PVTZ
    Blend: AUG-CC-PVTZ
  Basis Set: (AUG-CC-PVTZ AUX)
    Blend: AUG-CC-PVTZ-JKFIT
	 Reference Energy          =    -195.2285748411785846 [Eh]
	 Singles Energy            =      -0.0000000000000000 [Eh]
	 Same-Spin Energy          =      -0.2105188371337111 [Eh]
	 Opposite-Spin Energy      =      -0.7668287623339456 [Eh]
	 Correlation Energy        =      -0.9773475994676566 [Eh]
	 Total Energy              =    -196.2059224406462477 [Eh]

	 ================> DF-SCS-MP2 Energies <==================
	-----------------------------------------------------------
	 SCS Same-Spin Scale       =       0.3333333333333333 [-]
	 SCS Opposite-Spin Scale   =       1.2000000000000000 [-]
	 SCS Same-Spin Energy      =      -0.0701729457112370 [Eh]
	 SCS Opposite-Spin Energy  =      -0.9201945148007347 [Eh]
	 SCS Correlation Energy    =      -0.9903674605119717 [Eh]
	 SCS Total Energy          =    -196.2189423016905607 [Eh]
	-----------------------------------------------------------

  Dipole Moment: [D]
     X:    -0.0012      Y:    -0.0297      Z:     0.0083     Total:     0.0309

*** Psi4 exiting successfully. Buy a developer a beer!
