                               Psi4 1.4a3.dev225

  ==> Input File <==

--------------------------------------------------------------------------
#psi4
#
memory 32 gb

molecule  {
0 1
  C        1.0263950     0.7136030    -0.2588130
  H        1.1261050     0.7088370    -1.3514150
  H        1.8429100     1.3210490     0.1448880
  C       -0.3782373     1.2359272     0.1499146
  H       -0.6870960     2.0857750    -0.4528770
  H       -0.3315630     1.5598150     1.1889690
  C       -1.3000070     0.0069920     0.0001120
  H       -1.9535870     0.1085250    -0.8716480
  H       -1.9541250    -0.0875590     0.8722560
  C       -0.3733790    -1.2251960    -0.1448730
  H       -0.3482280    -1.5556240    -1.1893400
  H       -0.7095900    -2.0784640     0.4522460
  C        1.0185680    -0.7246730     0.2589190
  H        1.8285570    -1.3409040    -0.1446150
  H        1.1180650    -0.7210110     1.3515470
units angstrom
no_reorient  #important for SAPT in psi4, default
symmetry c1  #important for SAPT in psi4, default
}

set PROPERTIES_ORIGIN ["COM"]
properties('MP2/aug-cc-pvtz', properties = ['dipole'])
--------------------------------------------------------------------------

    Molecular point group: c1
  Charge       = 0
  Multiplicity = 1
  Basis Set: AUG-CC-PVTZ
    Blend: AUG-CC-PVTZ
  Basis Set: (AUG-CC-PVTZ AUX)
    Blend: AUG-CC-PVTZ-JKFIT

    Orbital Energies [Eh]
    ---------------------

    Doubly Occupied:

       1A    -11.212755     2A    -11.212422     3A    -11.212013
       4A    -11.211484     5A    -11.211344     6A     -1.112854
       7A     -0.956208     8A     -0.953095     9A     -0.775315
      10A     -0.766439    11A     -0.647689    12A     -0.642168
      13A     -0.568746    14A     -0.566497    15A     -0.475429
      16A     -0.472811    17A     -0.465007    18A     -0.460092
      19A     -0.456102    20A     -0.447752

  @DF-RHF Final Energy:  -195.22939537749249

   => Energetics <=

    Nuclear Repulsion Energy =            187.6850284447115769
    One-Electron Energy =                -634.1764006565365435
    Two-Electron Energy =                 251.2619768343324722
    Total Energy =                       -195.2293953774924944
  Basis Set: (AUG-CC-PVTZ AUX)
    Blend: AUG-CC-PVTZ-RI
    Molecular point group: c1

    Geometry (in Angstrom), charge = 0, multiplicity = 1:

       Center              X                  Y                   Z               Mass
    ------------   -----------------  -----------------  -----------------  -----------------
         C            1.028521366182     0.712457411535    -0.259713797120    12.000000000000
         H            1.128231366182     0.707691411535    -1.352315797120     1.007825032230
         H            1.845036366182     1.319903411535     0.143987202880     1.007825032230
         C           -0.376110933818     1.234781611535     0.149013802880    12.000000000000
         H           -0.684969633818     2.084629411535    -0.453777797120     1.007825032230
         H           -0.329436633818     1.558669411535     1.188068202880     1.007825032230
         C           -1.297880633818     0.005846411535    -0.000788797120    12.000000000000
         H           -1.951460633818     0.107379411535    -0.872548797120     1.007825032230
         H           -1.951998633818    -0.088704588465     0.871355202880     1.007825032230
         C           -0.371252633818    -1.226341588465    -0.145773797120    12.000000000000
         H           -0.346101633818    -1.556769588465    -1.190240797120     1.007825032230
         H           -0.707463633818    -2.079609588465     0.451345202880     1.007825032230
         C            1.020694366182    -0.725818588465     0.258018202880    12.000000000000
         H            1.830683366182    -1.342049588465    -0.145515797120     1.007825032230
         H            1.120191366182    -0.722156588465     1.350646202880     1.007825032230

  Basis Set: AUG-CC-PVTZ
    Blend: AUG-CC-PVTZ
  Basis Set: (AUG-CC-PVTZ AUX)
    Blend: AUG-CC-PVTZ-JKFIT
	 Reference Energy          =    -195.2293953774924944 [Eh]
	 Singles Energy            =      -0.0000000000000000 [Eh]
	 Same-Spin Energy          =      -0.2102947327326945 [Eh]
	 Opposite-Spin Energy      =      -0.7666659114678619 [Eh]
	 Correlation Energy        =      -0.9769606442005564 [Eh]
	 Total Energy              =    -196.2063560216930398 [Eh]

	 ================> DF-SCS-MP2 Energies <==================
	-----------------------------------------------------------
	 SCS Same-Spin Scale       =       0.3333333333333333 [-]
	 SCS Opposite-Spin Scale   =       1.2000000000000000 [-]
	 SCS Same-Spin Energy      =      -0.0700982442442315 [Eh]
	 SCS Opposite-Spin Energy  =      -0.9199990937614342 [Eh]
	 SCS Correlation Energy    =      -0.9900973380056657 [Eh]
	 SCS Total Energy          =    -196.2194927154981485 [Eh]
	-----------------------------------------------------------

  Dipole Moment: [D]
     X:     0.0223      Y:     0.0016      Z:     0.0003     Total:     0.0224

*** Psi4 exiting successfully. Buy a developer a beer!
