                               Psi4 1.3.2 release

  ==> Input File <==

--------------------------------------------------------------------------
#psi4
#
memory 32 gb

molecule  {
0 1
  C        1.2117420    -0.3525450    -0.2190010
  H        1.3325290    -0.4906140    -1.3002220
  H        2.1759510    -0.5761600     0.2485890
  C        0.7195370     1.0744300     0.0826010
  H        1.1084680     1.8032250    -0.6349350
  H        1.0691420     1.3876900     1.0718560
  C       -0.8306080     0.9948330     0.0623410
  H       -1.2681980     1.6525530    -0.6947150
  H       -1.2400120     1.3098640     1.0275540
  C       -1.1697790    -0.4855090    -0.2024840
  H       -1.3014870    -0.6562650    -1.2775470
  H       -2.0928200    -0.8034510     0.2925940
  C        0.0707210    -1.2425960     0.2759250
  H        0.1244030    -2.2689340    -0.1016700
  H        0.0823430    -1.2895900     1.3722040
units angstrom
no_reorient  #important for SAPT in psi4, default
symmetry c1  #important for SAPT in psi4, default
}

set PROPERTIES_ORIGIN ["COM"]
properties('MP2/aug-cc-pvtz', properties = ['dipole'])
--------------------------------------------------------------------------

    Molecular point group: c1
  Charge       = 0
  Multiplicity = 1
  Basis Set: AUG-CC-PVTZ
    Blend: AUG-CC-PVTZ
  Basis Set: (AUG-CC-PVTZ AUX)
    Blend: AUG-CC-PVTZ-JKFIT

    Orbital Energies [Eh]
    ---------------------

    Doubly Occupied:

       1A    -11.212568     2A    -11.212167     3A    -11.212155
       4A    -11.211565     5A    -11.211388     6A     -1.114408
       7A     -0.955353     8A     -0.954668     9A     -0.775052
      10A     -0.765872    11A     -0.647641    12A     -0.643191
      13A     -0.568139    14A     -0.566378    15A     -0.474571
      16A     -0.473777    17A     -0.463497    18A     -0.459422
      19A     -0.459059    20A     -0.447668

  @DF-RHF Final Energy:  -195.22960030944151

   => Energetics <=

    Nuclear Repulsion Energy =            187.8622545276684264
    One-Electron Energy =                -634.5266312771369712
    Two-Electron Energy =                 251.4347764400270364
    Total Energy =                       -195.2296003094415084
  Basis Set: (AUG-CC-PVTZ AUX)
    Blend: AUG-CC-PVTZ-RI
    Molecular point group: c1

    Geometry (in Angstrom), charge = 0, multiplicity = 1:

       Center              X                  Y                   Z               Mass
    ------------   -----------------  -----------------  -----------------  -----------------
         C            1.211605021040    -0.351577632677    -0.218948501760    12.000000000000
         H            1.332392021040    -0.489646632677    -1.300169501760     1.007825032230
         H            2.175814021040    -0.575192632677     0.248641498240     1.007825032230
         C            0.719400021040     1.075397367323     0.082653498240    12.000000000000
         H            1.108331021040     1.804192367323    -0.634882501760     1.007825032230
         H            1.069005021040     1.388657367323     1.071908498240     1.007825032230
         C           -0.830744978960     0.995800367323     0.062393498240    12.000000000000
         H           -1.268334978960     1.653520367323    -0.694662501760     1.007825032230
         H           -1.240148978960     1.310831367323     1.027606498240     1.007825032230
         C           -1.169915978960    -0.484541632677    -0.202431501760    12.000000000000
         H           -1.301623978960    -0.655297632677    -1.277494501760     1.007825032230
         H           -2.092956978960    -0.802483632677     0.292646498240     1.007825032230
         C            0.070584021040    -1.241628632677     0.275977498240    12.000000000000
         H            0.124266021040    -2.267966632677    -0.101617501760     1.007825032230
         H            0.082206021040    -1.288622632677     1.372256498240     1.007825032230

  Basis Set: AUG-CC-PVTZ
    Blend: AUG-CC-PVTZ
  Basis Set: (AUG-CC-PVTZ AUX)
    Blend: AUG-CC-PVTZ-JKFIT
	 Reference Energy          =    -195.2296003094415084 [Eh]
	 Singles Energy            =      -0.0000000000000000 [Eh]
	 Same-Spin Energy          =      -0.2103616141014583 [Eh]
	 Opposite-Spin Energy      =      -0.7666883446220166 [Eh]
	 Correlation Energy        =      -0.9770499587234749 [Eh]
	 Total Energy              =    -196.2066502681649922 [Eh]

	 ================> DF-SCS-MP2 Energies <==================
	-----------------------------------------------------------
	 SCS Same-Spin Scale       =       0.3333333333333333 [-]
	 SCS Opposite-Spin Scale   =       1.2000000000000000 [-]
	 SCS Same-Spin Energy      =      -0.0701205380338194 [Eh]
	 SCS Opposite-Spin Energy  =      -0.9200260135464199 [Eh]
	 SCS Correlation Energy    =      -0.9901465515802393 [Eh]
	 SCS Total Energy          =    -196.2197468610217470 [Eh]
	-----------------------------------------------------------

  Dipole Moment: [D]
     X:     0.0035      Y:    -0.0241      Z:     0.0011     Total:     0.0244

*** Psi4 exiting successfully. Buy a developer a beer!
