                               Psi4 1.4a3.dev225

  ==> Input File <==

--------------------------------------------------------------------------
#psi4
#
memory 32 gb

molecule  {
0 1
  C        1.0263950     0.7136030    -0.2588130
  H        1.1261050     0.7088370    -1.3514150
  H        1.8429100     1.3210490     0.1448880
  C       -0.4053652     1.2460149     0.1578084
  H       -0.6870960     2.0857750    -0.4528770
  H       -0.3315630     1.5598150     1.1889690
  C       -1.3000070     0.0069920     0.0001120
  H       -1.9535870     0.1085250    -0.8716480
  H       -1.9541250    -0.0875590     0.8722560
  C       -0.3733790    -1.2251960    -0.1448730
  H       -0.3482280    -1.5556240    -1.1893400
  H       -0.7095900    -2.0784640     0.4522460
  C        1.0185680    -0.7246730     0.2589190
  H        1.8285570    -1.3409040    -0.1446150
  H        1.1180650    -0.7210110     1.3515470
units angstrom
no_reorient  #important for SAPT in psi4, default
symmetry c1  #important for SAPT in psi4, default
}

set PROPERTIES_ORIGIN ["COM"]
properties('MP2/aug-cc-pvtz', properties = ['dipole'])
--------------------------------------------------------------------------

    Molecular point group: c1
  Charge       = 0
  Multiplicity = 1
  Basis Set: AUG-CC-PVTZ
    Blend: AUG-CC-PVTZ
  Basis Set: (AUG-CC-PVTZ AUX)
    Blend: AUG-CC-PVTZ-JKFIT

    Orbital Energies [Eh]
    ---------------------

    Doubly Occupied:

       1A    -11.213666     2A    -11.212604     3A    -11.211871
       4A    -11.211489     5A    -11.210941     6A     -1.110692
       7A     -0.958090     8A     -0.950305     9A     -0.775949
      10A     -0.767013    11A     -0.647970    12A     -0.640550
      13A     -0.570564    14A     -0.566088    15A     -0.478470
      16A     -0.471959    17A     -0.466500    18A     -0.461724
      19A     -0.452901    20A     -0.443787

  @DF-RHF Final Energy:  -195.22779539817947

   => Energetics <=

    Nuclear Repulsion Energy =            187.4146715973843698
    One-Electron Energy =                -633.6386687752307125
    Two-Electron Energy =                 250.9962017796668761
    Total Energy =                       -195.2277953981794667
  Basis Set: (AUG-CC-PVTZ AUX)
    Blend: AUG-CC-PVTZ-RI
    Molecular point group: c1

    Geometry (in Angstrom), charge = 0, multiplicity = 1:

       Center              X                  Y                   Z               Mass
    ------------   -----------------  -----------------  -----------------  -----------------
         C            1.033166670517     0.710730022517    -0.261065508950    12.000000000000
         H            1.132876670517     0.705964022517    -1.353667508950     1.007825032230
         H            1.849681670517     1.318176022517     0.142635491050     1.007825032230
         C           -0.398593529483     1.243141922517     0.155555891050    12.000000000000
         H           -0.680324329483     2.082902022517    -0.455129508950     1.007825032230
         H           -0.324791329483     1.556942022517     1.186716491050     1.007825032230
         C           -1.293235329483     0.004119022517    -0.002140508950    12.000000000000
         H           -1.946815329483     0.105652022517    -0.873900508950     1.007825032230
         H           -1.947353329483    -0.090431977483     0.870003491050     1.007825032230
         C           -0.366607329483    -1.228068977483    -0.147125508950    12.000000000000
         H           -0.341456329483    -1.558496977483    -1.191592508950     1.007825032230
         H           -0.702818329483    -2.081336977483     0.449993491050     1.007825032230
         C            1.025339670517    -0.727545977483     0.256666491050    12.000000000000
         H            1.835328670517    -1.343776977483    -0.146867508950     1.007825032230
         H            1.124836670517    -0.723883977483     1.349294491050     1.007825032230

  Basis Set: AUG-CC-PVTZ
    Blend: AUG-CC-PVTZ
  Basis Set: (AUG-CC-PVTZ AUX)
    Blend: AUG-CC-PVTZ-JKFIT
	 Reference Energy          =    -195.2277953981794667 [Eh]
	 Singles Energy            =      -0.0000000000000000 [Eh]
	 Same-Spin Energy          =      -0.2102458236643963 [Eh]
	 Opposite-Spin Energy      =      -0.7667208198264820 [Eh]
	 Correlation Energy        =      -0.9769666434908783 [Eh]
	 Total Energy              =    -196.2047620416703353 [Eh]

	 ================> DF-SCS-MP2 Energies <==================
	-----------------------------------------------------------
	 SCS Same-Spin Scale       =       0.3333333333333333 [-]
	 SCS Opposite-Spin Scale   =       1.2000000000000000 [-]
	 SCS Same-Spin Energy      =      -0.0700819412214654 [Eh]
	 SCS Opposite-Spin Energy  =      -0.9200649837917784 [Eh]
	 SCS Correlation Energy    =      -0.9901469250132438 [Eh]
	 SCS Total Energy          =    -196.2179423231927160 [Eh]
	-----------------------------------------------------------

  Dipole Moment: [D]
     X:     0.0206      Y:     0.0021      Z:     0.0004     Total:     0.0207

*** Psi4 exiting successfully. Buy a developer a beer!
