                               Psi4 1.3.2 release

  ==> Input File <==

--------------------------------------------------------------------------
#psi4
#
memory 32 gb

molecule  {
0 1
  C        1.2117420    -0.3525450    -0.2190010
  H        1.3325290    -0.4906140    -1.3002220
  H        2.1759510    -0.5761600     0.2485890
  C        0.7423456     1.0842178     0.0723182
  H        1.1084680     1.8032250    -0.6349350
  H        1.0691420     1.3876900     1.0718560
  C       -0.8306080     0.9948330     0.0623410
  H       -1.2681980     1.6525530    -0.6947150
  H       -1.2400120     1.3098640     1.0275540
  C       -1.1697790    -0.4855090    -0.2024840
  H       -1.3014870    -0.6562650    -1.2775470
  H       -2.0928200    -0.8034510     0.2925940
  C        0.0707210    -1.2425960     0.2759250
  H        0.1244030    -2.2689340    -0.1016700
  H        0.0823430    -1.2895900     1.3722040
units angstrom
no_reorient  #important for SAPT in psi4, default
symmetry c1  #important for SAPT in psi4, default
}

set PROPERTIES_ORIGIN ["COM"]
properties('MP2/aug-cc-pvtz', properties = ['dipole'])
--------------------------------------------------------------------------

    Molecular point group: c1
  Charge       = 0
  Multiplicity = 1
  Basis Set: AUG-CC-PVTZ
    Blend: AUG-CC-PVTZ
  Basis Set: (AUG-CC-PVTZ AUX)
    Blend: AUG-CC-PVTZ-JKFIT

    Orbital Energies [Eh]
    ---------------------

    Doubly Occupied:

       1A    -11.213067     2A    -11.212418     3A    -11.211989
       4A    -11.211542     5A    -11.211227     6A     -1.112204
       7A     -0.956360     8A     -0.952549     9A     -0.774515
      10A     -0.767726    11A     -0.647940    12A     -0.641716
      13A     -0.569220    14A     -0.566570    15A     -0.476797
      16A     -0.472326    17A     -0.461658    18A     -0.459232
      19A     -0.457182    20A     -0.449441

  @DF-RHF Final Energy:  -195.22915363017759

   => Energetics <=

    Nuclear Repulsion Energy =            187.5764047558760694
    One-Electron Energy =                -633.9597588489701820
    Two-Electron Energy =                 251.1542004629165206
    Total Energy =                       -195.2291536301775920
  Basis Set: (AUG-CC-PVTZ AUX)
    Blend: AUG-CC-PVTZ-RI
    Molecular point group: c1

    Geometry (in Angstrom), charge = 0, multiplicity = 1:

       Center              X                  Y                   Z               Mass
    ------------   -----------------  -----------------  -----------------  -----------------
         C            1.207699341335    -0.353253667673    -0.217187704374    12.000000000000
         H            1.328486341335    -0.491322667673    -1.298408704374     1.007825032230
         H            2.171908341335    -0.576868667673     0.250402295626     1.007825032230
         C            0.738302941335     1.083509132327     0.074131495626    12.000000000000
         H            1.104425341335     1.802516332327    -0.633121704374     1.007825032230
         H            1.065099341335     1.386981332327     1.073669295626     1.007825032230
         C           -0.834650658665     0.994124332327     0.064154295626    12.000000000000
         H           -1.272240658665     1.651844332327    -0.692901704374     1.007825032230
         H           -1.244054658665     1.309155332327     1.029367295626     1.007825032230
         C           -1.173821658665    -0.486217667673    -0.200670704374    12.000000000000
         H           -1.305529658665    -0.656973667673    -1.275733704374     1.007825032230
         H           -2.096862658665    -0.804159667673     0.294407295626     1.007825032230
         C            0.066678341335    -1.243304667673     0.277738295626    12.000000000000
         H            0.120360341335    -2.269642667673    -0.099856704374     1.007825032230
         H            0.078300341335    -1.290298667673     1.374017295626     1.007825032230

  Basis Set: AUG-CC-PVTZ
    Blend: AUG-CC-PVTZ
  Basis Set: (AUG-CC-PVTZ AUX)
    Blend: AUG-CC-PVTZ-JKFIT
	 Reference Energy          =    -195.2291536301775920 [Eh]
	 Singles Energy            =      -0.0000000000000000 [Eh]
	 Same-Spin Energy          =      -0.2102516122473423 [Eh]
	 Opposite-Spin Energy      =      -0.7666387484430817 [Eh]
	 Correlation Energy        =      -0.9768903606904240 [Eh]
	 Total Energy              =    -196.2060439908680110 [Eh]

	 ================> DF-SCS-MP2 Energies <==================
	-----------------------------------------------------------
	 SCS Same-Spin Scale       =       0.3333333333333333 [-]
	 SCS Opposite-Spin Scale   =       1.2000000000000000 [-]
	 SCS Same-Spin Energy      =      -0.0700838707491141 [Eh]
	 SCS Opposite-Spin Energy  =      -0.9199664981316980 [Eh]
	 SCS Correlation Energy    =      -0.9900503688808120 [Eh]
	 SCS Total Energy          =    -196.2192039990584078 [Eh]
	-----------------------------------------------------------

  Dipole Moment: [D]
     X:     0.0062      Y:    -0.0208      Z:    -0.0056     Total:     0.0224

*** Psi4 exiting successfully. Buy a developer a beer!
