                               Psi4 1.3.2 release

  ==> Input File <==

--------------------------------------------------------------------------
#psi4
#
memory 32 gb

molecule  {
0 1
  C        1.2117420    -0.3525450    -0.2190010
  H        1.3690939    -0.5002277    -1.2942320
  H        2.1759510    -0.5761600     0.2485890
  C        0.7195370     1.0744300     0.0826010
  H        1.1084680     1.8032250    -0.6349350
  H        1.0691420     1.3876900     1.0718560
  C       -0.8306080     0.9948330     0.0623410
  H       -1.2681980     1.6525530    -0.6947150
  H       -1.2400120     1.3098640     1.0275540
  C       -1.1697790    -0.4855090    -0.2024840
  H       -1.3014870    -0.6562650    -1.2775470
  H       -2.0928200    -0.8034510     0.2925940
  C        0.0707210    -1.2425960     0.2759250
  H        0.1244030    -2.2689340    -0.1016700
  H        0.0823430    -1.2895900     1.3722040
units angstrom
no_reorient  #important for SAPT in psi4, default
symmetry c1  #important for SAPT in psi4, default
}

set PROPERTIES_ORIGIN ["COM"]
properties('MP2/aug-cc-pvtz', properties = ['dipole'])
--------------------------------------------------------------------------

    Molecular point group: c1
  Charge       = 0
  Multiplicity = 1
  Basis Set: AUG-CC-PVTZ
    Blend: AUG-CC-PVTZ
  Basis Set: (AUG-CC-PVTZ AUX)
    Blend: AUG-CC-PVTZ-JKFIT

    Orbital Energies [Eh]
    ---------------------

    Doubly Occupied:

       1A    -11.212641     2A    -11.212294     3A    -11.212150
       4A    -11.211568     5A    -11.211414     6A     -1.114168
       7A     -0.955393     8A     -0.954682     9A     -0.775443
      10A     -0.766156    11A     -0.646866    12A     -0.643661
      13A     -0.568022    14A     -0.565635    15A     -0.474878
      16A     -0.473537    17A     -0.463788    18A     -0.459441
      19A     -0.458590    20A     -0.447930

  @DF-RHF Final Energy:  -195.22948287850363

   => Energetics <=

    Nuclear Repulsion Energy =            187.8155124293971596
    One-Electron Energy =                -634.4334801713065417
    Two-Electron Energy =                 251.3884848634057789
    Total Energy =                       -195.2294828785036316
  Basis Set: (AUG-CC-PVTZ AUX)
    Blend: AUG-CC-PVTZ-RI
    Molecular point group: c1

    Geometry (in Angstrom), charge = 0, multiplicity = 1:

       Center              X                  Y                   Z               Mass
    ------------   -----------------  -----------------  -----------------  -----------------
         C            1.211079165709    -0.351439373980    -0.219034646490    12.000000000000
         H            1.368431065709    -0.499122073980    -1.294265646490     1.007825032230
         H            2.175288165709    -0.575054373980     0.248555353510     1.007825032230
         C            0.718874165709     1.075535626020     0.082567353510    12.000000000000
         H            1.107805165709     1.804330626020    -0.634968646490     1.007825032230
         H            1.068479165709     1.388795626020     1.071822353510     1.007825032230
         C           -0.831270834291     0.995938626020     0.062307353510    12.000000000000
         H           -1.268860834291     1.653658626020    -0.694748646490     1.007825032230
         H           -1.240674834291     1.310969626020     1.027520353510     1.007825032230
         C           -1.170441834291    -0.484403373980    -0.202517646490    12.000000000000
         H           -1.302149834291    -0.655159373980    -1.277580646490     1.007825032230
         H           -2.093482834291    -0.802345373980     0.292560353510     1.007825032230
         C            0.070058165709    -1.241490373980     0.275891353510    12.000000000000
         H            0.123740165709    -2.267828373980    -0.101703646490     1.007825032230
         H            0.081680165709    -1.288484373980     1.372170353510     1.007825032230

  Basis Set: AUG-CC-PVTZ
    Blend: AUG-CC-PVTZ
  Basis Set: (AUG-CC-PVTZ AUX)
    Blend: AUG-CC-PVTZ-JKFIT
	 Reference Energy          =    -195.2294828785036316 [Eh]
	 Singles Energy            =      -0.0000000000000000 [Eh]
	 Same-Spin Energy          =      -0.2103362069212613 [Eh]
	 Opposite-Spin Energy      =      -0.7666355139498618 [Eh]
	 Correlation Energy        =      -0.9769717208711232 [Eh]
	 Total Energy              =    -196.2064545993747515 [Eh]

	 ================> DF-SCS-MP2 Energies <==================
	-----------------------------------------------------------
	 SCS Same-Spin Scale       =       0.3333333333333333 [-]
	 SCS Opposite-Spin Scale   =       1.2000000000000000 [-]
	 SCS Same-Spin Energy      =      -0.0701120689737538 [Eh]
	 SCS Opposite-Spin Energy  =      -0.9199626167398341 [Eh]
	 SCS Correlation Energy    =      -0.9900746857135879 [Eh]
	 SCS Total Energy          =    -196.2195575642172116 [Eh]
	-----------------------------------------------------------

  Dipole Moment: [D]
     X:     0.0111      Y:    -0.0257      Z:    -0.0013     Total:     0.0280

*** Psi4 exiting successfully. Buy a developer a beer!
