                               Psi4 1.3.2 release

  ==> Input File <==

--------------------------------------------------------------------------
#psi4
#
memory 32 gb

molecule  {
0 1
  C        1.2117420    -0.3525450    -0.2190010
  H        1.3325290    -0.4906140    -1.3002220
  H        2.1759510    -0.5761600     0.2485890
  C        0.6555858     1.2598340     0.1217876
  H        1.1084680     1.8032250    -0.6349350
  H        1.0691420     1.3876900     1.0718560
  C       -0.8306080     0.9948330     0.0623410
  H       -1.2681980     1.6525530    -0.6947150
  H       -1.2400120     1.3098640     1.0275540
  C       -1.1697790    -0.4855090    -0.2024840
  H       -1.3014870    -0.6562650    -1.2775470
  H       -2.0928200    -0.8034510     0.2925940
  C        0.0707210    -1.2425960     0.2759250
  H        0.1244030    -2.2689340    -0.1016700
  H        0.0823430    -1.2895900     1.3722040
units angstrom
no_reorient  #important for SAPT in psi4, default
symmetry c1  #important for SAPT in psi4, default
}

set PROPERTIES_ORIGIN ["COM"]
properties('MP2/aug-cc-pvtz', properties = ['dipole'])
--------------------------------------------------------------------------

    Molecular point group: c1
  Charge       = 0
  Multiplicity = 1
  Basis Set: AUG-CC-PVTZ
    Blend: AUG-CC-PVTZ
  Basis Set: (AUG-CC-PVTZ AUX)
    Blend: AUG-CC-PVTZ-JKFIT

    Orbital Energies [Eh]
    ---------------------

    Doubly Occupied:

       1A    -11.218134     2A    -11.213960     3A    -11.212629
       4A    -11.211924     5A    -11.211775     6A     -1.103602
       7A     -0.967092     8A     -0.939807     9A     -0.779503
      10A     -0.770073    11A     -0.650855    12A     -0.633184
      13A     -0.583524    14A     -0.562952    15A     -0.497067
      16A     -0.473570    17A     -0.470384    18A     -0.462859
      19A     -0.455159    20A     -0.400099

  @DF-RHF Final Energy:  -195.20230748794859

   => Energetics <=

    Nuclear Repulsion Energy =            186.1046251299249832
    One-Electron Energy =                -630.9775585048184894
    Two-Electron Energy =                 249.6706258869448902
    Total Energy =                       -195.2023074879485875
  Basis Set: (AUG-CC-PVTZ AUX)
    Blend: AUG-CC-PVTZ-RI
    Molecular point group: c1

    Geometry (in Angstrom), charge = 0, multiplicity = 1:

       Center              X                  Y                   Z               Mass
    ------------   -----------------  -----------------  -----------------  -----------------
         C            1.222555842393    -0.383325685600    -0.225658703540    12.000000000000
         H            1.343342842393    -0.521394685600    -1.306879703540     1.007825032230
         H            2.186764842393    -0.606940685600     0.241931296460     1.007825032230
         C            0.666399642393     1.229053314400     0.115129896460    12.000000000000
         H            1.119281842393     1.772444314400    -0.641592703540     1.007825032230
         H            1.079955842393     1.356909314400     1.065198296460     1.007825032230
         C           -0.819794157607     0.964052314400     0.055683296460    12.000000000000
         H           -1.257384157607     1.621772314400    -0.701372703540     1.007825032230
         H           -1.229198157607     1.279083314400     1.020896296460     1.007825032230
         C           -1.158965157607    -0.516289685600    -0.209141703540    12.000000000000
         H           -1.290673157607    -0.687045685600    -1.284204703540     1.007825032230
         H           -2.082006157607    -0.834231685600     0.285936296460     1.007825032230
         C            0.081534842393    -1.273376685600     0.269267296460    12.000000000000
         H            0.135216842393    -2.299714685600    -0.108327703540     1.007825032230
         H            0.093156842393    -1.320370685600     1.365546296460     1.007825032230

  Basis Set: AUG-CC-PVTZ
    Blend: AUG-CC-PVTZ
  Basis Set: (AUG-CC-PVTZ AUX)
    Blend: AUG-CC-PVTZ-JKFIT
	 Reference Energy          =    -195.2023074879485875 [Eh]
	 Singles Energy            =      -0.0000000000000000 [Eh]
	 Same-Spin Energy          =      -0.2109476994862409 [Eh]
	 Opposite-Spin Energy      =      -0.7686914250910024 [Eh]
	 Correlation Energy        =      -0.9796391245772433 [Eh]
	 Total Energy              =    -196.1819466125258202 [Eh]

	 ================> DF-SCS-MP2 Energies <==================
	-----------------------------------------------------------
	 SCS Same-Spin Scale       =       0.3333333333333333 [-]
	 SCS Opposite-Spin Scale   =       1.2000000000000000 [-]
	 SCS Same-Spin Energy      =      -0.0703158998287470 [Eh]
	 SCS Opposite-Spin Energy  =      -0.9224297101092028 [Eh]
	 SCS Correlation Energy    =      -0.9927456099379498 [Eh]
	 SCS Total Energy          =    -196.1950530978865288 [Eh]
	-----------------------------------------------------------

  Dipole Moment: [D]
     X:    -0.0073      Y:    -0.0626      Z:    -0.0038     Total:     0.0631

*** Psi4 exiting successfully. Buy a developer a beer!
