                               Psi4 1.3.2 release

  ==> Input File <==

--------------------------------------------------------------------------
#psi4
#
memory 32 gb

molecule  {
0 1
  C        1.2117420    -0.3525450    -0.2190010
  H        1.3105011    -0.4654344    -1.1030400
  H        2.1759510    -0.5761600     0.2485890
  C        0.7195370     1.0744300     0.0826010
  H        1.1084680     1.8032250    -0.6349350
  H        1.0691420     1.3876900     1.0718560
  C       -0.8306080     0.9948330     0.0623410
  H       -1.2681980     1.6525530    -0.6947150
  H       -1.2400120     1.3098640     1.0275540
  C       -1.1697790    -0.4855090    -0.2024840
  H       -1.3014870    -0.6562650    -1.2775470
  H       -2.0928200    -0.8034510     0.2925940
  C        0.0707210    -1.2425960     0.2759250
  H        0.1244030    -2.2689340    -0.1016700
  H        0.0823430    -1.2895900     1.3722040
units angstrom
no_reorient  #important for SAPT in psi4, default
symmetry c1  #important for SAPT in psi4, default
}

set PROPERTIES_ORIGIN ["COM"]
properties('MP2/aug-cc-pvtz', properties = ['dipole'])
--------------------------------------------------------------------------

    Molecular point group: c1
  Charge       = 0
  Multiplicity = 1
  Basis Set: AUG-CC-PVTZ
    Blend: AUG-CC-PVTZ
  Basis Set: (AUG-CC-PVTZ AUX)
    Blend: AUG-CC-PVTZ-JKFIT

    Orbital Energies [Eh]
    ---------------------

    Doubly Occupied:

       1A    -11.211882     2A    -11.211329     3A    -11.210339
       4A    -11.210050     5A    -11.185959     6A     -1.118274
       7A     -0.967546     8A     -0.953640     9A     -0.795308
      10A     -0.766991    11A     -0.651249    12A     -0.642492
      13A     -0.583155    14A     -0.567174    15A     -0.474564
      16A     -0.472990    17A     -0.468348    18A     -0.462137
      19A     -0.457812    20A     -0.449735

  @DF-RHF Final Energy:  -195.19644376955523

   => Energetics <=

    Nuclear Repulsion Energy =            188.8795423831728613
    One-Electron Energy =                -636.4300234006198025
    Two-Electron Energy =                 252.3540372478917106
    Total Energy =                       -195.1964437695552306
  Basis Set: (AUG-CC-PVTZ AUX)
    Blend: AUG-CC-PVTZ-RI
    Molecular point group: c1

    Geometry (in Angstrom), charge = 0, multiplicity = 1:

       Center              X                  Y                   Z               Mass
    ------------   -----------------  -----------------  -----------------  -----------------
         C            1.211921813610    -0.351939751181    -0.221784259711    12.000000000000
         H            1.310680913610    -0.464829151181    -1.105823259711     1.007825032230
         H            2.176130813610    -0.575554751181     0.245805740289     1.007825032230
         C            0.719716813610     1.075035248819     0.079817740289    12.000000000000
         H            1.108647813610     1.803830248819    -0.637718259711     1.007825032230
         H            1.069321813610     1.388295248819     1.069072740289     1.007825032230
         C           -0.830428186390     0.995438248819     0.059557740289    12.000000000000
         H           -1.268018186390     1.653158248819    -0.697498259711     1.007825032230
         H           -1.239832186390     1.310469248819     1.024770740289     1.007825032230
         C           -1.169599186390    -0.484903751181    -0.205267259711    12.000000000000
         H           -1.301307186390    -0.655659751181    -1.280330259711     1.007825032230
         H           -2.092640186390    -0.802845751181     0.289810740289     1.007825032230
         C            0.070900813610    -1.241990751181     0.273141740289    12.000000000000
         H            0.124582813610    -2.268328751181    -0.104453259711     1.007825032230
         H            0.082522813610    -1.288984751181     1.369420740289     1.007825032230

  Basis Set: AUG-CC-PVTZ
    Blend: AUG-CC-PVTZ
  Basis Set: (AUG-CC-PVTZ AUX)
    Blend: AUG-CC-PVTZ-JKFIT
	 Reference Energy          =    -195.1964437695552306 [Eh]
	 Singles Energy            =      -0.0000000000000000 [Eh]
	 Same-Spin Energy          =      -0.2104593205685876 [Eh]
	 Opposite-Spin Energy      =      -0.7661112060269719 [Eh]
	 Correlation Energy        =      -0.9765705265955595 [Eh]
	 Total Energy              =    -196.1730142961507966 [Eh]

	 ================> DF-SCS-MP2 Energies <==================
	-----------------------------------------------------------
	 SCS Same-Spin Scale       =       0.3333333333333333 [-]
	 SCS Opposite-Spin Scale   =       1.2000000000000000 [-]
	 SCS Same-Spin Energy      =      -0.0701531068561959 [Eh]
	 SCS Opposite-Spin Energy  =      -0.9193334472323662 [Eh]
	 SCS Correlation Energy    =      -0.9894865540885621 [Eh]
	 SCS Total Energy          =    -196.1859303236437881 [Eh]
	-----------------------------------------------------------

  Dipole Moment: [D]
     X:     0.0396      Y:    -0.0471      Z:    -0.1024     Total:     0.1195

*** Psi4 exiting successfully. Buy a developer a beer!
