                               Psi4 1.3.2 release

  ==> Input File <==

--------------------------------------------------------------------------
#psi4
#
memory 32 gb

molecule  {
0 1
  C        1.2117420    -0.3525450    -0.2190010
  H        1.3325290    -0.4906140    -1.3002220
  H        2.1759510    -0.5761600     0.2485890
  C        0.6743765     1.0535535     0.1028879
  H        1.1084680     1.8032250    -0.6349350
  H        1.0691420     1.3876900     1.0718560
  C       -0.8306080     0.9948330     0.0623410
  H       -1.2681980     1.6525530    -0.6947150
  H       -1.2400120     1.3098640     1.0275540
  C       -1.1697790    -0.4855090    -0.2024840
  H       -1.3014870    -0.6562650    -1.2775470
  H       -2.0928200    -0.8034510     0.2925940
  C        0.0707210    -1.2425960     0.2759250
  H        0.1244030    -2.2689340    -0.1016700
  H        0.0823430    -1.2895900     1.3722040
units angstrom
no_reorient  #important for SAPT in psi4, default
symmetry c1  #important for SAPT in psi4, default
}

set PROPERTIES_ORIGIN ["COM"]
properties('MP2/aug-cc-pvtz', properties = ['dipole'])
--------------------------------------------------------------------------

    Molecular point group: c1
  Charge       = 0
  Multiplicity = 1
  Basis Set: AUG-CC-PVTZ
    Blend: AUG-CC-PVTZ
  Basis Set: (AUG-CC-PVTZ AUX)
    Blend: AUG-CC-PVTZ-JKFIT

    Orbital Energies [Eh]
    ---------------------

    Doubly Occupied:

       1A    -11.214135     2A    -11.212320     3A    -11.212050
       4A    -11.211286     5A    -11.210322     6A     -1.119444
       7A     -0.959619     8A     -0.953290     9A     -0.776502
      10A     -0.762179    11A     -0.649110    12A     -0.644862
      13A     -0.569854    14A     -0.562567    15A     -0.484104
      16A     -0.472657    17A     -0.468791    18A     -0.459814
      19A     -0.452993    20A     -0.440959

  @DF-RHF Final Energy:  -195.22606794114614

   => Energetics <=

    Nuclear Repulsion Energy =            188.4518765977752821
    One-Electron Energy =                -635.6821721594703831
    Two-Electron Energy =                 252.0042276205489884
    Total Energy =                       -195.2260679411461410
  Basis Set: (AUG-CC-PVTZ AUX)
    Blend: AUG-CC-PVTZ-RI
    Molecular point group: c1

    Geometry (in Angstrom), charge = 0, multiplicity = 1:

       Center              X                  Y                   Z               Mass
    ------------   -----------------  -----------------  -----------------  -----------------
         C            1.219338176441    -0.348002800273    -0.222422372739    12.000000000000
         H            1.340125176441    -0.486071800273    -1.303643372739     1.007825032230
         H            2.183547176441    -0.571617800273     0.245167627261     1.007825032230
         C            0.681972676441     1.058095699727     0.099466527261    12.000000000000
         H            1.116064176441     1.807767199727    -0.638356372739     1.007825032230
         H            1.076738176441     1.392232199727     1.068434627261     1.007825032230
         C           -0.823011823559     0.999375199727     0.058919627261    12.000000000000
         H           -1.260601823559     1.657095199727    -0.698136372739     1.007825032230
         H           -1.232415823559     1.314406199727     1.024132627261     1.007825032230
         C           -1.162182823559    -0.480966800273    -0.205905372739    12.000000000000
         H           -1.293890823559    -0.651722800273    -1.280968372739     1.007825032230
         H           -2.085223823559    -0.798908800273     0.289172627261     1.007825032230
         C            0.078317176441    -1.238053800273     0.272503627261    12.000000000000
         H            0.131999176441    -2.264391800273    -0.105091372739     1.007825032230
         H            0.089939176441    -1.285047800273     1.368782627261     1.007825032230

  Basis Set: AUG-CC-PVTZ
    Blend: AUG-CC-PVTZ
  Basis Set: (AUG-CC-PVTZ AUX)
    Blend: AUG-CC-PVTZ-JKFIT
	 Reference Energy          =    -195.2260679411461410 [Eh]
	 Singles Energy            =      -0.0000000000000000 [Eh]
	 Same-Spin Energy          =      -0.2107239842796754 [Eh]
	 Opposite-Spin Energy      =      -0.7670601147815983 [Eh]
	 Correlation Energy        =      -0.9777840990612736 [Eh]
	 Total Energy              =    -196.2038520402074084 [Eh]

	 ================> DF-SCS-MP2 Energies <==================
	-----------------------------------------------------------
	 SCS Same-Spin Scale       =       0.3333333333333333 [-]
	 SCS Opposite-Spin Scale   =       1.2000000000000000 [-]
	 SCS Same-Spin Energy      =      -0.0702413280932251 [Eh]
	 SCS Opposite-Spin Energy  =      -0.9204721377379179 [Eh]
	 SCS Correlation Energy    =      -0.9907134658311431 [Eh]
	 SCS Total Energy          =    -196.2167814069772760 [Eh]
	-----------------------------------------------------------

  Dipole Moment: [D]
     X:    -0.0080      Y:    -0.0377      Z:     0.0162     Total:     0.0418

*** Psi4 exiting successfully. Buy a developer a beer!
