                               Psi4 1.3.2 release

  ==> Input File <==

--------------------------------------------------------------------------
#psi4
#
memory 32 gb

molecule  {
0 1
  C        1.2117420    -0.3525450    -0.2190010
  H        1.3435429    -0.5032038    -1.3988130
  H        2.1759510    -0.5761600     0.2485890
  C        0.7195370     1.0744300     0.0826010
  H        1.1084680     1.8032250    -0.6349350
  H        1.0691420     1.3876900     1.0718560
  C       -0.8306080     0.9948330     0.0623410
  H       -1.2681980     1.6525530    -0.6947150
  H       -1.2400120     1.3098640     1.0275540
  C       -1.1697790    -0.4855090    -0.2024840
  H       -1.3014870    -0.6562650    -1.2775470
  H       -2.0928200    -0.8034510     0.2925940
  C        0.0707210    -1.2425960     0.2759250
  H        0.1244030    -2.2689340    -0.1016700
  H        0.0823430    -1.2895900     1.3722040
units angstrom
no_reorient  #important for SAPT in psi4, default
symmetry c1  #important for SAPT in psi4, default
}

set PROPERTIES_ORIGIN ["COM"]
properties('MP2/aug-cc-pvtz', properties = ['dipole'])
--------------------------------------------------------------------------

    Molecular point group: c1
  Charge       = 0
  Multiplicity = 1
  Basis Set: AUG-CC-PVTZ
    Blend: AUG-CC-PVTZ
  Basis Set: (AUG-CC-PVTZ AUX)
    Blend: AUG-CC-PVTZ-JKFIT

    Orbital Energies [Eh]
    ---------------------

    Doubly Occupied:

       1A    -11.224369     2A    -11.213503     3A    -11.213269
       4A    -11.212666     5A    -11.212007     6A     -1.113938
       7A     -0.955683     8A     -0.952272     9A     -0.771706
      10A     -0.762740    11A     -0.646976    12A     -0.643458
      13A     -0.568585    14A     -0.558805    15A     -0.475883
      16A     -0.474532    17A     -0.464443    18A     -0.460634
      19A     -0.455567    20A     -0.442697

  @DF-RHF Final Energy:  -195.22328329626129

   => Energetics <=

    Nuclear Repulsion Energy =            187.4410832231747861
    One-Electron Energy =                -633.6812621878377740
    Two-Electron Energy =                 251.0168956684016734
    Total Energy =                       -195.2232832962612861
  Basis Set: (AUG-CC-PVTZ AUX)
    Blend: AUG-CC-PVTZ-RI
    Molecular point group: c1

    Geometry (in Angstrom), charge = 0, multiplicity = 1:

       Center              X                  Y                   Z               Mass
    ------------   -----------------  -----------------  -----------------  -----------------
         C            1.211446625474    -0.351396573424    -0.217530622785    12.000000000000
         H            1.343247525474    -0.502055373424    -1.397342622785     1.007825032230
         H            2.175655625474    -0.575011573424     0.250059377215     1.007825032230
         C            0.719241625474     1.075578426576     0.084071377215    12.000000000000
         H            1.108172625474     1.804373426576    -0.633464622785     1.007825032230
         H            1.068846625474     1.388838426576     1.073326377215     1.007825032230
         C           -0.830903374526     0.995981426576     0.063811377215    12.000000000000
         H           -1.268493374526     1.653701426576    -0.693244622785     1.007825032230
         H           -1.240307374526     1.311012426576     1.029024377215     1.007825032230
         C           -1.170074374526    -0.484360573424    -0.201013622785    12.000000000000
         H           -1.301782374526    -0.655116573424    -1.276076622785     1.007825032230
         H           -2.093115374526    -0.802302573424     0.294064377215     1.007825032230
         C            0.070425625474    -1.241447573424     0.277395377215    12.000000000000
         H            0.124107625474    -2.267785573424    -0.100199622785     1.007825032230
         H            0.082047625474    -1.288441573424     1.373674377215     1.007825032230

  Basis Set: AUG-CC-PVTZ
    Blend: AUG-CC-PVTZ
  Basis Set: (AUG-CC-PVTZ AUX)
    Blend: AUG-CC-PVTZ-JKFIT
	 Reference Energy          =    -195.2232832962612861 [Eh]
	 Singles Energy            =      -0.0000000000000000 [Eh]
	 Same-Spin Energy          =      -0.2103487664918707 [Eh]
	 Opposite-Spin Energy      =      -0.7673728310980933 [Eh]
	 Correlation Energy        =      -0.9777215975899640 [Eh]
	 Total Energy              =    -196.2010048938512625 [Eh]

	 ================> DF-SCS-MP2 Energies <==================
	-----------------------------------------------------------
	 SCS Same-Spin Scale       =       0.3333333333333333 [-]
	 SCS Opposite-Spin Scale   =       1.2000000000000000 [-]
	 SCS Same-Spin Energy      =      -0.0701162554972902 [Eh]
	 SCS Opposite-Spin Energy  =      -0.9208473973177119 [Eh]
	 SCS Correlation Energy    =      -0.9909636528150021 [Eh]
	 SCS Total Energy          =    -196.2142469490762835 [Eh]
	-----------------------------------------------------------

  Dipole Moment: [D]
     X:    -0.0242      Y:    -0.0065      Z:     0.0830     Total:     0.0868

*** Psi4 exiting successfully. Buy a developer a beer!
