                               Psi4 1.4a3.dev225

  ==> Input File <==

--------------------------------------------------------------------------
#psi4
#
memory 32 gb

molecule  {
0 1
  C        1.0263950     0.7136030    -0.2588130
  H        1.1261050     0.7088370    -1.3514150
  H        1.8429100     1.3210490     0.1448880
  C       -0.3149388     1.2123891     0.1314956
  H       -0.6870960     2.0857750    -0.4528770
  H       -0.3315630     1.5598150     1.1889690
  C       -1.3000070     0.0069920     0.0001120
  H       -1.9535870     0.1085250    -0.8716480
  H       -1.9541250    -0.0875590     0.8722560
  C       -0.3733790    -1.2251960    -0.1448730
  H       -0.3482280    -1.5556240    -1.1893400
  H       -0.7095900    -2.0784640     0.4522460
  C        1.0185680    -0.7246730     0.2589190
  H        1.8285570    -1.3409040    -0.1446150
  H        1.1180650    -0.7210110     1.3515470
units angstrom
no_reorient  #important for SAPT in psi4, default
symmetry c1  #important for SAPT in psi4, default
}

set PROPERTIES_ORIGIN ["COM"]
properties('MP2/aug-cc-pvtz', properties = ['dipole'])
--------------------------------------------------------------------------

    Molecular point group: c1
  Charge       = 0
  Multiplicity = 1
  Basis Set: AUG-CC-PVTZ
    Blend: AUG-CC-PVTZ
  Basis Set: (AUG-CC-PVTZ AUX)
    Blend: AUG-CC-PVTZ-JKFIT

    Orbital Energies [Eh]
    ---------------------

    Doubly Occupied:

       1A    -11.213719     2A    -11.212672     3A    -11.212308
       4A    -11.211532     5A    -11.209796     6A     -1.119011
       7A     -0.960665     8A     -0.951687     9A     -0.775144
      10A     -0.763916    11A     -0.648034    12A     -0.645766
      13A     -0.568920    14A     -0.564131    15A     -0.483794
      16A     -0.472447    17A     -0.465719    18A     -0.458291
      19A     -0.455050    20A     -0.443626

  @DF-RHF Final Energy:  -195.22673993991629

   => Energetics <=

    Nuclear Repulsion Energy =            188.3307901597014506
    One-Electron Energy =                -635.4426059056783060
    Two-Electron Energy =                 251.8850758060605699
    Total Energy =                       -195.2267399399162855
  Basis Set: (AUG-CC-PVTZ AUX)
    Blend: AUG-CC-PVTZ-RI
    Molecular point group: c1

    Geometry (in Angstrom), charge = 0, multiplicity = 1:

       Center              X                  Y                   Z               Mass
    ------------   -----------------  -----------------  -----------------  -----------------
         C            1.017682311319     0.716488008742    -0.256559780018    12.000000000000
         H            1.117392311319     0.711722008742    -1.349161780018     1.007825032230
         H            1.834197311319     1.323934008742     0.147141219982     1.007825032230
         C           -0.323651488681     1.215274108742     0.133748819982    12.000000000000
         H           -0.695808688681     2.088660008742    -0.450623780018     1.007825032230
         H           -0.340275688681     1.562700008742     1.191222219982     1.007825032230
         C           -1.308719688681     0.009877008742     0.002365219982    12.000000000000
         H           -1.962299688681     0.111410008742    -0.869394780018     1.007825032230
         H           -1.962837688681    -0.084673991258     0.874509219982     1.007825032230
         C           -0.382091688681    -1.222310991258    -0.142619780018    12.000000000000
         H           -0.356940688681    -1.552738991258    -1.187086780018     1.007825032230
         H           -0.718302688681    -2.075578991258     0.454499219982     1.007825032230
         C            1.009855311319    -0.721787991258     0.261172219982    12.000000000000
         H            1.819844311319    -1.338018991258    -0.142361780018     1.007825032230
         H            1.109352311319    -0.718125991258     1.353800219982     1.007825032230

  Basis Set: AUG-CC-PVTZ
    Blend: AUG-CC-PVTZ
  Basis Set: (AUG-CC-PVTZ AUX)
    Blend: AUG-CC-PVTZ-JKFIT
	 Reference Energy          =    -195.2267399399162855 [Eh]
	 Singles Energy            =      -0.0000000000000000 [Eh]
	 Same-Spin Energy          =      -0.2106831058771602 [Eh]
	 Opposite-Spin Energy      =      -0.7670276201338102 [Eh]
	 Correlation Energy        =      -0.9777107260109704 [Eh]
	 Total Energy              =    -196.2044506659272542 [Eh]

	 ================> DF-SCS-MP2 Energies <==================
	-----------------------------------------------------------
	 SCS Same-Spin Scale       =       0.3333333333333333 [-]
	 SCS Opposite-Spin Scale   =       1.2000000000000000 [-]
	 SCS Same-Spin Energy      =      -0.0702277019590534 [Eh]
	 SCS Opposite-Spin Energy  =      -0.9204331441605722 [Eh]
	 SCS Correlation Energy    =      -0.9906608461196256 [Eh]
	 SCS Total Energy          =    -196.2174007860359097 [Eh]
	-----------------------------------------------------------

  Dipole Moment: [D]
     X:     0.0332      Y:    -0.0091      Z:    -0.0020     Total:     0.0345

*** Psi4 exiting successfully. Buy a developer a beer!
