                               Psi4 1.4a3.dev225

  ==> Input File <==

--------------------------------------------------------------------------
#psi4
#
memory 32 gb

molecule  {
0 1
  C        1.0263950     0.7136030    -0.2588130
  H        1.1261050     0.7088370    -1.3514150
  H        1.8429100     1.3210490     0.1448880
  C       -0.3420667     1.2224768     0.1393894
  H       -0.6870960     2.0857750    -0.4528770
  H       -0.3315630     1.5598150     1.1889690
  C       -1.3000070     0.0069920     0.0001120
  H       -1.9535870     0.1085250    -0.8716480
  H       -1.9541250    -0.0875590     0.8722560
  C       -0.3733790    -1.2251960    -0.1448730
  H       -0.3482280    -1.5556240    -1.1893400
  H       -0.7095900    -2.0784640     0.4522460
  C        1.0185680    -0.7246730     0.2589190
  H        1.8285570    -1.3409040    -0.1446150
  H        1.1180650    -0.7210110     1.3515470
units angstrom
no_reorient  #important for SAPT in psi4, default
symmetry c1  #important for SAPT in psi4, default
}

set PROPERTIES_ORIGIN ["COM"]
properties('MP2/aug-cc-pvtz', properties = ['dipole'])
--------------------------------------------------------------------------

    Molecular point group: c1
  Charge       = 0
  Multiplicity = 1
  Basis Set: AUG-CC-PVTZ
    Blend: AUG-CC-PVTZ
  Basis Set: (AUG-CC-PVTZ AUX)
    Blend: AUG-CC-PVTZ-JKFIT

    Orbital Energies [Eh]
    ---------------------

    Doubly Occupied:

       1A    -11.212831     2A    -11.212352     3A    -11.212136
       4A    -11.211580     5A    -11.210909     6A     -1.116163
       7A     -0.957268     8A     -0.953612     9A     -0.775000
      10A     -0.765194    11A     -0.647648    12A     -0.644315
      13A     -0.568201    14A     -0.565569    15A     -0.477377
      16A     -0.473079    17A     -0.463194    18A     -0.460751
      19A     -0.457783    20A     -0.446479

  @DF-RHF Final Energy:  -195.22906294401690

   => Energetics <=

    Nuclear Repulsion Energy =            188.0509368337739033
    One-Electron Energy =                -634.8971189264761961
    Two-Electron Energy =                 251.6171191486853900
    Total Energy =                       -195.2290629440169027
  Basis Set: (AUG-CC-PVTZ AUX)
    Blend: AUG-CC-PVTZ-RI
    Molecular point group: c1

    Geometry (in Angstrom), charge = 0, multiplicity = 1:

       Center              X                  Y                   Z               Mass
    ------------   -----------------  -----------------  -----------------  -----------------
         C            1.022327615654     0.714760619724    -0.257911491848    12.000000000000
         H            1.122037615654     0.709994619724    -1.350513491848     1.007825032230
         H            1.838842615654     1.322206619724     0.145789508152     1.007825032230
         C           -0.346134084346     1.223634419724     0.140290908152    12.000000000000
         H           -0.691163384346     2.086932619724    -0.451975491848     1.007825032230
         H           -0.335630384346     1.560972619724     1.189870508152     1.007825032230
         C           -1.304074384346     0.008149619724     0.001013508152    12.000000000000
         H           -1.957654384346     0.109682619724    -0.870746491848     1.007825032230
         H           -1.958192384346    -0.086401380276     0.873157508152     1.007825032230
         C           -0.377446384346    -1.224038380276    -0.143971491848    12.000000000000
         H           -0.352295384346    -1.554466380276    -1.188438491848     1.007825032230
         H           -0.713657384346    -2.077306380276     0.453147508152     1.007825032230
         C            1.014500615654    -0.723515380276     0.259820508152    12.000000000000
         H            1.824489615654    -1.339746380276    -0.143713491848     1.007825032230
         H            1.113997615654    -0.719853380276     1.352448508152     1.007825032230

  Basis Set: AUG-CC-PVTZ
    Blend: AUG-CC-PVTZ
  Basis Set: (AUG-CC-PVTZ AUX)
    Blend: AUG-CC-PVTZ-JKFIT
	 Reference Energy          =    -195.2290629440169027 [Eh]
	 Singles Energy            =      -0.0000000000000000 [Eh]
	 Same-Spin Energy          =      -0.2104678621589313 [Eh]
	 Opposite-Spin Energy      =      -0.7667868814872070 [Eh]
	 Correlation Energy        =      -0.9772547436461383 [Eh]
	 Total Energy              =    -196.2063176876630450 [Eh]

	 ================> DF-SCS-MP2 Energies <==================
	-----------------------------------------------------------
	 SCS Same-Spin Scale       =       0.3333333333333333 [-]
	 SCS Opposite-Spin Scale   =       1.2000000000000000 [-]
	 SCS Same-Spin Energy      =      -0.0701559540529771 [Eh]
	 SCS Opposite-Spin Energy  =      -0.9201442577846484 [Eh]
	 SCS Correlation Energy    =      -0.9903002118376255 [Eh]
	 SCS Total Energy          =    -196.2193631558545235 [Eh]
	-----------------------------------------------------------

  Dipole Moment: [D]
     X:     0.0274      Y:    -0.0029      Z:    -0.0006     Total:     0.0275

*** Psi4 exiting successfully. Buy a developer a beer!
