                               Psi4 1.3.2 release

  ==> Input File <==

--------------------------------------------------------------------------
#psi4
#
memory 32 gb

molecule  {
0 1
  C        1.2117420    -0.3525450    -0.2190010
  H        1.3545569    -0.5157936    -1.4974040
  H        2.1759510    -0.5761600     0.2485890
  C        0.7195370     1.0744300     0.0826010
  H        1.1084680     1.8032250    -0.6349350
  H        1.0691420     1.3876900     1.0718560
  C       -0.8306080     0.9948330     0.0623410
  H       -1.2681980     1.6525530    -0.6947150
  H       -1.2400120     1.3098640     1.0275540
  C       -1.1697790    -0.4855090    -0.2024840
  H       -1.3014870    -0.6562650    -1.2775470
  H       -2.0928200    -0.8034510     0.2925940
  C        0.0707210    -1.2425960     0.2759250
  H        0.1244030    -2.2689340    -0.1016700
  H        0.0823430    -1.2895900     1.3722040
units angstrom
no_reorient  #important for SAPT in psi4, default
symmetry c1  #important for SAPT in psi4, default
}

set PROPERTIES_ORIGIN ["COM"]
properties('MP2/aug-cc-pvtz', properties = ['dipole'])
--------------------------------------------------------------------------

    Molecular point group: c1
  Charge       = 0
  Multiplicity = 1
  Basis Set: AUG-CC-PVTZ
    Blend: AUG-CC-PVTZ
  Basis Set: (AUG-CC-PVTZ AUX)
    Blend: AUG-CC-PVTZ-JKFIT

    Orbital Energies [Eh]
    ---------------------

    Doubly Occupied:

       1A    -11.236107     2A    -11.215087     3A    -11.214861
       4A    -11.213387     5A    -11.212549     6A     -1.114178
       7A     -0.956833     8A     -0.950792     9A     -0.771478
      10A     -0.759145    11A     -0.647464    12A     -0.643401
      13A     -0.569438    14A     -0.552307    15A     -0.477567
      16A     -0.475683    17A     -0.465758    18A     -0.462066
      19A     -0.454592    20A     -0.433553

  @DF-RHF Final Energy:  -195.21023129861840

   => Energetics <=

    Nuclear Repulsion Energy =            187.0621243096514661
    One-Electron Energy =                -632.8922182305485649
    Two-Electron Energy =                 250.6198626222786743
    Total Energy =                       -195.2102312986183961
  Basis Set: (AUG-CC-PVTZ AUX)
    Blend: AUG-CC-PVTZ-RI
    Molecular point group: c1

    Geometry (in Angstrom), charge = 0, multiplicity = 1:

       Center              X                  Y                   Z               Mass
    ------------   -----------------  -----------------  -----------------  -----------------
         C            1.211288228470    -0.351215514172    -0.216112743810    12.000000000000
         H            1.354103128470    -0.514464114172    -1.494515743810     1.007825032230
         H            2.175497228470    -0.574830514172     0.251477256190     1.007825032230
         C            0.719083228470     1.075759485828     0.085489256190    12.000000000000
         H            1.108014228470     1.804554485828    -0.632046743810     1.007825032230
         H            1.068688228470     1.389019485828     1.074744256190     1.007825032230
         C           -0.831061771530     0.996162485828     0.065229256190    12.000000000000
         H           -1.268651771530     1.653882485828    -0.691826743810     1.007825032230
         H           -1.240465771530     1.311193485828     1.030442256190     1.007825032230
         C           -1.170232771530    -0.484179514172    -0.199595743810    12.000000000000
         H           -1.301940771530    -0.654935514172    -1.274658743810     1.007825032230
         H           -2.093273771530    -0.802121514172     0.295482256190     1.007825032230
         C            0.070267228470    -1.241266514172     0.278813256190    12.000000000000
         H            0.123949228470    -2.267604514172    -0.098781743810     1.007825032230
         H            0.081889228470    -1.288260514172     1.375092256190     1.007825032230

  Basis Set: AUG-CC-PVTZ
    Blend: AUG-CC-PVTZ
  Basis Set: (AUG-CC-PVTZ AUX)
    Blend: AUG-CC-PVTZ-JKFIT
	 Reference Energy          =    -195.2102312986183961 [Eh]
	 Singles Energy            =      -0.0000000000000000 [Eh]
	 Same-Spin Energy          =      -0.2103222122357287 [Eh]
	 Opposite-Spin Energy      =      -0.7681768913165159 [Eh]
	 Correlation Energy        =      -0.9784991035522446 [Eh]
	 Total Energy              =    -196.1887304021706484 [Eh]

	 ================> DF-SCS-MP2 Energies <==================
	-----------------------------------------------------------
	 SCS Same-Spin Scale       =       0.3333333333333333 [-]
	 SCS Opposite-Spin Scale   =       1.2000000000000000 [-]
	 SCS Same-Spin Energy      =      -0.0701074040785762 [Eh]
	 SCS Opposite-Spin Energy  =      -0.9218122695798190 [Eh]
	 SCS Correlation Energy    =      -0.9919196736583952 [Eh]
	 SCS Total Energy          =    -196.2021509722767973 [Eh]
	-----------------------------------------------------------

  Dipole Moment: [D]
     X:    -0.0583      Y:     0.0149      Z:     0.1841     Total:     0.1937

*** Psi4 exiting successfully. Buy a developer a beer!
