                               Psi4 1.3.2 release

  ==> Input File <==

--------------------------------------------------------------------------
#psi4
#
memory 32 gb

molecule  {
0 1
  C        1.2117420    -0.3525450    -0.2190010
  H        1.2958170    -0.4808320    -1.3048947
  H        2.1759510    -0.5761600     0.2485890
  C        0.7195370     1.0744300     0.0826010
  H        1.1084680     1.8032250    -0.6349350
  H        1.0691420     1.3876900     1.0718560
  C       -0.8306080     0.9948330     0.0623410
  H       -1.2681980     1.6525530    -0.6947150
  H       -1.2400120     1.3098640     1.0275540
  C       -1.1697790    -0.4855090    -0.2024840
  H       -1.3014870    -0.6562650    -1.2775470
  H       -2.0928200    -0.8034510     0.2925940
  C        0.0707210    -1.2425960     0.2759250
  H        0.1244030    -2.2689340    -0.1016700
  H        0.0823430    -1.2895900     1.3722040
units angstrom
no_reorient  #important for SAPT in psi4, default
symmetry c1  #important for SAPT in psi4, default
}

set PROPERTIES_ORIGIN ["COM"]
properties('MP2/aug-cc-pvtz', properties = ['dipole'])
--------------------------------------------------------------------------

    Molecular point group: c1
  Charge       = 0
  Multiplicity = 1
  Basis Set: AUG-CC-PVTZ
    Blend: AUG-CC-PVTZ
  Basis Set: (AUG-CC-PVTZ AUX)
    Blend: AUG-CC-PVTZ-JKFIT

    Orbital Energies [Eh]
    ---------------------

    Doubly Occupied:

       1A    -11.212536     2A    -11.212205     3A    -11.212062
       4A    -11.211532     5A    -11.211324     6A     -1.114678
       7A     -0.955332     8A     -0.954664     9A     -0.774721
      10A     -0.765575    11A     -0.648529    12A     -0.642723
      13A     -0.568348    14A     -0.566954    15A     -0.474813
      16A     -0.473847    17A     -0.463447    18A     -0.459594
      19A     -0.458766    20A     -0.447207

  @DF-RHF Final Energy:  -195.22941603311483

   => Energetics <=

    Nuclear Repulsion Energy =            187.9112246551863450
    One-Electron Energy =                -634.6235663042391479
    Two-Electron Energy =                 251.4829256159379725
    Total Energy =                       -195.2294160331148305
  Basis Set: (AUG-CC-PVTZ AUX)
    Blend: AUG-CC-PVTZ-RI
    Molecular point group: c1

    Geometry (in Angstrom), charge = 0, multiplicity = 1:

       Center              X                  Y                   Z               Mass
    ------------   -----------------  -----------------  -----------------  -----------------
         C            1.212132991878    -0.351718311766    -0.218881301680    12.000000000000
         H            1.296207991878    -0.480005311766    -1.304775001680     1.007825032230
         H            2.176341991878    -0.575333311766     0.248708698320     1.007825032230
         C            0.719927991878     1.075256688234     0.082720698320    12.000000000000
         H            1.108858991878     1.804051688234    -0.634815301680     1.007825032230
         H            1.069532991878     1.388516688234     1.071975698320     1.007825032230
         C           -0.830217008122     0.995659688234     0.062460698320    12.000000000000
         H           -1.267807008122     1.653379688234    -0.694595301680     1.007825032230
         H           -1.239621008122     1.310690688234     1.027673698320     1.007825032230
         C           -1.169388008122    -0.484682311766    -0.202364301680    12.000000000000
         H           -1.301096008122    -0.655438311766    -1.277427301680     1.007825032230
         H           -2.092429008122    -0.802624311766     0.292713698320     1.007825032230
         C            0.071111991878    -1.241769311766     0.276044698320    12.000000000000
         H            0.124793991878    -2.268107311766    -0.101550301680     1.007825032230
         H            0.082733991878    -1.288763311766     1.372323698320     1.007825032230

  Basis Set: AUG-CC-PVTZ
    Blend: AUG-CC-PVTZ
  Basis Set: (AUG-CC-PVTZ AUX)
    Blend: AUG-CC-PVTZ-JKFIT
	 Reference Energy          =    -195.2294160331148305 [Eh]
	 Singles Energy            =      -0.0000000000000000 [Eh]
	 Same-Spin Energy          =      -0.2104022346026765 [Eh]
	 Opposite-Spin Energy      =      -0.7667620462139459 [Eh]
	 Correlation Energy        =      -0.9771642808166224 [Eh]
	 Total Energy              =    -196.2065803139314539 [Eh]

	 ================> DF-SCS-MP2 Energies <==================
	-----------------------------------------------------------
	 SCS Same-Spin Scale       =       0.3333333333333333 [-]
	 SCS Opposite-Spin Scale   =       1.2000000000000000 [-]
	 SCS Same-Spin Energy      =      -0.0701340782008922 [Eh]
	 SCS Opposite-Spin Energy  =      -0.9201144554567351 [Eh]
	 SCS Correlation Energy    =      -0.9902485336576272 [Eh]
	 SCS Total Energy          =    -196.2196645667724511 [Eh]
	-----------------------------------------------------------

  Dipole Moment: [D]
     X:    -0.0038      Y:    -0.0226      Z:     0.0041     Total:     0.0233

*** Psi4 exiting successfully. Buy a developer a beer!
