                               Psi4 1.3.2 release

  ==> Input File <==

--------------------------------------------------------------------------
#psi4
#
memory 32 gb

molecule  {
0 1
  C        1.2117420    -0.3525450    -0.2190010
  H        1.3325290    -0.4906140    -1.3002220
  H        2.1759510    -0.5761600     0.2485890
  C        0.7834882     0.8890260     0.0434144
  H        1.1084680     1.8032250    -0.6349350
  H        1.0691420     1.3876900     1.0718560
  C       -0.8306080     0.9948330     0.0623410
  H       -1.2681980     1.6525530    -0.6947150
  H       -1.2400120     1.3098640     1.0275540
  C       -1.1697790    -0.4855090    -0.2024840
  H       -1.3014870    -0.6562650    -1.2775470
  H       -2.0928200    -0.8034510     0.2925940
  C        0.0707210    -1.2425960     0.2759250
  H        0.1244030    -2.2689340    -0.1016700
  H        0.0823430    -1.2895900     1.3722040
units angstrom
no_reorient  #important for SAPT in psi4, default
symmetry c1  #important for SAPT in psi4, default
}

set PROPERTIES_ORIGIN ["COM"]
properties('MP2/aug-cc-pvtz', properties = ['dipole'])
--------------------------------------------------------------------------

    Molecular point group: c1
  Charge       = 0
  Multiplicity = 1
  Basis Set: AUG-CC-PVTZ
    Blend: AUG-CC-PVTZ
  Basis Set: (AUG-CC-PVTZ AUX)
    Blend: AUG-CC-PVTZ-JKFIT

    Orbital Energies [Eh]
    ---------------------

    Doubly Occupied:

       1A    -11.221511     2A    -11.215595     3A    -11.214408
       4A    -11.211411     5A    -11.202776     6A     -1.138377
       7A     -0.982009     8A     -0.941567     9A     -0.780255
      10A     -0.752899    11A     -0.655775    12A     -0.651297
      13A     -0.574765    14A     -0.560253    15A     -0.521670
      16A     -0.475119    17A     -0.470087    18A     -0.459897
      19A     -0.424159    20A     -0.416864

  @DF-RHF Final Energy:  -195.18192737217012

   => Energetics <=

    Nuclear Repulsion Energy =            189.8070462174514148
    One-Electron Energy =                -638.2365611926701376
    Two-Electron Energy =                 253.2475876030485722
    Total Energy =                       -195.1819273721701222
  Basis Set: (AUG-CC-PVTZ AUX)
    Blend: AUG-CC-PVTZ-RI
    Molecular point group: c1

    Geometry (in Angstrom), charge = 0, multiplicity = 1:

       Center              X                  Y                   Z               Mass
    ------------   -----------------  -----------------  -----------------  -----------------
         C            1.200654199687    -0.319829579753    -0.212238299981    12.000000000000
         H            1.321441199687    -0.457898579753    -1.293459299981     1.007825032230
         H            2.164863199687    -0.543444579753     0.255351700019     1.007825032230
         C            0.772400399687     0.921741420247     0.050177100019    12.000000000000
         H            1.097380199687     1.835940420247    -0.628172299981     1.007825032230
         H            1.058054199687     1.420405420247     1.078618700019     1.007825032230
         C           -0.841695800313     1.027548420247     0.069103700019    12.000000000000
         H           -1.279285800313     1.685268420247    -0.687952299981     1.007825032230
         H           -1.251099800313     1.342579420247     1.034316700019     1.007825032230
         C           -1.180866800313    -0.452793579753    -0.195721299981    12.000000000000
         H           -1.312574800313    -0.623549579753    -1.270784299981     1.007825032230
         H           -2.103907800313    -0.770735579753     0.299356700019     1.007825032230
         C            0.059633199687    -1.209880579753     0.282687700019    12.000000000000
         H            0.113315199687    -2.236218579753    -0.094907299981     1.007825032230
         H            0.071255199687    -1.256874579753     1.378966700019     1.007825032230

  Basis Set: AUG-CC-PVTZ
    Blend: AUG-CC-PVTZ
  Basis Set: (AUG-CC-PVTZ AUX)
    Blend: AUG-CC-PVTZ-JKFIT
	 Reference Energy          =    -195.1819273721701222 [Eh]
	 Singles Energy            =      -0.0000000000000000 [Eh]
	 Same-Spin Energy          =      -0.2129624665982665 [Eh]
	 Opposite-Spin Energy      =      -0.7701973241643063 [Eh]
	 Correlation Energy        =      -0.9831597907625728 [Eh]
	 Total Energy              =    -196.1650871629327071 [Eh]

	 ================> DF-SCS-MP2 Energies <==================
	-----------------------------------------------------------
	 SCS Same-Spin Scale       =       0.3333333333333333 [-]
	 SCS Opposite-Spin Scale   =       1.2000000000000000 [-]
	 SCS Same-Spin Energy      =      -0.0709874888660888 [Eh]
	 SCS Opposite-Spin Energy  =      -0.9242367889971675 [Eh]
	 SCS Correlation Energy    =      -0.9952242778632564 [Eh]
	 SCS Total Energy          =    -196.1771516500333803 [Eh]
	-----------------------------------------------------------

  Dipole Moment: [D]
     X:    -0.0133      Y:    -0.1298      Z:    -0.0131     Total:     0.1311

*** Psi4 exiting successfully. Buy a developer a beer!
