                               Psi4 1.3.2 release

  ==> Input File <==

--------------------------------------------------------------------------
#psi4
#
memory 32 gb

molecule  {
0 1
  C        1.2117420    -0.3525450    -0.2190010
  H        1.2590025    -0.4708938    -1.3082445
  H        2.1759510    -0.5761600     0.2485890
  C        0.7195370     1.0744300     0.0826010
  H        1.1084680     1.8032250    -0.6349350
  H        1.0691420     1.3876900     1.0718560
  C       -0.8306080     0.9948330     0.0623410
  H       -1.2681980     1.6525530    -0.6947150
  H       -1.2400120     1.3098640     1.0275540
  C       -1.1697790    -0.4855090    -0.2024840
  H       -1.3014870    -0.6562650    -1.2775470
  H       -2.0928200    -0.8034510     0.2925940
  C        0.0707210    -1.2425960     0.2759250
  H        0.1244030    -2.2689340    -0.1016700
  H        0.0823430    -1.2895900     1.3722040
units angstrom
no_reorient  #important for SAPT in psi4, default
symmetry c1  #important for SAPT in psi4, default
}

set PROPERTIES_ORIGIN ["COM"]
properties('MP2/aug-cc-pvtz', properties = ['dipole'])
--------------------------------------------------------------------------

    Molecular point group: c1
  Charge       = 0
  Multiplicity = 1
  Basis Set: AUG-CC-PVTZ
    Blend: AUG-CC-PVTZ
  Basis Set: (AUG-CC-PVTZ AUX)
    Blend: AUG-CC-PVTZ-JKFIT

    Orbital Energies [Eh]
    ---------------------

    Doubly Occupied:

       1A    -11.212538     2A    -11.212278     3A    -11.212008
       4A    -11.211466     5A    -11.211234     6A     -1.114979
       7A     -0.955331     8A     -0.954669     9A     -0.774446
      10A     -0.765268    11A     -0.649515    12A     -0.642277
      13A     -0.568681    14A     -0.567324    15A     -0.475530
      16A     -0.473752    17A     -0.463599    18A     -0.459659
      19A     -0.458147    20A     -0.446522

  @DF-RHF Final Energy:  -195.22892870714810

   => Energetics <=

    Nuclear Repulsion Energy =            187.9624565812240178
    One-Electron Energy =                -634.7243297873396841
    Two-Electron Energy =                 251.5329444989675380
    Total Energy =                       -195.2289287071480999
  Basis Set: (AUG-CC-PVTZ AUX)
    Blend: AUG-CC-PVTZ-RI
    Molecular point group: c1

    Geometry (in Angstrom), charge = 0, multiplicity = 1:

       Center              X                  Y                   Z               Mass
    ------------   -----------------  -----------------  -----------------  -----------------
         C            1.212662436813    -0.351861237234    -0.218833126786    12.000000000000
         H            1.259922936813    -0.470210037234    -1.308076626786     1.007825032230
         H            2.176871436813    -0.575476237234     0.248756873214     1.007825032230
         C            0.720457436813     1.075113762766     0.082768873214    12.000000000000
         H            1.109388436813     1.803908762766    -0.634767126786     1.007825032230
         H            1.070062436813     1.388373762766     1.072023873214     1.007825032230
         C           -0.829687563187     0.995516762766     0.062508873214    12.000000000000
         H           -1.267277563187     1.653236762766    -0.694547126786     1.007825032230
         H           -1.239091563187     1.310547762766     1.027721873214     1.007825032230
         C           -1.168858563187    -0.484825237234    -0.202316126786    12.000000000000
         H           -1.300566563187    -0.655581237234    -1.277379126786     1.007825032230
         H           -2.091899563187    -0.802767237234     0.292761873214     1.007825032230
         C            0.071641436813    -1.241912237234     0.276092873214    12.000000000000
         H            0.125323436813    -2.268250237234    -0.101502126786     1.007825032230
         H            0.083263436813    -1.288906237234     1.372371873214     1.007825032230

  Basis Set: AUG-CC-PVTZ
    Blend: AUG-CC-PVTZ
  Basis Set: (AUG-CC-PVTZ AUX)
    Blend: AUG-CC-PVTZ-JKFIT
	 Reference Energy          =    -195.2289287071480999 [Eh]
	 Singles Energy            =      -0.0000000000000000 [Eh]
	 Same-Spin Energy          =      -0.2104582248459416 [Eh]
	 Opposite-Spin Energy      =      -0.7668565724574292 [Eh]
	 Correlation Energy        =      -0.9773147973033709 [Eh]
	 Total Energy              =    -196.2062435044514643 [Eh]

	 ================> DF-SCS-MP2 Energies <==================
	-----------------------------------------------------------
	 SCS Same-Spin Scale       =       0.3333333333333333 [-]
	 SCS Opposite-Spin Scale   =       1.2000000000000000 [-]
	 SCS Same-Spin Energy      =      -0.0701527416153139 [Eh]
	 SCS Opposite-Spin Energy  =      -0.9202278869489150 [Eh]
	 SCS Correlation Energy    =      -0.9903806285642289 [Eh]
	 SCS Total Energy          =    -196.2193093357123246 [Eh]
	-----------------------------------------------------------

  Dipole Moment: [D]
     X:    -0.0110      Y:    -0.0211      Z:     0.0079     Total:     0.0251

*** Psi4 exiting successfully. Buy a developer a beer!
