                               Psi4 1.3.2 release

  ==> Input File <==

--------------------------------------------------------------------------
#psi4
#
memory 32 gb

molecule  {
0 1
  C        1.2117420    -0.3525450    -0.2190010
  H        1.3325290    -0.4906140    -1.3002220
  H        2.1759510    -0.5761600     0.2485890
  C        0.6298707     1.0309639     0.1227826
  H        1.1084680     1.8032250    -0.6349350
  H        1.0691420     1.3876900     1.0718560
  C       -0.8306080     0.9948330     0.0623410
  H       -1.2681980     1.6525530    -0.6947150
  H       -1.2400120     1.3098640     1.0275540
  C       -1.1697790    -0.4855090    -0.2024840
  H       -1.3014870    -0.6562650    -1.2775470
  H       -2.0928200    -0.8034510     0.2925940
  C        0.0707210    -1.2425960     0.2759250
  H        0.1244030    -2.2689340    -0.1016700
  H        0.0823430    -1.2895900     1.3722040
units angstrom
no_reorient  #important for SAPT in psi4, default
symmetry c1  #important for SAPT in psi4, default
}

set PROPERTIES_ORIGIN ["COM"]
properties('MP2/aug-cc-pvtz', properties = ['dipole'])
--------------------------------------------------------------------------

    Molecular point group: c1
  Charge       = 0
  Multiplicity = 1
  Basis Set: AUG-CC-PVTZ
    Blend: AUG-CC-PVTZ
  Basis Set: (AUG-CC-PVTZ AUX)
    Blend: AUG-CC-PVTZ-JKFIT

    Orbital Energies [Eh]
    ---------------------

    Doubly Occupied:

       1A    -11.216817     2A    -11.212641     3A    -11.212475
       4A    -11.211256     5A    -11.208658     6A     -1.125396
       7A     -0.965167     8A     -0.951496     9A     -0.778256
      10A     -0.758645    11A     -0.652826    12A     -0.645241
      13A     -0.572370    14A     -0.558847    15A     -0.498017
      16A     -0.472581    17A     -0.470328    18A     -0.460557
      19A     -0.447713    20A     -0.429546

  @DF-RHF Final Energy:  -195.21657400057026

   => Energetics <=

    Nuclear Repulsion Energy =            189.0656152722187926
    One-Electron Energy =                -636.8667132053080877
    Two-Electron Energy =                 252.5845239325190335
    Total Energy =                       -195.2165740005702617
  Basis Set: (AUG-CC-PVTZ AUX)
    Blend: AUG-CC-PVTZ-RI
    Molecular point group: c1

    Geometry (in Angstrom), charge = 0, multiplicity = 1:

       Center              X                  Y                   Z               Mass
    ------------   -----------------  -----------------  -----------------  -----------------
         C            1.226959222879    -0.344134621505    -0.225829084506    12.000000000000
         H            1.347746222879    -0.482203621505    -1.307050084506     1.007825032230
         H            2.191168222879    -0.567749621505     0.241760915494     1.007825032230
         C            0.645087922879     1.039374278495     0.115954515494    12.000000000000
         H            1.123685222879     1.811635378495    -0.641763084506     1.007825032230
         H            1.084359222879     1.396100378495     1.065027915494     1.007825032230
         C           -0.815390777121     1.003243378495     0.055512915494    12.000000000000
         H           -1.252980777121     1.660963378495    -0.701543084506     1.007825032230
         H           -1.224794777121     1.318274378495     1.020725915494     1.007825032230
         C           -1.154561777121    -0.477098621505    -0.209312084506    12.000000000000
         H           -1.286269777121    -0.647854621505    -1.284375084506     1.007825032230
         H           -2.077602777121    -0.795040621505     0.285765915494     1.007825032230
         C            0.085938222879    -1.234185621505     0.269096915494    12.000000000000
         H            0.139620222879    -2.260523621505    -0.108498084506     1.007825032230
         H            0.097560222879    -1.281179621505     1.365375915494     1.007825032230

  Basis Set: AUG-CC-PVTZ
    Blend: AUG-CC-PVTZ
  Basis Set: (AUG-CC-PVTZ AUX)
    Blend: AUG-CC-PVTZ-JKFIT
	 Reference Energy          =    -195.2165740005702617 [Eh]
	 Singles Energy            =      -0.0000000000000000 [Eh]
	 Same-Spin Energy          =      -0.2112808077962722 [Eh]
	 Opposite-Spin Energy      =      -0.7677962955447051 [Eh]
	 Correlation Energy        =      -0.9790771033409773 [Eh]
	 Total Energy              =    -196.1956511039112456 [Eh]

	 ================> DF-SCS-MP2 Energies <==================
	-----------------------------------------------------------
	 SCS Same-Spin Scale       =       0.3333333333333333 [-]
	 SCS Opposite-Spin Scale   =       1.2000000000000000 [-]
	 SCS Same-Spin Energy      =      -0.0704269359320907 [Eh]
	 SCS Opposite-Spin Energy  =      -0.9213555546536460 [Eh]
	 SCS Correlation Energy    =      -0.9917824905857368 [Eh]
	 SCS Total Energy          =    -196.2083564911559961 [Eh]
	-----------------------------------------------------------

  Dipole Moment: [D]
     X:    -0.0281      Y:    -0.0607      Z:     0.0337     Total:     0.0749

*** Psi4 exiting successfully. Buy a developer a beer!
