                               Psi4 1.3.2 release

  ==> Input File <==

--------------------------------------------------------------------------
#psi4
#
memory 32 gb

molecule  {
0 1
  C        1.2117420    -0.3525450    -0.2190010
  H        1.3141886    -0.4857433    -1.3027234
  H        2.1759510    -0.5761600     0.2485890
  C        0.7195370     1.0744300     0.0826010
  H        1.1084680     1.8032250    -0.6349350
  H        1.0691420     1.3876900     1.0718560
  C       -0.8306080     0.9948330     0.0623410
  H       -1.2681980     1.6525530    -0.6947150
  H       -1.2400120     1.3098640     1.0275540
  C       -1.1697790    -0.4855090    -0.2024840
  H       -1.3014870    -0.6562650    -1.2775470
  H       -2.0928200    -0.8034510     0.2925940
  C        0.0707210    -1.2425960     0.2759250
  H        0.1244030    -2.2689340    -0.1016700
  H        0.0823430    -1.2895900     1.3722040
units angstrom
no_reorient  #important for SAPT in psi4, default
symmetry c1  #important for SAPT in psi4, default
}

set PROPERTIES_ORIGIN ["COM"]
properties('MP2/aug-cc-pvtz', properties = ['dipole'])
--------------------------------------------------------------------------

    Molecular point group: c1
  Charge       = 0
  Multiplicity = 1
  Basis Set: AUG-CC-PVTZ
    Blend: AUG-CC-PVTZ
  Basis Set: (AUG-CC-PVTZ AUX)
    Blend: AUG-CC-PVTZ-JKFIT

    Orbital Energies [Eh]
    ---------------------

    Doubly Occupied:

       1A    -11.212547     2A    -11.212179     3A    -11.212107
       4A    -11.211553     5A    -11.211360     6A     -1.114539
       7A     -0.955340     8A     -0.954665     9A     -0.774879
      10A     -0.765725    11A     -0.648073    12A     -0.642955
      13A     -0.568228    14A     -0.566690    15A     -0.474610
      16A     -0.473850    17A     -0.463439    18A     -0.459518
      19A     -0.458972    20A     -0.447463

  @DF-RHF Final Energy:  -195.22954596125800

   => Energetics <=

    Nuclear Repulsion Energy =            187.8864590115390740
    One-Electron Energy =                -634.5746230648517212
    Two-Electron Energy =                 251.4586180920546781
    Total Energy =                       -195.2295459612579975
  Basis Set: (AUG-CC-PVTZ AUX)
    Blend: AUG-CC-PVTZ-RI
    Molecular point group: c1

    Geometry (in Angstrom), charge = 0, multiplicity = 1:

       Center              X                  Y                   Z               Mass
    ------------   -----------------  -----------------  -----------------  -----------------
         C            1.211868782109    -0.351647680278    -0.218912528066    12.000000000000
         H            1.314315382109    -0.484845980278    -1.302634928066     1.007825032230
         H            2.176077782109    -0.575262680278     0.248677471934     1.007825032230
         C            0.719663782109     1.075327319722     0.082689471934    12.000000000000
         H            1.108594782109     1.804122319722    -0.634846528066     1.007825032230
         H            1.069268782109     1.388587319722     1.071944471934     1.007825032230
         C           -0.830481217891     0.995730319722     0.062429471934    12.000000000000
         H           -1.268071217891     1.653450319722    -0.694626528066     1.007825032230
         H           -1.239885217891     1.310761319722     1.027642471934     1.007825032230
         C           -1.169652217891    -0.484611680278    -0.202395528066    12.000000000000
         H           -1.301360217891    -0.655367680278    -1.277458528066     1.007825032230
         H           -2.092693217891    -0.802553680278     0.292682471934     1.007825032230
         C            0.070847782109    -1.241698680278     0.276013471934    12.000000000000
         H            0.124529782109    -2.268036680278    -0.101581528066     1.007825032230
         H            0.082469782109    -1.288692680278     1.372292471934     1.007825032230

  Basis Set: AUG-CC-PVTZ
    Blend: AUG-CC-PVTZ
  Basis Set: (AUG-CC-PVTZ AUX)
    Blend: AUG-CC-PVTZ-JKFIT
	 Reference Energy          =    -195.2295459612579975 [Eh]
	 Singles Energy            =      -0.0000000000000000 [Eh]
	 Same-Spin Energy          =      -0.2103800143094520 [Eh]
	 Opposite-Spin Energy      =      -0.7667225925410248 [Eh]
	 Correlation Energy        =      -0.9771026068504768 [Eh]
	 Total Energy              =    -196.2066485681084771 [Eh]

	 ================> DF-SCS-MP2 Energies <==================
	-----------------------------------------------------------
	 SCS Same-Spin Scale       =       0.3333333333333333 [-]
	 SCS Opposite-Spin Scale   =       1.2000000000000000 [-]
	 SCS Same-Spin Energy      =      -0.0701266714364840 [Eh]
	 SCS Opposite-Spin Energy  =      -0.9200671110492298 [Eh]
	 SCS Correlation Energy    =      -0.9901937824857138 [Eh]
	 SCS Total Energy          =    -196.2197397437437019 [Eh]
	-----------------------------------------------------------

  Dipole Moment: [D]
     X:    -0.0002      Y:    -0.0233      Z:     0.0025     Total:     0.0235

*** Psi4 exiting successfully. Buy a developer a beer!
