                               Psi4 1.4a3.dev225

  ==> Input File <==

--------------------------------------------------------------------------
#psi4
#
memory 32 gb

molecule  {
0 1
  C        1.0263950     0.7136030    -0.2588130
  H        1.1215610     0.7090542    -1.3016224
  H        1.8429100     1.3210490     0.1448880
  C       -0.3601520     1.2292020     0.1446520
  H       -0.6870960     2.0857750    -0.4528770
  H       -0.3315630     1.5598150     1.1889690
  C       -1.3000070     0.0069920     0.0001120
  H       -1.9535870     0.1085250    -0.8716480
  H       -1.9541250    -0.0875590     0.8722560
  C       -0.3733790    -1.2251960    -0.1448730
  H       -0.3482280    -1.5556240    -1.1893400
  H       -0.7095900    -2.0784640     0.4522460
  C        1.0185680    -0.7246730     0.2589190
  H        1.8285570    -1.3409040    -0.1446150
  H        1.1180650    -0.7210110     1.3515470
units angstrom
no_reorient  #important for SAPT in psi4, default
symmetry c1  #important for SAPT in psi4, default
}

set PROPERTIES_ORIGIN ["COM"]
properties('MP2/aug-cc-pvtz', properties = ['dipole'])
--------------------------------------------------------------------------

    Molecular point group: c1
  Charge       = 0
  Multiplicity = 1
  Basis Set: AUG-CC-PVTZ
    Blend: AUG-CC-PVTZ
  Basis Set: (AUG-CC-PVTZ AUX)
    Blend: AUG-CC-PVTZ-JKFIT

    Orbital Energies [Eh]
    ---------------------

    Doubly Occupied:

       1A    -11.212290     2A    -11.211835     3A    -11.211350
       4A    -11.211139     5A    -11.205342     6A     -1.115030
       7A     -0.957016     8A     -0.954717     9A     -0.779512
      10A     -0.765890    11A     -0.648264    12A     -0.642973
      13A     -0.571801    14A     -0.566599    15A     -0.474235
      16A     -0.473516    17A     -0.463183    18A     -0.462517
      19A     -0.458807    20A     -0.447813

  @DF-RHF Final Energy:  -195.22864130415516

   => Energetics <=

    Nuclear Repulsion Energy =            188.0960758390818341
    One-Electron Energy =                -634.9817819770292999
    Two-Electron Energy =                 251.6570648337923046
    Total Energy =                       -195.2286413041551612
  Basis Set: (AUG-CC-PVTZ AUX)
    Blend: AUG-CC-PVTZ-RI
    Molecular point group: c1

    Geometry (in Angstrom), charge = 0, multiplicity = 1:

       Center              X                  Y                   Z               Mass
    ------------   -----------------  -----------------  -----------------  -----------------
         C            1.025489840109     0.713605891985    -0.259528732978    12.000000000000
         H            1.120655840109     0.709057091985    -1.302338132978     1.007825032230
         H            1.842004840109     1.321051891985     0.144172267022     1.007825032230
         C           -0.361057159891     1.229204891985     0.143936267022    12.000000000000
         H           -0.688001159891     2.085777891985    -0.453592732978     1.007825032230
         H           -0.332468159891     1.559817891985     1.188253267022     1.007825032230
         C           -1.300912159891     0.006994891985    -0.000603732978    12.000000000000
         H           -1.954492159891     0.108527891985    -0.872363732978     1.007825032230
         H           -1.955030159891    -0.087556108015     0.871540267022     1.007825032230
         C           -0.374284159891    -1.225193108015    -0.145588732978    12.000000000000
         H           -0.349133159891    -1.555621108015    -1.190055732978     1.007825032230
         H           -0.710495159891    -2.078461108015     0.451530267022     1.007825032230
         C            1.017662840109    -0.724670108015     0.258203267022    12.000000000000
         H            1.827651840109    -1.340901108015    -0.145330732978     1.007825032230
         H            1.117159840109    -0.721008108015     1.350831267022     1.007825032230

  Basis Set: AUG-CC-PVTZ
    Blend: AUG-CC-PVTZ
  Basis Set: (AUG-CC-PVTZ AUX)
    Blend: AUG-CC-PVTZ-JKFIT
	 Reference Energy          =    -195.2286413041551612 [Eh]
	 Singles Energy            =      -0.0000000000000000 [Eh]
	 Same-Spin Energy          =      -0.2103737590257816 [Eh]
	 Opposite-Spin Energy      =      -0.7664321092626480 [Eh]
	 Correlation Energy        =      -0.9768058682884296 [Eh]
	 Total Energy              =    -196.2054471724435984 [Eh]

	 ================> DF-SCS-MP2 Energies <==================
	-----------------------------------------------------------
	 SCS Same-Spin Scale       =       0.3333333333333333 [-]
	 SCS Opposite-Spin Scale   =       1.2000000000000000 [-]
	 SCS Same-Spin Energy      =      -0.0701245863419272 [Eh]
	 SCS Opposite-Spin Energy  =      -0.9197185311151777 [Eh]
	 SCS Correlation Energy    =      -0.9898431174571048 [Eh]
	 SCS Total Energy          =    -196.2184844216122599 [Eh]
	-----------------------------------------------------------

  Dipole Moment: [D]
     X:     0.0342      Y:     0.0037      Z:    -0.0349     Total:     0.0490

*** Psi4 exiting successfully. Buy a developer a beer!
