                               Psi4 1.4a3.dev225

  ==> Input File <==

--------------------------------------------------------------------------
#psi4
#
memory 32 gb

molecule  {
0 1
  C        1.0263950     0.7136030    -0.2588130
  H        1.1279226     0.7087501    -1.3713320
  H        1.8429100     1.3210490     0.1448880
  C       -0.3601520     1.2292020     0.1446520
  H       -0.6870960     2.0857750    -0.4528770
  H       -0.3315630     1.5598150     1.1889690
  C       -1.3000070     0.0069920     0.0001120
  H       -1.9535870     0.1085250    -0.8716480
  H       -1.9541250    -0.0875590     0.8722560
  C       -0.3733790    -1.2251960    -0.1448730
  H       -0.3482280    -1.5556240    -1.1893400
  H       -0.7095900    -2.0784640     0.4522460
  C        1.0185680    -0.7246730     0.2589190
  H        1.8285570    -1.3409040    -0.1446150
  H        1.1180650    -0.7210110     1.3515470
units angstrom
no_reorient  #important for SAPT in psi4, default
symmetry c1  #important for SAPT in psi4, default
}

set PROPERTIES_ORIGIN ["COM"]
properties('MP2/aug-cc-pvtz', properties = ['dipole'])
--------------------------------------------------------------------------

    Molecular point group: c1
  Charge       = 0
  Multiplicity = 1
  Basis Set: AUG-CC-PVTZ
    Blend: AUG-CC-PVTZ
  Basis Set: (AUG-CC-PVTZ AUX)
    Blend: AUG-CC-PVTZ-JKFIT

    Orbital Energies [Eh]
    ---------------------

    Doubly Occupied:

       1A    -11.214464     2A    -11.212594     3A    -11.212356
       4A    -11.211941     5A    -11.211660     6A     -1.114273
       7A     -0.955328     8A     -0.954182     9A     -0.773578
      10A     -0.765822    11A     -0.647398    12A     -0.643364
      13A     -0.567506    14A     -0.565408    15A     -0.474874
      16A     -0.473930    17A     -0.463626    18A     -0.459712
      19A     -0.457657    20A     -0.447454

  @DF-RHF Final Energy:  -195.22910446921870

   => Energetics <=

    Nuclear Repulsion Energy =            187.7792459707784474
    One-Electron Energy =                -634.3624457238371406
    Two-Electron Energy =                 251.3540952838399960
    Total Energy =                       -195.2291044692186972
  Basis Set: (AUG-CC-PVTZ AUX)
    Blend: AUG-CC-PVTZ-RI
    Molecular point group: c1

    Geometry (in Angstrom), charge = 0, multiplicity = 1:

       Center              X                  Y                   Z               Mass
    ------------   -----------------  -----------------  -----------------  -----------------
         C            1.025398351242     0.713610265376    -0.258526209662    12.000000000000
         H            1.126925951242     0.708757365376    -1.371045209662     1.007825032230
         H            1.841913351242     1.321056265376     0.145174790338     1.007825032230
         C           -0.361148648758     1.229209265376     0.144938790338    12.000000000000
         H           -0.688092648758     2.085782265376    -0.452590209662     1.007825032230
         H           -0.332559648758     1.559822265376     1.189255790338     1.007825032230
         C           -1.301003648758     0.006999265376     0.000398790338    12.000000000000
         H           -1.954583648758     0.108532265376    -0.871361209662     1.007825032230
         H           -1.955121648758    -0.087551734624     0.872542790338     1.007825032230
         C           -0.374375648758    -1.225188734624    -0.144586209662    12.000000000000
         H           -0.349224648758    -1.555616734624    -1.189053209662     1.007825032230
         H           -0.710586648758    -2.078456734624     0.452532790338     1.007825032230
         C            1.017571351242    -0.724665734624     0.259205790338    12.000000000000
         H            1.827560351242    -1.340896734624    -0.144328209662     1.007825032230
         H            1.117068351242    -0.721003734624     1.351833790338     1.007825032230

  Basis Set: AUG-CC-PVTZ
    Blend: AUG-CC-PVTZ
  Basis Set: (AUG-CC-PVTZ AUX)
    Blend: AUG-CC-PVTZ-JKFIT
	 Reference Energy          =    -195.2291044692186972 [Eh]
	 Singles Energy            =      -0.0000000000000000 [Eh]
	 Same-Spin Energy          =      -0.2103632322853504 [Eh]
	 Opposite-Spin Energy      =      -0.7668212292661334 [Eh]
	 Correlation Energy        =      -0.9771844615514838 [Eh]
	 Total Energy              =    -196.2062889307701710 [Eh]

	 ================> DF-SCS-MP2 Energies <==================
	-----------------------------------------------------------
	 SCS Same-Spin Scale       =       0.3333333333333333 [-]
	 SCS Opposite-Spin Scale   =       1.2000000000000000 [-]
	 SCS Same-Spin Energy      =      -0.0701210774284501 [Eh]
	 SCS Opposite-Spin Energy  =      -0.9201854751193600 [Eh]
	 SCS Correlation Energy    =      -0.9903065525478101 [Eh]
	 SCS Total Energy          =    -196.2194110217665184 [Eh]
	-----------------------------------------------------------

  Dipole Moment: [D]
     X:     0.0202      Y:    -0.0019      Z:     0.0154     Total:     0.0254

*** Psi4 exiting successfully. Buy a developer a beer!
