                               Psi4 1.3.2 release

  ==> Input File <==

--------------------------------------------------------------------------
#psi4
#
memory 32 gb

molecule  {
0 1
  C        1.2117420    -0.3525450    -0.2190010
  H        1.3508326    -0.4954426    -1.2973912
  H        2.1759510    -0.5761600     0.2485890
  C        0.7195370     1.0744300     0.0826010
  H        1.1084680     1.8032250    -0.6349350
  H        1.0691420     1.3876900     1.0718560
  C       -0.8306080     0.9948330     0.0623410
  H       -1.2681980     1.6525530    -0.6947150
  H       -1.2400120     1.3098640     1.0275540
  C       -1.1697790    -0.4855090    -0.2024840
  H       -1.3014870    -0.6562650    -1.2775470
  H       -2.0928200    -0.8034510     0.2925940
  C        0.0707210    -1.2425960     0.2759250
  H        0.1244030    -2.2689340    -0.1016700
  H        0.0823430    -1.2895900     1.3722040
units angstrom
no_reorient  #important for SAPT in psi4, default
symmetry c1  #important for SAPT in psi4, default
}

set PROPERTIES_ORIGIN ["COM"]
properties('MP2/aug-cc-pvtz', properties = ['dipole'])
--------------------------------------------------------------------------

    Molecular point group: c1
  Charge       = 0
  Multiplicity = 1
  Basis Set: AUG-CC-PVTZ
    Blend: AUG-CC-PVTZ
  Basis Set: (AUG-CC-PVTZ AUX)
    Blend: AUG-CC-PVTZ-JKFIT

    Orbital Energies [Eh]
    ---------------------

    Doubly Occupied:

       1A    -11.212599     2A    -11.212225     3A    -11.212151
       4A    -11.211569     5A    -11.211406     6A     -1.114285
       7A     -0.955371     8A     -0.954674     9A     -0.775240
      10A     -0.766016    11A     -0.647238    12A     -0.643428
      13A     -0.568072    14A     -0.566024    15A     -0.474677
      16A     -0.473655    17A     -0.463618    18A     -0.459402
      19A     -0.458924    20A     -0.447823

  @DF-RHF Final Energy:  -195.22957923223800

   => Energetics <=

    Nuclear Repulsion Energy =            187.8386072904229991
    One-Electron Energy =                -634.4795859834749763
    Two-Electron Energy =                 251.4113994608139819
    Total Energy =                       -195.2295792322379953
  Basis Set: (AUG-CC-PVTZ AUX)
    Blend: AUG-CC-PVTZ-RI
    Molecular point group: c1

    Geometry (in Angstrom), charge = 0, multiplicity = 1:

       Center              X                  Y                   Z               Mass
    ------------   -----------------  -----------------  -----------------  -----------------
         C            1.211341789207    -0.351508190533    -0.218989212695    12.000000000000
         H            1.350432389207    -0.494405790533    -1.297379412695     1.007825032230
         H            2.175550789207    -0.575123190533     0.248600787305     1.007825032230
         C            0.719136789207     1.075466809467     0.082612787305    12.000000000000
         H            1.108067789207     1.804261809467    -0.634923212695     1.007825032230
         H            1.068741789207     1.388726809467     1.071867787305     1.007825032230
         C           -0.831008210793     0.995869809467     0.062352787305    12.000000000000
         H           -1.268598210793     1.653589809467    -0.694703212695     1.007825032230
         H           -1.240412210793     1.310900809467     1.027565787305     1.007825032230
         C           -1.170179210793    -0.484472190533    -0.202472212695    12.000000000000
         H           -1.301887210793    -0.655228190533    -1.277535212695     1.007825032230
         H           -2.093220210793    -0.802414190533     0.292605787305     1.007825032230
         C            0.070320789207    -1.241559190533     0.275936787305    12.000000000000
         H            0.124002789207    -2.267897190533    -0.101658212695     1.007825032230
         H            0.081942789207    -1.288553190533     1.372215787305     1.007825032230

  Basis Set: AUG-CC-PVTZ
    Blend: AUG-CC-PVTZ
  Basis Set: (AUG-CC-PVTZ AUX)
    Blend: AUG-CC-PVTZ-JKFIT
	 Reference Energy          =    -195.2295792322379953 [Eh]
	 Singles Energy            =      -0.0000000000000000 [Eh]
	 Same-Spin Energy          =      -0.2103470162831926 [Eh]
	 Opposite-Spin Energy      =      -0.7666593118236442 [Eh]
	 Correlation Energy        =      -0.9770063281068369 [Eh]
	 Total Energy              =    -196.2065855603448199 [Eh]

	 ================> DF-SCS-MP2 Energies <==================
	-----------------------------------------------------------
	 SCS Same-Spin Scale       =       0.3333333333333333 [-]
	 SCS Opposite-Spin Scale   =       1.2000000000000000 [-]
	 SCS Same-Spin Energy      =      -0.0701156720943975 [Eh]
	 SCS Opposite-Spin Energy  =      -0.9199911741883731 [Eh]
	 SCS Correlation Energy    =      -0.9901068462827706 [Eh]
	 SCS Total Energy          =    -196.2196860785207662 [Eh]
	-----------------------------------------------------------

  Dipole Moment: [D]
     X:     0.0072      Y:    -0.0249      Z:    -0.0002     Total:     0.0259

*** Psi4 exiting successfully. Buy a developer a beer!
