                               Psi4 1.3.2 release

  ==> Input File <==

--------------------------------------------------------------------------
#psi4
#
memory 32 gb

molecule  {
0 1
  C        1.2117420    -0.3525450    -0.2190010
  H        1.2221305    -0.4608113    -1.3102672
  H        2.1759510    -0.5761600     0.2485890
  C        0.7195370     1.0744300     0.0826010
  H        1.1084680     1.8032250    -0.6349350
  H        1.0691420     1.3876900     1.0718560
  C       -0.8306080     0.9948330     0.0623410
  H       -1.2681980     1.6525530    -0.6947150
  H       -1.2400120     1.3098640     1.0275540
  C       -1.1697790    -0.4855090    -0.2024840
  H       -1.3014870    -0.6562650    -1.2775470
  H       -2.0928200    -0.8034510     0.2925940
  C        0.0707210    -1.2425960     0.2759250
  H        0.1244030    -2.2689340    -0.1016700
  H        0.0823430    -1.2895900     1.3722040
units angstrom
no_reorient  #important for SAPT in psi4, default
symmetry c1  #important for SAPT in psi4, default
}

set PROPERTIES_ORIGIN ["COM"]
properties('MP2/aug-cc-pvtz', properties = ['dipole'])
--------------------------------------------------------------------------

    Molecular point group: c1
  Charge       = 0
  Multiplicity = 1
  Basis Set: AUG-CC-PVTZ
    Blend: AUG-CC-PVTZ
  Basis Set: (AUG-CC-PVTZ AUX)
    Blend: AUG-CC-PVTZ-JKFIT

    Orbital Energies [Eh]
    ---------------------

    Doubly Occupied:

       1A    -11.212569     2A    -11.212367     3A    -11.211996
       4A    -11.211373     5A    -11.211130     6A     -1.115315
       7A     -0.955348     8A     -0.954684     9A     -0.774224
      10A     -0.764953    11A     -0.650594    12A     -0.641860
      13A     -0.569088    14A     -0.567532    15A     -0.476468
      16A     -0.473665    17A     -0.463825    18A     -0.459680
      19A     -0.457390    20A     -0.445577

  @DF-RHF Final Energy:  -195.22813678288378

   => Energetics <=

    Nuclear Repulsion Energy =            188.0159864752135661
    One-Electron Energy =                -634.8289700382568981
    Two-Electron Energy =                 251.5848467801595234
    Total Energy =                       -195.2281367828837801
  Basis Set: (AUG-CC-PVTZ AUX)
    Blend: AUG-CC-PVTZ-RI
    Molecular point group: c1

    Geometry (in Angstrom), charge = 0, multiplicity = 1:

       Center              X                  Y                   Z               Mass
    ------------   -----------------  -----------------  -----------------  -----------------
         C            1.213192708679    -0.352006237942    -0.218804037480    12.000000000000
         H            1.223581208679    -0.460272537942    -1.310070237480     1.007825032230
         H            2.177401708679    -0.575621237942     0.248785962520     1.007825032230
         C            0.720987708679     1.074968762058     0.082797962520    12.000000000000
         H            1.109918708679     1.803763762058    -0.634738037480     1.007825032230
         H            1.070592708679     1.388228762058     1.072052962520     1.007825032230
         C           -0.829157291321     0.995371762058     0.062537962520    12.000000000000
         H           -1.266747291321     1.653091762058    -0.694518037480     1.007825032230
         H           -1.238561291321     1.310402762058     1.027750962520     1.007825032230
         C           -1.168328291321    -0.484970237942    -0.202287037480    12.000000000000
         H           -1.300036291321    -0.655726237942    -1.277350037480     1.007825032230
         H           -2.091369291321    -0.802912237942     0.292790962520     1.007825032230
         C            0.072171708679    -1.242057237942     0.276121962520    12.000000000000
         H            0.125853708679    -2.268395237942    -0.101473037480     1.007825032230
         H            0.083793708679    -1.289051237942     1.372400962520     1.007825032230

  Basis Set: AUG-CC-PVTZ
    Blend: AUG-CC-PVTZ
  Basis Set: (AUG-CC-PVTZ AUX)
    Blend: AUG-CC-PVTZ-JKFIT
	 Reference Energy          =    -195.2281367828837801 [Eh]
	 Singles Energy            =      -0.0000000000000000 [Eh]
	 Same-Spin Energy          =      -0.2105298025599122 [Eh]
	 Opposite-Spin Energy      =      -0.7669719945735930 [Eh]
	 Correlation Energy        =      -0.9775017971335053 [Eh]
	 Total Energy              =    -196.2056385800172791 [Eh]

	 ================> DF-SCS-MP2 Energies <==================
	-----------------------------------------------------------
	 SCS Same-Spin Scale       =       0.3333333333333333 [-]
	 SCS Opposite-Spin Scale   =       1.2000000000000000 [-]
	 SCS Same-Spin Energy      =      -0.0701766008533041 [Eh]
	 SCS Opposite-Spin Energy  =      -0.9203663934883115 [Eh]
	 SCS Correlation Energy    =      -0.9905429943416155 [Eh]
	 SCS Total Energy          =    -196.2186797772253897 [Eh]
	-----------------------------------------------------------

  Dipole Moment: [D]
     X:    -0.0180      Y:    -0.0197      Z:     0.0123     Total:     0.0293

*** Psi4 exiting successfully. Buy a developer a beer!
