                               Psi4 1.3.2 release

  ==> Input File <==

--------------------------------------------------------------------------
#psi4
#
memory 32 gb

molecule  {
0 1
  S       -1.3336960    -0.3724180    -1.1448160
  O        1.3948110    -1.6888110     0.5141610
  N        0.9516030     0.5158590     0.1032830
  C       -0.3962079     0.1326429     0.2534289
  C        1.3527330     1.8066140    -0.4558870
  C        1.8123640    -0.5701240     0.2233340
  C       -1.2481770     0.5074040     1.2784860
  C       -2.6022980     0.1802550     1.0222870
  C        3.2848510    -0.2882260     0.0069730
  C       -2.7981330    -0.3054580    -0.2520070
  H        0.6391180     2.5565960    -0.1121450
  H        1.3549250     1.8004410    -1.5532040
  H        2.3443270     2.0847450    -0.0978400
  H       -0.8644230     0.8946460     2.2167190
  H       -3.4051180     0.2883830     1.7439780
  H        3.6654260     0.4295190     0.7396260
  H        3.4786200     0.1121010    -0.9922510
  H        3.8138040    -1.2333750     0.1250220
  H       -3.7244210    -0.6394710    -0.7024050
units angstrom
no_reorient  #important for SAPT in psi4, default
symmetry c1  #important for SAPT in psi4, default
}

set PROPERTIES_ORIGIN ["COM"]
properties('MP2/aug-cc-pvtz', properties = ['dipole'])
--------------------------------------------------------------------------

    Molecular point group: c1
  Charge       = 0
  Multiplicity = 1
  Basis Set: AUG-CC-PVTZ
    Blend: AUG-CC-PVTZ
  Basis Set: (AUG-CC-PVTZ AUX)
    Blend: AUG-CC-PVTZ-JKFIT

    Orbital Energies [Eh]
    ---------------------

    Doubly Occupied:

       1A    -91.980882     2A    -20.522833     3A    -15.602746
       4A    -11.356225     5A    -11.299003     6A    -11.281458
       7A    -11.263611     8A    -11.241841     9A    -11.239428
      10A    -11.238364    11A     -8.981030    12A     -6.661978
      13A     -6.661481    14A     -6.660723    15A     -1.382024
      16A     -1.262178    17A     -1.156131    18A     -1.020832
      19A     -0.986904    20A     -0.983895    21A     -0.941526
      22A     -0.807120    23A     -0.760486    24A     -0.714391
      25A     -0.690817    26A     -0.680730    27A     -0.648822
      28A     -0.625270    29A     -0.591103    30A     -0.580509
      31A     -0.565826    32A     -0.563666    33A     -0.556117
      34A     -0.546293    35A     -0.511515    36A     -0.503397
      37A     -0.474674    38A     -0.426920    39A     -0.386814
      40A     -0.344602    41A     -0.319227

  @DF-RHF Final Energy:  -797.28979914108811

   => Energetics <=

    Nuclear Repulsion Energy =            606.3719558613075833
    One-Electron Energy =               -2297.2767241548594939
    Two-Electron Energy =                 893.6149691524639138
    Total Energy =                       -797.2897991410881104
  Basis Set: (AUG-CC-PVTZ AUX)
    Blend: AUG-CC-PVTZ-RI
    Molecular point group: c1

    Geometry (in Angstrom), charge = 0, multiplicity = 1:

       Center              X                  Y                   Z               Mass
    ------------   -----------------  -----------------  -----------------  -----------------
         S           -1.289934593154    -0.322136788009    -1.140724692407    31.972071174400
         O            1.438572406846    -1.638529788009     0.518252307593    15.994914619570
         N            0.995364406846     0.566140211991     0.107374307593    14.003074004430
         C           -0.352446493154     0.182924111991     0.257520207593    12.000000000000
         C            1.396494406846     1.856895211991    -0.451795692407    12.000000000000
         C            1.856125406846    -0.519842788009     0.227425307593    12.000000000000
         C           -1.204415593154     0.557685211991     1.282577307593    12.000000000000
         C           -2.558536593154     0.230536211991     1.026378307593    12.000000000000
         C            3.328612406846    -0.237944788009     0.011064307593    12.000000000000
         C           -2.754371593154    -0.255176788009    -0.247915692407    12.000000000000
         H            0.682879406846     2.606877211991    -0.108053692407     1.007825032230
         H            1.398686406846     1.850722211991    -1.549112692407     1.007825032230
         H            2.388088406846     2.135026211991    -0.093748692407     1.007825032230
         H           -0.820661593154     0.944927211991     2.220810307593     1.007825032230
         H           -3.361356593154     0.338664211991     1.748069307593     1.007825032230
         H            3.709187406846     0.479800211991     0.743717307593     1.007825032230
         H            3.522381406846     0.162382211991    -0.988159692407     1.007825032230
         H            3.857565406846    -1.183093788009     0.129113307593     1.007825032230
         H           -3.680659593154    -0.589189788009    -0.698313692407     1.007825032230

  Basis Set: AUG-CC-PVTZ
    Blend: AUG-CC-PVTZ
  Basis Set: (AUG-CC-PVTZ AUX)
    Blend: AUG-CC-PVTZ-JKFIT
	 Reference Energy          =    -797.2897991410881104 [Eh]
	 Singles Energy            =      -0.0000000000000000 [Eh]
	 Same-Spin Energy          =      -0.4872613042813548 [Eh]
	 Opposite-Spin Energy      =      -1.5070219791871486 [Eh]
	 Correlation Energy        =      -1.9942832834685036 [Eh]
	 Total Energy              =    -799.2840824245565727 [Eh]

	 ================> DF-SCS-MP2 Energies <==================
	-----------------------------------------------------------
	 SCS Same-Spin Scale       =       0.3333333333333333 [-]
	 SCS Opposite-Spin Scale   =       1.2000000000000000 [-]
	 SCS Same-Spin Energy      =      -0.1624204347604516 [Eh]
	 SCS Opposite-Spin Energy  =      -1.8084263750245784 [Eh]
	 SCS Correlation Energy    =      -1.9708468097850300 [Eh]
	 SCS Total Energy          =    -799.2606459508731405 [Eh]
	-----------------------------------------------------------

  Dipole Moment: [D]
     X:     0.6950      Y:     3.6205      Z:    -0.6437     Total:     3.7424

*** Psi4 exiting successfully. Buy a developer a beer!
