                               Psi4 1.3.2 release

  ==> Input File <==

--------------------------------------------------------------------------
#psi4
#
memory 32 gb

molecule  {
0 1
  S       -1.3336960    -0.3724180    -1.1448160
  O        1.3948110    -1.6888110     0.5141610
  N        0.9516030     0.5158590     0.1032830
  C       -0.4702527     0.2482246     0.1712509
  C        1.3527330     1.8066140    -0.4558870
  C        1.8123640    -0.5701240     0.2233340
  C       -1.2481770     0.5074040     1.2784860
  C       -2.6022980     0.1802550     1.0222870
  C        3.2848510    -0.2882260     0.0069730
  C       -2.7981330    -0.3054580    -0.2520070
  H        0.6391180     2.5565960    -0.1121450
  H        1.3549250     1.8004410    -1.5532040
  H        2.3443270     2.0847450    -0.0978400
  H       -0.8644230     0.8946460     2.2167190
  H       -3.4051180     0.2883830     1.7439780
  H        3.6654260     0.4295190     0.7396260
  H        3.4786200     0.1121010    -0.9922510
  H        3.8138040    -1.2333750     0.1250220
  H       -3.7244210    -0.6394710    -0.7024050
units angstrom
no_reorient  #important for SAPT in psi4, default
symmetry c1  #important for SAPT in psi4, default
}

set PROPERTIES_ORIGIN ["COM"]
properties('MP2/aug-cc-pvtz', properties = ['dipole'])
--------------------------------------------------------------------------

    Molecular point group: c1
  Charge       = 0
  Multiplicity = 1
  Basis Set: AUG-CC-PVTZ
    Blend: AUG-CC-PVTZ
  Basis Set: (AUG-CC-PVTZ AUX)
    Blend: AUG-CC-PVTZ-JKFIT

    Orbital Energies [Eh]
    ---------------------

    Doubly Occupied:

       1A    -91.986262     2A    -20.520764     3A    -15.601096
       4A    -11.356215     5A    -11.296127     6A    -11.276479
       7A    -11.261799     8A    -11.241786     9A    -11.239860
      10A    -11.237119    11A     -8.987333    12A     -6.668344
      13A     -6.667829    14A     -6.666994    15A     -1.377315
      16A     -1.255091    17A     -1.164796    18A     -1.018805
      19A     -0.992679    20A     -0.980834    21A     -0.941356
      22A     -0.804907    23A     -0.763464    24A     -0.716170
      25A     -0.686744    26A     -0.677590    27A     -0.645396
      28A     -0.623356    29A     -0.589689    30A     -0.577799
      31A     -0.564307    32A     -0.563320    33A     -0.552143
      34A     -0.544290    35A     -0.520338    36A     -0.505672
      37A     -0.484234    38A     -0.425296    39A     -0.387190
      40A     -0.347524    41A     -0.321871

  @DF-RHF Final Energy:  -797.29568778544080

   => Energetics <=

    Nuclear Repulsion Energy =            606.6446024803688033
    One-Electron Energy =               -2297.8002113287911925
    Two-Electron Energy =                 893.8599210629815843
    Total Energy =                       -797.2956877854408049
  Basis Set: (AUG-CC-PVTZ AUX)
    Blend: AUG-CC-PVTZ-RI
    Molecular point group: c1

    Geometry (in Angstrom), charge = 0, multiplicity = 1:

       Center              X                  Y                   Z               Mass
    ------------   -----------------  -----------------  -----------------  -----------------
         S           -1.284203589413    -0.331082712032    -1.134364185992    31.972071174400
         O            1.444303410587    -1.647475712032     0.524612814008    15.994914619570
         N            1.001095410587     0.557194287968     0.113734814008    14.003074004430
         C           -0.420760289413     0.289559887968     0.181702714008    12.000000000000
         C            1.402225410587     1.847949287968    -0.445435185992    12.000000000000
         C            1.861856410587    -0.528788712032     0.233785814008    12.000000000000
         C           -1.198684589413     0.548739287968     1.288937814008    12.000000000000
         C           -2.552805589413     0.221590287968     1.032738814008    12.000000000000
         C            3.334343410587    -0.246890712032     0.017424814008    12.000000000000
         C           -2.748640589413    -0.264122712032    -0.241555185992    12.000000000000
         H            0.688610410587     2.597931287968    -0.101693185992     1.007825032230
         H            1.404417410587     1.841776287968    -1.542752185992     1.007825032230
         H            2.393819410587     2.126080287968    -0.087388185992     1.007825032230
         H           -0.814930589413     0.935981287968     2.227170814008     1.007825032230
         H           -3.355625589413     0.329718287968     1.754429814008     1.007825032230
         H            3.714918410587     0.470854287968     0.750077814008     1.007825032230
         H            3.528112410587     0.153436287968    -0.981799185992     1.007825032230
         H            3.863296410587    -1.192039712032     0.135473814008     1.007825032230
         H           -3.674928589413    -0.598135712032    -0.691953185992     1.007825032230

  Basis Set: AUG-CC-PVTZ
    Blend: AUG-CC-PVTZ
  Basis Set: (AUG-CC-PVTZ AUX)
    Blend: AUG-CC-PVTZ-JKFIT
	 Reference Energy          =    -797.2956877854408049 [Eh]
	 Singles Energy            =      -0.0000000000000000 [Eh]
	 Same-Spin Energy          =      -0.4867274861856660 [Eh]
	 Opposite-Spin Energy      =      -1.5055485627195329 [Eh]
	 Correlation Energy        =      -1.9922760489051989 [Eh]
	 Total Energy              =    -799.2879638343459874 [Eh]

	 ================> DF-SCS-MP2 Energies <==================
	-----------------------------------------------------------
	 SCS Same-Spin Scale       =       0.3333333333333333 [-]
	 SCS Opposite-Spin Scale   =       1.2000000000000000 [-]
	 SCS Same-Spin Energy      =      -0.1622424953952220 [Eh]
	 SCS Opposite-Spin Energy  =      -1.8066582752634393 [Eh]
	 SCS Correlation Energy    =      -1.9689007706586612 [Eh]
	 SCS Total Energy          =    -799.2645885560995112 [Eh]
	-----------------------------------------------------------

  Dipole Moment: [D]
     X:     0.5177      Y:     3.4565      Z:    -0.7421     Total:     3.5730

*** Psi4 exiting successfully. Buy a developer a beer!
