                               Psi4 1.3.2 release

  ==> Input File <==

--------------------------------------------------------------------------
#psi4
#
memory 32 gb

molecule  {
0 1
  S       -1.3336960    -0.3724180    -1.1448160
  O        1.3948110    -1.6888110     0.5141610
  N        0.9516030     0.5158590     0.1032830
  C       -0.4129602     0.2714498     0.2084167
  C        1.3527330     1.8066140    -0.4558870
  C        1.8123640    -0.5701240     0.2233340
  C       -1.2481770     0.5074040     1.2784860
  C       -2.6022980     0.1802550     1.0222870
  C        3.2848510    -0.2882260     0.0069730
  C       -2.7981330    -0.3054580    -0.2520070
  H        0.6391180     2.5565960    -0.1121450
  H        1.3549250     1.8004410    -1.5532040
  H        2.3443270     2.0847450    -0.0978400
  H       -0.8644230     0.8946460     2.2167190
  H       -3.4051180     0.2883830     1.7439780
  H        3.6654260     0.4295190     0.7396260
  H        3.4786200     0.1121010    -0.9922510
  H        3.8138040    -1.2333750     0.1250220
  H       -3.7244210    -0.6394710    -0.7024050
units angstrom
no_reorient  #important for SAPT in psi4, default
symmetry c1  #important for SAPT in psi4, default
}

set PROPERTIES_ORIGIN ["COM"]
properties('MP2/aug-cc-pvtz', properties = ['dipole'])
--------------------------------------------------------------------------

    Molecular point group: c1
  Charge       = 0
  Multiplicity = 1
  Basis Set: AUG-CC-PVTZ
    Blend: AUG-CC-PVTZ
  Basis Set: (AUG-CC-PVTZ AUX)
    Blend: AUG-CC-PVTZ-JKFIT

    Orbital Energies [Eh]
    ---------------------

    Doubly Occupied:

       1A    -91.980716     2A    -20.524086     3A    -15.603033
       4A    -11.359180     5A    -11.296860     6A    -11.278927
       7A    -11.263404     8A    -11.243688     9A    -11.239050
      10A    -11.237978    11A     -8.980819    12A     -6.661766
      13A     -6.661276    14A     -6.660526    15A     -1.381959
      16A     -1.267519    17A     -1.156070    18A     -1.023278
      19A     -0.986495    20A     -0.982295    21A     -0.942451
      22A     -0.817554    23A     -0.762145    24A     -0.713770
      25A     -0.688458    26A     -0.681708    27A     -0.649579
      28A     -0.625440    29A     -0.591955    30A     -0.580581
      31A     -0.567466    32A     -0.564748    33A     -0.557706
      34A     -0.545850    35A     -0.512763    36A     -0.504225
      37A     -0.474972    38A     -0.428356    39A     -0.386487
      40A     -0.345055    41A     -0.319801

  @DF-RHF Final Energy:  -797.29700467434452

   => Energetics <=

    Nuclear Repulsion Energy =            606.3181084163712740
    One-Electron Energy =               -2297.1302427272762543
    Two-Electron Energy =                 893.5151296365605731
    Total Energy =                       -797.2970046743445209
  Basis Set: (AUG-CC-PVTZ AUX)
    Blend: AUG-CC-PVTZ-RI
    Molecular point group: c1

    Geometry (in Angstrom), charge = 0, multiplicity = 1:

       Center              X                  Y                   Z               Mass
    ------------   -----------------  -----------------  -----------------  -----------------
         S           -1.288637979564    -0.332880322506    -1.137240786898    31.972071174400
         O            1.439869020436    -1.649273322506     0.521736213102    15.994914619570
         N            0.996661020436     0.555396677494     0.110858213102    14.003074004430
         C           -0.367902179564     0.310987477494     0.215991913102    12.000000000000
         C            1.397791020436     1.846151677494    -0.448311786898    12.000000000000
         C            1.857422020436    -0.530586322506     0.230909213102    12.000000000000
         C           -1.203118979564     0.546941677494     1.286061213102    12.000000000000
         C           -2.557239979564     0.219792677494     1.029862213102    12.000000000000
         C            3.329909020436    -0.248688322506     0.014548213102    12.000000000000
         C           -2.753074979564    -0.265920322506    -0.244431786898    12.000000000000
         H            0.684176020436     2.596133677494    -0.104569786898     1.007825032230
         H            1.399983020436     1.839978677494    -1.545628786898     1.007825032230
         H            2.389385020436     2.124282677494    -0.090264786898     1.007825032230
         H           -0.819364979564     0.934183677494     2.224294213101     1.007825032230
         H           -3.360059979564     0.327920677494     1.751553213102     1.007825032230
         H            3.710484020436     0.469056677494     0.747201213102     1.007825032230
         H            3.523678020436     0.151638677494    -0.984675786898     1.007825032230
         H            3.858862020436    -1.193837322506     0.132597213102     1.007825032230
         H           -3.679362979564    -0.599933322506    -0.694829786898     1.007825032230

  Basis Set: AUG-CC-PVTZ
    Blend: AUG-CC-PVTZ
  Basis Set: (AUG-CC-PVTZ AUX)
    Blend: AUG-CC-PVTZ-JKFIT
	 Reference Energy          =    -797.2970046743445209 [Eh]
	 Singles Energy            =      -0.0000000000000000 [Eh]
	 Same-Spin Energy          =      -0.4867707374513819 [Eh]
	 Opposite-Spin Energy      =      -1.5059749938061897 [Eh]
	 Correlation Energy        =      -1.9927457312575716 [Eh]
	 Total Energy              =    -799.2897504056021489 [Eh]

	 ================> DF-SCS-MP2 Energies <==================
	-----------------------------------------------------------
	 SCS Same-Spin Scale       =       0.3333333333333333 [-]
	 SCS Opposite-Spin Scale   =       1.2000000000000000 [-]
	 SCS Same-Spin Energy      =      -0.1622569124837940 [Eh]
	 SCS Opposite-Spin Energy  =      -1.8071699925674276 [Eh]
	 SCS Correlation Energy    =      -1.9694269050512216 [Eh]
	 SCS Total Energy          =    -799.2664315793957712 [Eh]
	-----------------------------------------------------------

  Dipole Moment: [D]
     X:     0.7725      Y:     3.5020      Z:    -0.6101     Total:     3.6377

*** Psi4 exiting successfully. Buy a developer a beer!
