                               Psi4 1.3.2 release

  ==> Input File <==

--------------------------------------------------------------------------
#psi4
#
memory 32 gb

molecule  {
0 1
  S       -1.3336960    -0.3724180    -1.1448160
  O        1.3948110    -1.6888110     0.5141610
  N        0.9516030     0.5158590     0.1032830
  C       -0.4832214     0.2662165     0.2276896
  C        1.3527330     1.8066140    -0.4558870
  C        1.8123640    -0.5701240     0.2233340
  C       -1.2481770     0.5074040     1.2784860
  C       -2.6022980     0.1802550     1.0222870
  C        3.2848510    -0.2882260     0.0069730
  C       -2.7981330    -0.3054580    -0.2520070
  H        0.6391180     2.5565960    -0.1121450
  H        1.3549250     1.8004410    -1.5532040
  H        2.3443270     2.0847450    -0.0978400
  H       -0.8644230     0.8946460     2.2167190
  H       -3.4051180     0.2883830     1.7439780
  H        3.6654260     0.4295190     0.7396260
  H        3.4786200     0.1121010    -0.9922510
  H        3.8138040    -1.2333750     0.1250220
  H       -3.7244210    -0.6394710    -0.7024050
units angstrom
no_reorient  #important for SAPT in psi4, default
symmetry c1  #important for SAPT in psi4, default
}

set PROPERTIES_ORIGIN ["COM"]
properties('MP2/aug-cc-pvtz', properties = ['dipole'])
--------------------------------------------------------------------------

    Molecular point group: c1
  Charge       = 0
  Multiplicity = 1
  Basis Set: AUG-CC-PVTZ
    Blend: AUG-CC-PVTZ
  Basis Set: (AUG-CC-PVTZ AUX)
    Blend: AUG-CC-PVTZ-JKFIT

    Orbital Energies [Eh]
    ---------------------

    Doubly Occupied:

       1A    -91.982641     2A    -20.520090     3A    -15.601057
       4A    -11.355979     5A    -11.294232     6A    -11.276356
       7A    -11.263687     8A    -11.241619     9A    -11.239712
      10A    -11.233255    11A     -8.983222    12A     -6.664201
      13A     -6.663638    14A     -6.662827    15A     -1.376328
      16A     -1.252576    17A     -1.166540    18A     -1.018705
      19A     -0.995430    20A     -0.980043    21A     -0.942054
      22A     -0.802754    23A     -0.766411    24A     -0.717926
      25A     -0.686490    26A     -0.676831    27A     -0.644982
      28A     -0.622724    29A     -0.589348    30A     -0.577510
      31A     -0.566679    32A     -0.563804    33A     -0.554757
      34A     -0.538812    35A     -0.521069    36A     -0.504367
      37A     -0.481875    38A     -0.424529    39A     -0.386044
      40A     -0.351263    41A     -0.325988

  @DF-RHF Final Energy:  -797.29580534780803

   => Energetics <=

    Nuclear Repulsion Energy =            606.2871185429930847
    One-Electron Energy =               -2297.1291380163374924
    Two-Electron Energy =                 893.5462141255363804
    Total Energy =                       -797.2958053478080274
  Basis Set: (AUG-CC-PVTZ AUX)
    Blend: AUG-CC-PVTZ-RI
    Molecular point group: c1

    Geometry (in Angstrom), charge = 0, multiplicity = 1:

       Center              X                  Y                   Z               Mass
    ------------   -----------------  -----------------  -----------------  -----------------
         S           -1.283199823204    -0.332475269594    -1.138732492758    31.972071174400
         O            1.445307176796    -1.648868269594     0.520244507242    15.994914619570
         N            1.002099176796     0.555801730406     0.109366507242    14.003074004430
         C           -0.432725223204     0.306159230406     0.233773107242    12.000000000000
         C            1.403229176796     1.846556730406    -0.449803492758    12.000000000000
         C            1.862860176796    -0.530181269594     0.229417507242    12.000000000000
         C           -1.197680823204     0.547346730406     1.284569507242    12.000000000000
         C           -2.551801823204     0.220197730406     1.028370507242    12.000000000000
         C            3.335347176796    -0.248283269594     0.013056507242    12.000000000000
         C           -2.747636823204    -0.265515269594    -0.245923492758    12.000000000000
         H            0.689614176796     2.596538730406    -0.106061492758     1.007825032230
         H            1.405421176796     1.840383730406    -1.547120492758     1.007825032230
         H            2.394823176796     2.124687730406    -0.091756492758     1.007825032230
         H           -0.813926823204     0.934588730406     2.222802507242     1.007825032230
         H           -3.354621823204     0.328325730406     1.750061507242     1.007825032230
         H            3.715922176796     0.469461730406     0.745709507242     1.007825032230
         H            3.529116176796     0.152043730406    -0.986167492758     1.007825032230
         H            3.864300176796    -1.193432269594     0.131105507242     1.007825032230
         H           -3.673924823204    -0.599528269594    -0.696321492758     1.007825032230

  Basis Set: AUG-CC-PVTZ
    Blend: AUG-CC-PVTZ
  Basis Set: (AUG-CC-PVTZ AUX)
    Blend: AUG-CC-PVTZ-JKFIT
	 Reference Energy          =    -797.2958053478080274 [Eh]
	 Singles Energy            =      -0.0000000000000000 [Eh]
	 Same-Spin Energy          =      -0.4852569325723542 [Eh]
	 Opposite-Spin Energy      =      -1.5042743117218398 [Eh]
	 Correlation Energy        =      -1.9895312442941941 [Eh]
	 Total Energy              =    -799.2853365921022259 [Eh]

	 ================> DF-SCS-MP2 Energies <==================
	-----------------------------------------------------------
	 SCS Same-Spin Scale       =       0.3333333333333333 [-]
	 SCS Opposite-Spin Scale   =       1.2000000000000000 [-]
	 SCS Same-Spin Energy      =      -0.1617523108574514 [Eh]
	 SCS Opposite-Spin Energy  =      -1.8051291740662077 [Eh]
	 SCS Correlation Energy    =      -1.9668814849236591 [Eh]
	 SCS Total Energy          =    -799.2626868327316743 [Eh]
	-----------------------------------------------------------

  Dipole Moment: [D]
     X:     0.5115      Y:     3.5041      Z:    -0.6294     Total:     3.5967

*** Psi4 exiting successfully. Buy a developer a beer!
