                               Psi4 1.3.2 release

  ==> Input File <==

--------------------------------------------------------------------------
#psi4
#
memory 32 gb

molecule  {
0 1
  S       -1.4810231    -0.3604241    -1.0390658
  O        1.3948110    -1.6888110     0.5141610
  N        0.9516030     0.5158590     0.1032830
  C       -0.4318110     0.2636330     0.1956970
  C        1.3527330     1.8066140    -0.4558870
  C        1.8123640    -0.5701240     0.2233340
  C       -1.2481770     0.5074040     1.2784860
  C       -2.6022980     0.1802550     1.0222870
  C        3.2848510    -0.2882260     0.0069730
  C       -2.7981330    -0.3054580    -0.2520070
  H        0.6391180     2.5565960    -0.1121450
  H        1.3549250     1.8004410    -1.5532040
  H        2.3443270     2.0847450    -0.0978400
  H       -0.8644230     0.8946460     2.2167190
  H       -3.4051180     0.2883830     1.7439780
  H        3.6654260     0.4295190     0.7396260
  H        3.4786200     0.1121010    -0.9922510
  H        3.8138040    -1.2333750     0.1250220
  H       -3.7244210    -0.6394710    -0.7024050
units angstrom
no_reorient  #important for SAPT in psi4, default
symmetry c1  #important for SAPT in psi4, default
}

set PROPERTIES_ORIGIN ["COM"]
properties('MP2/aug-cc-pvtz', properties = ['dipole'])
--------------------------------------------------------------------------

    Molecular point group: c1
  Charge       = 0
  Multiplicity = 1
  Basis Set: AUG-CC-PVTZ
    Blend: AUG-CC-PVTZ
  Basis Set: (AUG-CC-PVTZ AUX)
    Blend: AUG-CC-PVTZ-JKFIT

    Orbital Energies [Eh]
    ---------------------

    Doubly Occupied:

       1A    -91.975937     2A    -20.523271     3A    -15.604750
       4A    -11.358424     5A    -11.289510     6A    -11.278039
       7A    -11.247046     8A    -11.243278     9A    -11.236254
      10A    -11.229770    11A     -8.981842    12A     -6.663487
      13A     -6.662048    14A     -6.661332    15A     -1.380331
      16A     -1.263481    17A     -1.190347    18A     -1.027228
      19A     -1.004013    20A     -0.977994    21A     -0.940977
      22A     -0.812136    23A     -0.765946    24A     -0.715998
      25A     -0.689483    26A     -0.680605    27A     -0.647581
      28A     -0.634486    29A     -0.591173    30A     -0.580545
      31A     -0.569665    32A     -0.565858    33A     -0.554047
      34A     -0.549820    35A     -0.534913    36A     -0.509652
      37A     -0.468146    38A     -0.427752    39A     -0.386359
      40A     -0.350691    41A     -0.314683

  @DF-RHF Final Energy:  -797.27350361197989

   => Energetics <=

    Nuclear Repulsion Energy =            610.1414009112874055
    One-Electron Energy =               -2304.6520159953770417
    Two-Electron Energy =                 897.2371114721098593
    Total Energy =                       -797.2735036119798906
  Basis Set: (AUG-CC-PVTZ AUX)
    Blend: AUG-CC-PVTZ-RI
    Molecular point group: c1

    Geometry (in Angstrom), charge = 0, multiplicity = 1:

       Center              X                  Y                   Z               Mass
    ------------   -----------------  -----------------  -----------------  -----------------
         S           -1.404124608191    -0.322754761762    -1.052313641724    31.972071174400
         O            1.471709491809    -1.651141661762     0.500913158276    15.994914619570
         N            1.028501491809     0.553528338238     0.090035158276    14.003074004430
         C           -0.354912508191     0.301302338238     0.182449158276    12.000000000000
         C            1.429631491809     1.844283338238    -0.469134841724    12.000000000000
         C            1.889262491809    -0.532454661762     0.210086158276    12.000000000000
         C           -1.171278508191     0.545073338238     1.265238158276    12.000000000000
         C           -2.525399508191     0.217924338238     1.009039158276    12.000000000000
         C            3.361749491809    -0.250556661762    -0.006274841724    12.000000000000
         C           -2.721234508191    -0.267788661762    -0.265254841724    12.000000000000
         H            0.716016491809     2.594265338238    -0.125392841724     1.007825032230
         H            1.431823491809     1.838110338238    -1.566451841724     1.007825032230
         H            2.421225491809     2.122414338238    -0.111087841724     1.007825032230
         H           -0.787524508191     0.932315338238     2.203471158276     1.007825032230
         H           -3.328219508191     0.326052338238     1.730730158276     1.007825032230
         H            3.742324491809     0.467188338238     0.726378158276     1.007825032230
         H            3.555518491809     0.149770338238    -1.005498841724     1.007825032230
         H            3.890702491809    -1.195705661762     0.111774158276     1.007825032230
         H           -3.647522508191    -0.601801661762    -0.715652841724     1.007825032230

  Basis Set: AUG-CC-PVTZ
    Blend: AUG-CC-PVTZ
  Basis Set: (AUG-CC-PVTZ AUX)
    Blend: AUG-CC-PVTZ-JKFIT
	 Reference Energy          =    -797.2735036119798906 [Eh]
	 Singles Energy            =      -0.0000000000000000 [Eh]
	 Same-Spin Energy          =      -0.4889415283045896 [Eh]
	 Opposite-Spin Energy      =      -1.5049344614441607 [Eh]
	 Correlation Energy        =      -1.9938759897487501 [Eh]
	 Total Energy              =    -799.2673796017286350 [Eh]

	 ================> DF-SCS-MP2 Energies <==================
	-----------------------------------------------------------
	 SCS Same-Spin Scale       =       0.3333333333333333 [-]
	 SCS Opposite-Spin Scale   =       1.2000000000000000 [-]
	 SCS Same-Spin Energy      =      -0.1629805094348632 [Eh]
	 SCS Opposite-Spin Energy  =      -1.8059213537329928 [Eh]
	 SCS Correlation Energy    =      -1.9689018631678561 [Eh]
	 SCS Total Energy          =    -799.2424054751477343 [Eh]
	-----------------------------------------------------------

  Dipole Moment: [D]
     X:     0.6933      Y:     3.4348      Z:    -0.7953     Total:     3.5932

*** Psi4 exiting successfully. Buy a developer a beer!
