                               Psi4 1.3.2 release

  ==> Input File <==

--------------------------------------------------------------------------
#psi4
#
memory 32 gb

molecule  {
0 1
  S       -1.3336960    -0.3724180    -1.1448160
  O        1.3948110    -1.6888110     0.5141610
  N        0.9516030     0.5158590     0.1032830
  C       -0.4516761     0.4084407     0.1758208
  C        1.3527330     1.8066140    -0.4558870
  C        1.8123640    -0.5701240     0.2233340
  C       -1.2481770     0.5074040     1.2784860
  C       -2.6022980     0.1802550     1.0222870
  C        3.2848510    -0.2882260     0.0069730
  C       -2.7981330    -0.3054580    -0.2520070
  H        0.6391180     2.5565960    -0.1121450
  H        1.3549250     1.8004410    -1.5532040
  H        2.3443270     2.0847450    -0.0978400
  H       -0.8644230     0.8946460     2.2167190
  H       -3.4051180     0.2883830     1.7439780
  H        3.6654260     0.4295190     0.7396260
  H        3.4786200     0.1121010    -0.9922510
  H        3.8138040    -1.2333750     0.1250220
  H       -3.7244210    -0.6394710    -0.7024050
units angstrom
no_reorient  #important for SAPT in psi4, default
symmetry c1  #important for SAPT in psi4, default
}

set PROPERTIES_ORIGIN ["COM"]
properties('MP2/aug-cc-pvtz', properties = ['dipole'])
--------------------------------------------------------------------------

    Molecular point group: c1
  Charge       = 0
  Multiplicity = 1
  Basis Set: AUG-CC-PVTZ
    Blend: AUG-CC-PVTZ
  Basis Set: (AUG-CC-PVTZ AUX)
    Blend: AUG-CC-PVTZ-JKFIT

    Orbital Energies [Eh]
    ---------------------

    Doubly Occupied:

       1A    -91.981322     2A    -20.523089     3A    -15.601570
       4A    -11.360155     5A    -11.296342     6A    -11.274624
       7A    -11.266129     8A    -11.244007     9A    -11.240960
      10A    -11.239353    11A     -8.981282    12A     -6.662207
      13A     -6.661671    14A     -6.660930    15A     -1.379078
      16A     -1.263656    17A     -1.158195    18A     -1.022980
      19A     -0.988858    20A     -0.977936    21A     -0.942062
      22A     -0.819106    23A     -0.763573    24A     -0.714997
      25A     -0.686389    26A     -0.677658    27A     -0.647666
      28A     -0.624862    29A     -0.591143    30A     -0.578668
      31A     -0.567974    32A     -0.565288    33A     -0.556490
      34A     -0.542858    35A     -0.512893    36A     -0.503910
      37A     -0.475566    38A     -0.427778    39A     -0.385023
      40A     -0.346146    41A     -0.323325

  @DF-RHF Final Energy:  -797.29127737904355

   => Energetics <=

    Nuclear Repulsion Energy =            605.6309553630997016
    One-Electron Energy =               -2295.7690246929732893
    Two-Electron Energy =                 892.8467919508300383
    Total Energy =                       -797.2912773790435494
  Basis Set: (AUG-CC-PVTZ AUX)
    Blend: AUG-CC-PVTZ-RI
    Molecular point group: c1

    Geometry (in Angstrom), charge = 0, multiplicity = 1:

       Center              X                  Y                   Z               Mass
    ------------   -----------------  -----------------  -----------------  -----------------
         S           -1.285641402252    -0.343483300168    -1.134717892315    31.972071174400
         O            1.442865597748    -1.659876300168     0.524259107685    15.994914619570
         N            0.999657597748     0.544793699832     0.113381107685    14.003074004430
         C           -0.403621502252     0.437375399832     0.185918907685    12.000000000000
         C            1.400787597748     1.835548699832    -0.445788892315    12.000000000000
         C            1.860418597748    -0.541189300168     0.233432107685    12.000000000000
         C           -1.200122402252     0.536338699832     1.288584107685    12.000000000000
         C           -2.554243402252     0.209189699832     1.032385107685    12.000000000000
         C            3.332905597748    -0.259291300168     0.017071107685    12.000000000000
         C           -2.750078402252    -0.276523300168    -0.241908892315    12.000000000000
         H            0.687172597748     2.585530699832    -0.102046892315     1.007825032230
         H            1.402979597748     1.829375699832    -1.543105892315     1.007825032230
         H            2.392381597748     2.113679699832    -0.087741892315     1.007825032230
         H           -0.816368402252     0.923580699832     2.226817107685     1.007825032230
         H           -3.357063402252     0.317317699832     1.754076107685     1.007825032230
         H            3.713480597748     0.458453699832     0.749724107685     1.007825032230
         H            3.526674597748     0.141035699832    -0.982152892315     1.007825032230
         H            3.861858597748    -1.204440300168     0.135120107685     1.007825032230
         H           -3.676366402252    -0.610536300168    -0.692306892315     1.007825032230

  Basis Set: AUG-CC-PVTZ
    Blend: AUG-CC-PVTZ
  Basis Set: (AUG-CC-PVTZ AUX)
    Blend: AUG-CC-PVTZ-JKFIT
	 Reference Energy          =    -797.2912773790435494 [Eh]
	 Singles Energy            =      -0.0000000000000000 [Eh]
	 Same-Spin Energy          =      -0.4866356931344298 [Eh]
	 Opposite-Spin Energy      =      -1.5064551853362729 [Eh]
	 Correlation Energy        =      -1.9930908784707027 [Eh]
	 Total Energy              =    -799.2843682575143021 [Eh]

	 ================> DF-SCS-MP2 Energies <==================
	-----------------------------------------------------------
	 SCS Same-Spin Scale       =       0.3333333333333333 [-]
	 SCS Opposite-Spin Scale   =       1.2000000000000000 [-]
	 SCS Same-Spin Energy      =      -0.1622118977114766 [Eh]
	 SCS Opposite-Spin Energy  =      -1.8077462224035274 [Eh]
	 SCS Correlation Energy    =      -1.9699581201150040 [Eh]
	 SCS Total Energy          =    -799.2612354991586017 [Eh]
	-----------------------------------------------------------

  Dipole Moment: [D]
     X:     0.6673      Y:     3.3741      Z:    -0.5411     Total:     3.4817

*** Psi4 exiting successfully. Buy a developer a beer!
