                               Psi4 1.3.2 release

  ==> Input File <==

--------------------------------------------------------------------------
#psi4
#
memory 32 gb

molecule  {
0 1
  S       -1.3336960    -0.3724180    -1.1448160
  O        1.3948110    -1.6888110     0.5141610
  N        0.9516030     0.5158590     0.1032830
  C       -0.4065140     0.2620504     0.1790857
  C        1.3527330     1.8066140    -0.4558870
  C        1.8123640    -0.5701240     0.2233340
  C       -1.2481770     0.5074040     1.2784860
  C       -2.6022980     0.1802550     1.0222870
  C        3.2848510    -0.2882260     0.0069730
  C       -2.7981330    -0.3054580    -0.2520070
  H        0.6391180     2.5565960    -0.1121450
  H        1.3549250     1.8004410    -1.5532040
  H        2.3443270     2.0847450    -0.0978400
  H       -0.8644230     0.8946460     2.2167190
  H       -3.4051180     0.2883830     1.7439780
  H        3.6654260     0.4295190     0.7396260
  H        3.4786200     0.1121010    -0.9922510
  H        3.8138040    -1.2333750     0.1250220
  H       -3.7244210    -0.6394710    -0.7024050
units angstrom
no_reorient  #important for SAPT in psi4, default
symmetry c1  #important for SAPT in psi4, default
}

set PROPERTIES_ORIGIN ["COM"]
properties('MP2/aug-cc-pvtz', properties = ['dipole'])
--------------------------------------------------------------------------

    Molecular point group: c1
  Charge       = 0
  Multiplicity = 1
  Basis Set: AUG-CC-PVTZ
    Blend: AUG-CC-PVTZ
  Basis Set: (AUG-CC-PVTZ AUX)
    Blend: AUG-CC-PVTZ-JKFIT

    Orbital Energies [Eh]
    ---------------------

    Doubly Occupied:

       1A    -91.982941     2A    -20.524367     3A    -15.602810
       4A    -11.359232     5A    -11.297634     6A    -11.278939
       7A    -11.262475     8A    -11.243719     9A    -11.240164
      10A    -11.238526    11A     -8.983186    12A     -6.664129
      13A     -6.663703    14A     -6.662930    15A     -1.382490
      16A     -1.269014    17A     -1.155345    18A     -1.023453
      19A     -0.985028    20A     -0.983136    21A     -0.941722
      22A     -0.818535    23A     -0.760627    24A     -0.713110
      25A     -0.688304    26A     -0.682035    27A     -0.649720
      28A     -0.625820    29A     -0.592082    30A     -0.580718
      31A     -0.567180    32A     -0.564029    33A     -0.556281
      34A     -0.548206    35A     -0.512631    36A     -0.504678
      37A     -0.476107    38A     -0.428677    39A     -0.386974
      40A     -0.344037    41A     -0.317055

  @DF-RHF Final Energy:  -797.29479157429910

   => Energetics <=

    Nuclear Repulsion Energy =            606.5135156581709452
    One-Electron Energy =               -2297.4931153602942686
    Two-Electron Energy =                 893.6848081278242262
    Total Energy =                       -797.2947915742990972
  Basis Set: (AUG-CC-PVTZ AUX)
    Blend: AUG-CC-PVTZ-RI
    Molecular point group: c1

    Geometry (in Angstrom), charge = 0, multiplicity = 1:

       Center              X                  Y                   Z               Mass
    ------------   -----------------  -----------------  -----------------  -----------------
         S           -1.289136909891    -0.332152817043    -1.134970592763    31.972071174400
         O            1.439370090109    -1.648545817043     0.524006407237    15.994914619570
         N            0.996162090109     0.556124182957     0.113128407237    14.003074004430
         C           -0.361954909891     0.302315582957     0.188931107237    12.000000000000
         C            1.397292090109     1.846879182957    -0.446041592763    12.000000000000
         C            1.856923090109    -0.529858817043     0.233179407237    12.000000000000
         C           -1.203617909891     0.547669182957     1.288331407237    12.000000000000
         C           -2.557738909891     0.220520182957     1.032132407237    12.000000000000
         C            3.329410090109    -0.247960817043     0.016818407237    12.000000000000
         C           -2.753573909891    -0.265192817043    -0.242161592763    12.000000000000
         H            0.683677090109     2.596861182957    -0.102299592763     1.007825032230
         H            1.399484090109     1.840706182957    -1.543358592763     1.007825032230
         H            2.388886090109     2.125010182957    -0.087994592763     1.007825032230
         H           -0.819863909891     0.934911182957     2.226564407237     1.007825032230
         H           -3.360558909891     0.328648182957     1.753823407237     1.007825032230
         H            3.709985090109     0.469784182957     0.749471407237     1.007825032230
         H            3.523179090109     0.152366182957    -0.982405592763     1.007825032230
         H            3.858363090109    -1.193109817043     0.134867407237     1.007825032230
         H           -3.679861909891    -0.599205817043    -0.692559592763     1.007825032230

  Basis Set: AUG-CC-PVTZ
    Blend: AUG-CC-PVTZ
  Basis Set: (AUG-CC-PVTZ AUX)
    Blend: AUG-CC-PVTZ-JKFIT
	 Reference Energy          =    -797.2947915742990972 [Eh]
	 Singles Energy            =      -0.0000000000000000 [Eh]
	 Same-Spin Energy          =      -0.4875584205656133 [Eh]
	 Opposite-Spin Energy      =      -1.5067272415356860 [Eh]
	 Correlation Energy        =      -1.9942856621012992 [Eh]
	 Total Energy              =    -799.2890772364004306 [Eh]

	 ================> DF-SCS-MP2 Energies <==================
	-----------------------------------------------------------
	 SCS Same-Spin Scale       =       0.3333333333333333 [-]
	 SCS Opposite-Spin Scale   =       1.2000000000000000 [-]
	 SCS Same-Spin Energy      =      -0.1625194735218711 [Eh]
	 SCS Opposite-Spin Energy  =      -1.8080726898428232 [Eh]
	 SCS Correlation Energy    =      -1.9705921633646943 [Eh]
	 SCS Total Energy          =    -799.2653837376637966 [Eh]
	-----------------------------------------------------------

  Dipole Moment: [D]
     X:     0.7659      Y:     3.4774      Z:    -0.6663     Total:     3.6226

*** Psi4 exiting successfully. Buy a developer a beer!
