                               Psi4 1.3.2 release

  ==> Input File <==

--------------------------------------------------------------------------
#psi4
#
memory 32 gb

molecule  {
0 1
  S       -1.3083155    -0.3727936    -1.1613710
  O        1.3948110    -1.6888110     0.5141610
  N        0.9516030     0.5158590     0.1032830
  C       -0.4318110     0.2636330     0.1956970
  C        1.3527330     1.8066140    -0.4558870
  C        1.8123640    -0.5701240     0.2233340
  C       -1.2481770     0.5074040     1.2784860
  C       -2.6022980     0.1802550     1.0222870
  C        3.2848510    -0.2882260     0.0069730
  C       -2.7981330    -0.3054580    -0.2520070
  H        0.6391180     2.5565960    -0.1121450
  H        1.3549250     1.8004410    -1.5532040
  H        2.3443270     2.0847450    -0.0978400
  H       -0.8644230     0.8946460     2.2167190
  H       -3.4051180     0.2883830     1.7439780
  H        3.6654260     0.4295190     0.7396260
  H        3.4786200     0.1121010    -0.9922510
  H        3.8138040    -1.2333750     0.1250220
  H       -3.7244210    -0.6394710    -0.7024050
units angstrom
no_reorient  #important for SAPT in psi4, default
symmetry c1  #important for SAPT in psi4, default
}

set PROPERTIES_ORIGIN ["COM"]
properties('MP2/aug-cc-pvtz', properties = ['dipole'])
--------------------------------------------------------------------------

    Molecular point group: c1
  Charge       = 0
  Multiplicity = 1
  Basis Set: AUG-CC-PVTZ
    Blend: AUG-CC-PVTZ
  Basis Set: (AUG-CC-PVTZ AUX)
    Blend: AUG-CC-PVTZ-JKFIT

    Orbital Energies [Eh]
    ---------------------

    Doubly Occupied:

       1A    -91.983544     2A    -20.522800     3A    -15.601905
       4A    -11.358049     5A    -11.297548     6A    -11.278036
       7A    -11.265393     8A    -11.242941     9A    -11.240633
      10A    -11.238135    11A     -8.983313    12A     -6.664251
      13A     -6.663731    14A     -6.662990    15A     -1.380258
      16A     -1.263138    17A     -1.155156    18A     -1.021493
      19A     -0.985279    20A     -0.982480    21A     -0.942280
      22A     -0.813445    23A     -0.762585    24A     -0.713772
      25A     -0.687721    26A     -0.680209    27A     -0.648187
      28A     -0.623622    29A     -0.591124    30A     -0.579464
      31A     -0.565922    32A     -0.563865    33A     -0.555872
      34A     -0.545170    35A     -0.512758    36A     -0.503715
      37A     -0.478330    38A     -0.427148    39A     -0.386853
      40A     -0.346489    41A     -0.320332

  @DF-RHF Final Energy:  -797.29684381579648

   => Energetics <=

    Nuclear Repulsion Energy =            605.9286402016492730
    One-Electron Energy =               -2296.3710946817477634
    Two-Electron Energy =                 893.1456106643021258
    Total Energy =                       -797.2968438157964783
  Basis Set: (AUG-CC-PVTZ AUX)
    Blend: AUG-CC-PVTZ-RI
    Molecular point group: c1

    Geometry (in Angstrom), charge = 0, multiplicity = 1:

       Center              X                  Y                   Z               Mass
    ------------   -----------------  -----------------  -----------------  -----------------
         S           -1.267032348767    -0.332573453602    -1.149397361301    31.972071174400
         O            1.436094151233    -1.648590853602     0.526134638699    15.994914619570
         N            0.992886151233     0.556079146398     0.115256638699    14.003074004430
         C           -0.390527848767     0.303853146398     0.207670638699    12.000000000000
         C            1.394016151233     1.846834146398    -0.443913361301    12.000000000000
         C            1.853647151233    -0.529903853602     0.235307638699    12.000000000000
         C           -1.206893848767     0.547624146398     1.290459638699    12.000000000000
         C           -2.561014848767     0.220475146398     1.034260638699    12.000000000000
         C            3.326134151233    -0.248005853602     0.018946638699    12.000000000000
         C           -2.756849848767    -0.265237853602    -0.240033361301    12.000000000000
         H            0.680401151233     2.596816146398    -0.100171361301     1.007825032230
         H            1.396208151233     1.840661146398    -1.541230361301     1.007825032230
         H            2.385610151233     2.124965146398    -0.085866361301     1.007825032230
         H           -0.823139848767     0.934866146398     2.228692638699     1.007825032230
         H           -3.363834848767     0.328603146398     1.755951638699     1.007825032230
         H            3.706709151233     0.469739146398     0.751599638699     1.007825032230
         H            3.519903151233     0.152321146398    -0.980277361301     1.007825032230
         H            3.855087151233    -1.193154853602     0.136995638699     1.007825032230
         H           -3.683137848767    -0.599250853602    -0.690431361301     1.007825032230

  Basis Set: AUG-CC-PVTZ
    Blend: AUG-CC-PVTZ
  Basis Set: (AUG-CC-PVTZ AUX)
    Blend: AUG-CC-PVTZ-JKFIT
	 Reference Energy          =    -797.2968438157964783 [Eh]
	 Singles Energy            =      -0.0000000000000000 [Eh]
	 Same-Spin Energy          =      -0.4864377757526178 [Eh]
	 Opposite-Spin Energy      =      -1.5060806245816751 [Eh]
	 Correlation Energy        =      -1.9925184003342928 [Eh]
	 Total Energy              =    -799.2893622161308258 [Eh]

	 ================> DF-SCS-MP2 Energies <==================
	-----------------------------------------------------------
	 SCS Same-Spin Scale       =       0.3333333333333333 [-]
	 SCS Opposite-Spin Scale   =       1.2000000000000000 [-]
	 SCS Same-Spin Energy      =      -0.1621459252508726 [Eh]
	 SCS Opposite-Spin Energy  =      -1.8072967494980101 [Eh]
	 SCS Correlation Energy    =      -1.9694426747488827 [Eh]
	 SCS Total Energy          =    -799.2662864905453262 [Eh]
	-----------------------------------------------------------

  Dipole Moment: [D]
     X:     0.6662      Y:     3.4942      Z:    -0.6289     Total:     3.6123

*** Psi4 exiting successfully. Buy a developer a beer!
