                               Psi4 1.3.2 release

  ==> Input File <==

--------------------------------------------------------------------------
#psi4
#
memory 32 gb

molecule  {
0 1
  S       -1.3336960    -0.3724180    -1.1448160
  O        1.3948110    -1.6888110     0.5141610
  N        0.9516030     0.5158590     0.1032830
  C       -0.4837522     0.2270016     0.1184943
  C        1.3527330     1.8066140    -0.4558870
  C        1.8123640    -0.5701240     0.2233340
  C       -1.2481770     0.5074040     1.2784860
  C       -2.6022980     0.1802550     1.0222870
  C        3.2848510    -0.2882260     0.0069730
  C       -2.7981330    -0.3054580    -0.2520070
  H        0.6391180     2.5565960    -0.1121450
  H        1.3549250     1.8004410    -1.5532040
  H        2.3443270     2.0847450    -0.0978400
  H       -0.8644230     0.8946460     2.2167190
  H       -3.4051180     0.2883830     1.7439780
  H        3.6654260     0.4295190     0.7396260
  H        3.4786200     0.1121010    -0.9922510
  H        3.8138040    -1.2333750     0.1250220
  H       -3.7244210    -0.6394710    -0.7024050
units angstrom
no_reorient  #important for SAPT in psi4, default
symmetry c1  #important for SAPT in psi4, default
}

set PROPERTIES_ORIGIN ["COM"]
properties('MP2/aug-cc-pvtz', properties = ['dipole'])
--------------------------------------------------------------------------

    Molecular point group: c1
  Charge       = 0
  Multiplicity = 1
  Basis Set: AUG-CC-PVTZ
    Blend: AUG-CC-PVTZ
  Basis Set: (AUG-CC-PVTZ AUX)
    Blend: AUG-CC-PVTZ-JKFIT

    Orbital Energies [Eh]
    ---------------------

    Doubly Occupied:

       1A    -91.990328     2A    -20.520245     3A    -15.600808
       4A    -11.355464     5A    -11.297262     6A    -11.275822
       7A    -11.259535     8A    -11.241339     9A    -11.240386
      10A    -11.238916    11A     -8.992389    12A     -6.673550
      13A     -6.672845    14A     -6.672037    15A     -1.376520
      16A     -1.252702    17A     -1.168305    18A     -1.018134
      19A     -0.998429    20A     -0.976684    21A     -0.939555
      22A     -0.801487    23A     -0.762563    24A     -0.715556
      25A     -0.686238    26A     -0.676728    27A     -0.644325
      28A     -0.623506    29A     -0.589221    30A     -0.577265
      31A     -0.563660    32A     -0.561303    33A     -0.553791
      34A     -0.541029    35A     -0.523606    36A     -0.506090
      37A     -0.487861    38A     -0.424864    39A     -0.387409
      40A     -0.349727    41A     -0.316545

  @DF-RHF Final Energy:  -797.28653300662631

   => Energetics <=

    Nuclear Repulsion Energy =            607.0569201216709416
    One-Electron Energy =               -2298.5788436743910097
    Two-Electron Energy =                 894.2353905460938677
    Total Energy =                       -797.2865330066263141
  Basis Set: (AUG-CC-PVTZ AUX)
    Blend: AUG-CC-PVTZ-RI
    Molecular point group: c1

    Geometry (in Angstrom), charge = 0, multiplicity = 1:

       Center              X                  Y                   Z               Mass
    ------------   -----------------  -----------------  -----------------  -----------------
         S           -1.283158739741    -0.329440070112    -1.130280870594    31.972071174400
         O            1.445348260259    -1.645833070112     0.528696129406    15.994914619570
         N            1.002140260259     0.558836929888     0.117818129406    14.003074004430
         C           -0.433214939741     0.269979529888     0.133029429406    12.000000000000
         C            1.403270260259     1.849591929888    -0.441351870594    12.000000000000
         C            1.862901260259    -0.527146070112     0.237869129406    12.000000000000
         C           -1.197639739741     0.550381929888     1.293021129406    12.000000000000
         C           -2.551760739741     0.223232929888     1.036822129406    12.000000000000
         C            3.335388260259    -0.245248070112     0.021508129406    12.000000000000
         C           -2.747595739741    -0.262480070112    -0.237471870594    12.000000000000
         H            0.689655260259     2.599573929888    -0.097609870594     1.007825032230
         H            1.405462260259     1.843418929888    -1.538668870594     1.007825032230
         H            2.394864260259     2.127722929888    -0.083304870594     1.007825032230
         H           -0.813885739741     0.937623929888     2.231254129406     1.007825032230
         H           -3.354580739741     0.331360929888     1.758513129406     1.007825032230
         H            3.715963260259     0.472496929888     0.754161129406     1.007825032230
         H            3.529157260259     0.155078929888    -0.977715870594     1.007825032230
         H            3.864341260259    -1.190397070112     0.139557129406     1.007825032230
         H           -3.673883739741    -0.596493070112    -0.687869870594     1.007825032230

  Basis Set: AUG-CC-PVTZ
    Blend: AUG-CC-PVTZ
  Basis Set: (AUG-CC-PVTZ AUX)
    Blend: AUG-CC-PVTZ-JKFIT
	 Reference Energy          =    -797.2865330066263141 [Eh]
	 Singles Energy            =      -0.0000000000000000 [Eh]
	 Same-Spin Energy          =      -0.4879544038629873 [Eh]
	 Opposite-Spin Energy      =      -1.5066674225649721 [Eh]
	 Correlation Energy        =      -1.9946218264279594 [Eh]
	 Total Energy              =    -799.2811548330543019 [Eh]

	 ================> DF-SCS-MP2 Energies <==================
	-----------------------------------------------------------
	 SCS Same-Spin Scale       =       0.3333333333333333 [-]
	 SCS Opposite-Spin Scale   =       1.2000000000000000 [-]
	 SCS Same-Spin Energy      =      -0.1626514679543291 [Eh]
	 SCS Opposite-Spin Energy  =      -1.8080009070779663 [Eh]
	 SCS Correlation Energy    =      -1.9706523750322955 [Eh]
	 SCS Total Energy          =    -799.2571853816585872 [Eh]
	-----------------------------------------------------------

  Dipole Moment: [D]
     X:     0.4495      Y:     3.4137      Z:    -0.8529     Total:     3.5472

*** Psi4 exiting successfully. Buy a developer a beer!
