                               Psi4 1.4a3.dev225

  ==> Input File <==

--------------------------------------------------------------------------
#psi4
#
memory 32 gb

molecule  {
0 1
  S       -1.3336960    -0.3724180    -1.1448160
  O        1.3948110    -1.6888110     0.5141610
  N        0.9516030     0.5158590     0.1032830
  C       -0.3827277     0.2725819     0.1924182
  C        1.3527330     1.8066140    -0.4558870
  C        1.8123640    -0.5701240     0.2233340
  C       -1.2481770     0.5074040     1.2784860
  C       -2.6022980     0.1802550     1.0222870
  C        3.2848510    -0.2882260     0.0069730
  C       -2.7981330    -0.3054580    -0.2520070
  H        0.6391180     2.5565960    -0.1121450
  H        1.3549250     1.8004410    -1.5532040
  H        2.3443270     2.0847450    -0.0978400
  H       -0.8644230     0.8946460     2.2167190
  H       -3.4051180     0.2883830     1.7439780
  H        3.6654260     0.4295190     0.7396260
  H        3.4786200     0.1121010    -0.9922510
  H        3.8138040    -1.2333750     0.1250220
  H       -3.7244210    -0.6394710    -0.7024050
units angstrom
no_reorient  #important for SAPT in psi4, default
symmetry c1  #important for SAPT in psi4, default
}

set PROPERTIES_ORIGIN ["COM"]
properties('MP2/aug-cc-pvtz', properties = ['dipole'])
--------------------------------------------------------------------------

    Molecular point group: c1
  Charge       = 0
  Multiplicity = 1
  Basis Set: AUG-CC-PVTZ
    Blend: AUG-CC-PVTZ
  Basis Set: (AUG-CC-PVTZ AUX)
    Blend: AUG-CC-PVTZ-JKFIT

    Orbital Energies [Eh]
    ---------------------

    Doubly Occupied:

       1A    -91.980445     2A    -20.525920     3A    -15.603526
       4A    -11.360572     5A    -11.298091     6A    -11.279989
       7A    -11.263029     8A    -11.244588     9A    -11.240840
      10A    -11.238115    11A     -8.980375    12A     -6.661307
      13A     -6.660861    14A     -6.660130    15A     -1.384777
      16A     -1.275160    17A     -1.151749    18A     -1.025536
      19A     -0.984936    20A     -0.981684    21A     -0.941807
      22A     -0.824087    23A     -0.760012    24A     -0.712461
      25A     -0.688796    26A     -0.683847    27A     -0.651649
      28A     -0.626587    29A     -0.593110    30A     -0.582007
      31A     -0.569449    32A     -0.565603    33A     -0.558494
      34A     -0.547112    35A     -0.509641    36A     -0.503852
      37A     -0.472675    38A     -0.430077    39A     -0.385948
      40A     -0.342740    41A     -0.315925

  @DF-RHF Final Energy:  -797.29235295718104

   => Energetics <=

    Nuclear Repulsion Energy =            606.4146145578921505
    One-Electron Energy =               -2297.2789051590912095
    Two-Electron Energy =                 893.5719376440181350
    Total Energy =                       -797.2923529571810377
  Basis Set: (AUG-CC-PVTZ AUX)
    Blend: AUG-CC-PVTZ-RI
    Molecular point group: c1

    Geometry (in Angstrom), charge = 0, multiplicity = 1:

       Center              X                  Y                   Z               Mass
    ------------   -----------------  -----------------  -----------------  -----------------
         S           -1.290977949023    -0.332967946071    -1.136002516779    31.972071174400
         O            1.437529050977    -1.649360946071     0.522974483221    15.994914619570
         N            0.994321050977     0.555309053929     0.112096483221    14.003074004430
         C           -0.340009649023     0.312031953929     0.201231683221    12.000000000000
         C            1.395451050977     1.846064053929    -0.447073516779    12.000000000000
         C            1.855082050977    -0.530673946071     0.232147483221    12.000000000000
         C           -1.205458949023     0.546854053929     1.287299483221    12.000000000000
         C           -2.559579949023     0.219705053929     1.031100483221    12.000000000000
         C            3.327569050977    -0.248775946071     0.015786483221    12.000000000000
         C           -2.755414949023    -0.266007946071    -0.243193516779    12.000000000000
         H            0.681836050977     2.596046053929    -0.103331516779     1.007825032230
         H            1.397643050977     1.839891053929    -1.544390516779     1.007825032230
         H            2.387045050977     2.124195053929    -0.089026516779     1.007825032230
         H           -0.821704949023     0.934096053929     2.225532483221     1.007825032230
         H           -3.362399949023     0.327833053929     1.752791483221     1.007825032230
         H            3.708144050977     0.468969053929     0.748439483221     1.007825032230
         H            3.521338050977     0.151551053929    -0.983437516779     1.007825032230
         H            3.856522050977    -1.193924946071     0.133835483221     1.007825032230
         H           -3.681702949023    -0.600020946071    -0.693591516779     1.007825032230

  Basis Set: AUG-CC-PVTZ
    Blend: AUG-CC-PVTZ
  Basis Set: (AUG-CC-PVTZ AUX)
    Blend: AUG-CC-PVTZ-JKFIT
	 Reference Energy          =    -797.2923529571810377 [Eh]
	 Singles Energy            =      -0.0000000000000000 [Eh]
	 Same-Spin Energy          =      -0.4877880809685457 [Eh]
	 Opposite-Spin Energy      =      -1.5071829170585569 [Eh]
	 Correlation Energy        =      -1.9949709980271026 [Eh]
	 Total Energy              =    -799.2873239552081941 [Eh]

	 ================> DF-SCS-MP2 Energies <==================
	-----------------------------------------------------------
	 SCS Same-Spin Scale       =       0.3333333333333333 [-]
	 SCS Opposite-Spin Scale   =       1.2000000000000000 [-]
	 SCS Same-Spin Energy      =      -0.1625960269895152 [Eh]
	 SCS Opposite-Spin Energy  =      -1.8086195004702681 [Eh]
	 SCS Correlation Energy    =      -1.9712155274597833 [Eh]
	 SCS Total Energy          =    -799.2635684846408139 [Eh]
	-----------------------------------------------------------

  Dipole Moment: [D]
     X:     0.8863      Y:     3.4944      Z:    -0.6123     Total:     3.6567

*** Psi4 exiting successfully. Buy a developer a beer!
