                               Psi4 1.3.2 release

  ==> Input File <==

--------------------------------------------------------------------------
#psi4
#
memory 32 gb

molecule  {
0 1
  S       -1.3336960    -0.3724180    -1.1448160
  O        1.3948110    -1.6888110     0.5141610
  N        0.9516030     0.5158590     0.1032830
  C       -0.4318110     0.2636330     0.1956970
  C        1.3527330     1.8066140    -0.4558870
  C        1.8123640    -0.5701240     0.2233340
  C       -1.2481770     0.5074040     1.2784860
  C       -2.6022980     0.1802550     1.0222870
  C        3.2848510    -0.2882260     0.0069730
  C       -2.7981330    -0.3054580    -0.2520070
  H        0.6391180     2.5565960    -0.1121450
  H        1.3549250     1.8004410    -1.5532040
  H        2.3443270     2.0847450    -0.0978400
  H       -0.8644230     0.8946460     2.2167190
  H       -3.4051180     0.2883830     1.7439780
  H        3.6654260     0.4295190     0.7396260
  H        3.4786200     0.1121010    -0.9922510
  H        3.8138040    -1.2333750     0.1250220
  H       -3.7244210    -0.6394710    -0.7024050
units angstrom
no_reorient  #important for SAPT in psi4, default
symmetry c1  #important for SAPT in psi4, default
}

set PROPERTIES_ORIGIN ["COM"]
properties('MP2/aug-cc-pvtz', properties = ['dipole'])
--------------------------------------------------------------------------

    Molecular point group: c1
  Charge       = 0
  Multiplicity = 1
  Basis Set: AUG-CC-PVTZ
    Blend: AUG-CC-PVTZ
  Basis Set: (AUG-CC-PVTZ AUX)
    Blend: AUG-CC-PVTZ-JKFIT

    Orbital Energies [Eh]
    ---------------------

    Doubly Occupied:

       1A    -91.982751     2A    -20.522920     3A    -15.602363
       4A    -11.358155     5A    -11.296539     6A    -11.278080
       7A    -11.262906     8A    -11.243025     9A    -11.239221
      10A    -11.237736    11A     -8.983124    12A     -6.664081
      13A     -6.663607    14A     -6.662821    15A     -1.380315
      16A     -1.263126    17A     -1.158874    18A     -1.021709
      19A     -0.987549    20A     -0.982557    21A     -0.942223
      22A     -0.813292    23A     -0.762528    24A     -0.714503
      25A     -0.687898    26A     -0.680300    27A     -0.648117
      28A     -0.624764    29A     -0.591169    30A     -0.579601
      31A     -0.566132    32A     -0.564001    33A     -0.555216
      34A     -0.546495    35A     -0.515206    36A     -0.504814
      37A     -0.478047    38A     -0.427297    39A     -0.387008
      40A     -0.345751    41A     -0.320661

  @DF-RHF Final Energy:  -797.29772030759807

   => Energetics <=

    Nuclear Repulsion Energy =            606.4187141018238663
    One-Electron Energy =               -2297.3399138981803844
    Two-Electron Energy =                 893.6234794887585622
    Total Energy =                       -797.2977203075980697
  Basis Set: (AUG-CC-PVTZ AUX)
    Blend: AUG-CC-PVTZ-RI
    Molecular point group: c1

    Geometry (in Angstrom), charge = 0, multiplicity = 1:

       Center              X                  Y                   Z               Mass
    ------------   -----------------  -----------------  -----------------  -----------------
         S           -1.287178943881    -0.332275308919    -1.136256293075    31.972071174400
         O            1.441328056119    -1.648668308919     0.522720706925    15.994914619570
         N            0.998120056119     0.556001691081     0.111842706925    14.003074004430
         C           -0.385293943881     0.303775691081     0.204256706925    12.000000000000
         C            1.399250056119     1.846756691081    -0.447327293075    12.000000000000
         C            1.858881056119    -0.529981308919     0.231893706925    12.000000000000
         C           -1.201659943881     0.547546691081     1.287045706925    12.000000000000
         C           -2.555780943881     0.220397691081     1.030846706925    12.000000000000
         C            3.331368056119    -0.248083308919     0.015532706925    12.000000000000
         C           -2.751615943881    -0.265315308919    -0.243447293075    12.000000000000
         H            0.685635056119     2.596738691081    -0.103585293075     1.007825032230
         H            1.401442056119     1.840583691081    -1.544644293075     1.007825032230
         H            2.390844056119     2.124887691081    -0.089280293075     1.007825032230
         H           -0.817905943881     0.934788691081     2.225278706925     1.007825032230
         H           -3.358600943881     0.328525691081     1.752537706925     1.007825032230
         H            3.711943056119     0.469661691081     0.748185706925     1.007825032230
         H            3.525137056119     0.152243691081    -0.983691293075     1.007825032230
         H            3.860321056119    -1.193232308919     0.133581706925     1.007825032230
         H           -3.677903943881    -0.599328308919    -0.693845293075     1.007825032230

  Basis Set: AUG-CC-PVTZ
    Blend: AUG-CC-PVTZ
  Basis Set: (AUG-CC-PVTZ AUX)
    Blend: AUG-CC-PVTZ-JKFIT
	 Reference Energy          =    -797.2977203075980697 [Eh]
	 Singles Energy            =      -0.0000000000000000 [Eh]
	 Same-Spin Energy          =      -0.4866990282746880 [Eh]
	 Opposite-Spin Energy      =      -1.5057499325795065 [Eh]
	 Correlation Energy        =      -1.9924489608541944 [Eh]
	 Total Energy              =    -799.2901692684522459 [Eh]

	 ================> DF-SCS-MP2 Energies <==================
	-----------------------------------------------------------
	 SCS Same-Spin Scale       =       0.3333333333333333 [-]
	 SCS Opposite-Spin Scale   =       1.2000000000000000 [-]
	 SCS Same-Spin Energy      =      -0.1622330094248960 [Eh]
	 SCS Opposite-Spin Energy  =      -1.8068999190954078 [Eh]
	 SCS Correlation Energy    =      -1.9691329285203039 [Eh]
	 SCS Total Energy          =    -799.2668532361183225 [Eh]
	-----------------------------------------------------------

  Dipole Moment: [D]
     X:     0.6810      Y:     3.4859      Z:    -0.6560     Total:     3.6118

*** Psi4 exiting successfully. Buy a developer a beer!
