                               Psi4 1.3.2 release

  ==> Input File <==

--------------------------------------------------------------------------
#psi4
#
memory 32 gb

molecule  {
0 1
  S       -1.3336960    -0.3724180    -1.1448160
  O        1.3948110    -1.6888110     0.5141610
  N        0.9513300     0.5245824     0.1262782
  C       -0.4318110     0.2636330     0.1956970
  C        1.3527330     1.8066140    -0.4558870
  C        1.8123640    -0.5701240     0.2233340
  C       -1.2481770     0.5074040     1.2784860
  C       -2.6022980     0.1802550     1.0222870
  C        3.2848510    -0.2882260     0.0069730
  C       -2.7981330    -0.3054580    -0.2520070
  H        0.6391180     2.5565960    -0.1121450
  H        1.3549250     1.8004410    -1.5532040
  H        2.3443270     2.0847450    -0.0978400
  H       -0.8644230     0.8946460     2.2167190
  H       -3.4051180     0.2883830     1.7439780
  H        3.6654260     0.4295190     0.7396260
  H        3.4786200     0.1121010    -0.9922510
  H        3.8138040    -1.2333750     0.1250220
  H       -3.7244210    -0.6394710    -0.7024050
units angstrom
no_reorient  #important for SAPT in psi4, default
symmetry c1  #important for SAPT in psi4, default
}

set PROPERTIES_ORIGIN ["COM"]
properties('MP2/aug-cc-pvtz', properties = ['dipole'])
--------------------------------------------------------------------------

    Molecular point group: c1
  Charge       = 0
  Multiplicity = 1
  Basis Set: AUG-CC-PVTZ
    Blend: AUG-CC-PVTZ
  Basis Set: (AUG-CC-PVTZ AUX)
    Blend: AUG-CC-PVTZ-JKFIT

    Orbital Energies [Eh]
    ---------------------

    Doubly Occupied:

       1A    -91.983111     2A    -20.524343     3A    -15.602342
       4A    -11.358841     5A    -11.296036     6A    -11.277741
       7A    -11.262901     8A    -11.243314     9A    -11.238970
      10A    -11.237112    11A     -8.983445    12A     -6.664403
      13A     -6.663945    14A     -6.663150    15A     -1.380639
      16A     -1.262476    17A     -1.158609    18A     -1.021751
      19A     -0.987495    20A     -0.982136    21A     -0.941312
      22A     -0.812445    23A     -0.762009    24A     -0.714450
      25A     -0.687955    26A     -0.680229    27A     -0.647103
      28A     -0.624742    29A     -0.591537    30A     -0.579328
      31A     -0.566296    32A     -0.563979    33A     -0.553999
      34A     -0.547085    35A     -0.515145    36A     -0.504861
      37A     -0.478274    38A     -0.427990    39A     -0.387807
      40A     -0.345694    41A     -0.320444

  @DF-RHF Final Energy:  -797.29728980295465

   => Energetics <=

    Nuclear Repulsion Energy =            606.2477210881195333
    One-Electron Energy =               -2296.9991320158592316
    Two-Electron Energy =                 893.4541211247850470
    Total Energy =                       -797.2972898029546513
  Basis Set: (AUG-CC-PVTZ AUX)
    Blend: AUG-CC-PVTZ-RI
    Molecular point group: c1

    Geometry (in Angstrom), charge = 0, multiplicity = 1:

       Center              X                  Y                   Z               Mass
    ------------   -----------------  -----------------  -----------------  -----------------
         S           -1.287154286843    -0.333063196133    -1.138333192455    31.972071174400
         O            1.441352713157    -1.649456196133     0.520643807545    15.994914619570
         N            0.997871713157     0.563937203867     0.132761007545    14.003074004430
         C           -0.385269286843     0.302987803867     0.202179807545    12.000000000000
         C            1.399274713157     1.845968803867    -0.449404192455    12.000000000000
         C            1.858905713157    -0.530769196133     0.229816807545    12.000000000000
         C           -1.201635286843     0.546758803867     1.284968807545    12.000000000000
         C           -2.555756286843     0.219609803867     1.028769807545    12.000000000000
         C            3.331392713157    -0.248871196133     0.013455807545    12.000000000000
         C           -2.751591286843    -0.266103196133    -0.245524192455    12.000000000000
         H            0.685659713157     2.595950803867    -0.105662192455     1.007825032230
         H            1.401466713157     1.839795803867    -1.546721192455     1.007825032230
         H            2.390868713157     2.124099803867    -0.091357192455     1.007825032230
         H           -0.817881286843     0.934000803867     2.223201807545     1.007825032230
         H           -3.358576286843     0.327737803867     1.750460807545     1.007825032230
         H            3.711967713157     0.468873803867     0.746108807545     1.007825032230
         H            3.525161713157     0.151455803867    -0.985768192455     1.007825032230
         H            3.860345713157    -1.194020196133     0.131504807545     1.007825032230
         H           -3.677879286843    -0.600116196133    -0.695922192455     1.007825032230

  Basis Set: AUG-CC-PVTZ
    Blend: AUG-CC-PVTZ
  Basis Set: (AUG-CC-PVTZ AUX)
    Blend: AUG-CC-PVTZ-JKFIT
	 Reference Energy          =    -797.2972898029546513 [Eh]
	 Singles Energy            =      -0.0000000000000000 [Eh]
	 Same-Spin Energy          =      -0.4866875898670256 [Eh]
	 Opposite-Spin Energy      =      -1.5058225872328270 [Eh]
	 Correlation Energy        =      -1.9925101770998526 [Eh]
	 Total Energy              =    -799.2897999800544540 [Eh]

	 ================> DF-SCS-MP2 Energies <==================
	-----------------------------------------------------------
	 SCS Same-Spin Scale       =       0.3333333333333333 [-]
	 SCS Opposite-Spin Scale   =       1.2000000000000000 [-]
	 SCS Same-Spin Energy      =      -0.1622291966223419 [Eh]
	 SCS Opposite-Spin Energy  =      -1.8069871046793924 [Eh]
	 SCS Correlation Energy    =      -1.9692163013017343 [Eh]
	 SCS Total Energy          =    -799.2665061042563366 [Eh]
	-----------------------------------------------------------

  Dipole Moment: [D]
     X:     0.6997      Y:     3.4389      Z:    -0.6784     Total:     3.5743

*** Psi4 exiting successfully. Buy a developer a beer!
