                               Psi4 1.3.2 release

  ==> Input File <==

--------------------------------------------------------------------------
#psi4
#
memory 32 gb

molecule  {
0 1
  S       -1.3336960    -0.3724180    -1.1448160
  O        1.3948110    -1.6888110     0.5141610
  N        0.9516030     0.5158590     0.1032830
  C       -0.4269212     0.2415702     0.2054066
  C        1.3527330     1.8066140    -0.4558870
  C        1.8123640    -0.5701240     0.2233340
  C       -1.2481770     0.5074040     1.2784860
  C       -2.6022980     0.1802550     1.0222870
  C        3.2848510    -0.2882260     0.0069730
  C       -2.7981330    -0.3054580    -0.2520070
  H        0.6391180     2.5565960    -0.1121450
  H        1.3549250     1.8004410    -1.5532040
  H        2.3443270     2.0847450    -0.0978400
  H       -0.8644230     0.8946460     2.2167190
  H       -3.4051180     0.2883830     1.7439780
  H        3.6654260     0.4295190     0.7396260
  H        3.4786200     0.1121010    -0.9922510
  H        3.8138040    -1.2333750     0.1250220
  H       -3.7244210    -0.6394710    -0.7024050
units angstrom
no_reorient  #important for SAPT in psi4, default
symmetry c1  #important for SAPT in psi4, default
}

set PROPERTIES_ORIGIN ["COM"]
properties('MP2/aug-cc-pvtz', properties = ['dipole'])
--------------------------------------------------------------------------

    Molecular point group: c1
  Charge       = 0
  Multiplicity = 1
  Basis Set: AUG-CC-PVTZ
    Blend: AUG-CC-PVTZ
  Basis Set: (AUG-CC-PVTZ AUX)
    Blend: AUG-CC-PVTZ-JKFIT

    Orbital Energies [Eh]
    ---------------------

    Doubly Occupied:

       1A    -91.982451     2A    -20.522901     3A    -15.602486
       4A    -11.357843     5A    -11.296736     6A    -11.278676
       7A    -11.262837     8A    -11.242852     9A    -11.239132
      10A    -11.237534    11A     -8.982810    12A     -6.663768
      13A     -6.663292    14A     -6.662509    15A     -1.380565
      16A     -1.263001    17A     -1.158649    18A     -1.021565
      19A     -0.987398    20A     -0.983042    21A     -0.942227
      22A     -0.812306    23A     -0.762375    24A     -0.714479
      25A     -0.688357    26A     -0.680508    27A     -0.648242
      28A     -0.624802    29A     -0.591172    30A     -0.579769
      31A     -0.566033    32A     -0.563962    33A     -0.555433
      34A     -0.546484    35A     -0.514981    36A     -0.504660
      37A     -0.477703    38A     -0.427219    39A     -0.387078
      40A     -0.345718    41A     -0.320503

  @DF-RHF Final Energy:  -797.29748957665936

   => Energetics <=

    Nuclear Repulsion Energy =            606.4518223451178756
    One-Electron Energy =               -2297.4105101892405401
    Two-Electron Energy =                 893.6611982674634191
    Total Energy =                       -797.2974895766593590
  Basis Set: (AUG-CC-PVTZ AUX)
    Blend: AUG-CC-PVTZ-RI
    Molecular point group: c1

    Geometry (in Angstrom), charge = 0, multiplicity = 1:

       Center              X                  Y                   Z               Mass
    ------------   -----------------  -----------------  -----------------  -----------------
         S           -1.287557410189    -0.330567667203    -1.137007807751    31.972071174400
         O            1.440949589811    -1.646960667203     0.521969192249    15.994914619570
         N            0.997741589811     0.557709332797     0.111091192249    14.003074004430
         C           -0.380782610189     0.283420532797     0.213214792249    12.000000000000
         C            1.398871589811     1.848464332797    -0.448078807751    12.000000000000
         C            1.858502589811    -0.528273667203     0.231142192249    12.000000000000
         C           -1.202038410189     0.549254332797     1.286294192249    12.000000000000
         C           -2.556159410189     0.222105332797     1.030095192249    12.000000000000
         C            3.330989589811    -0.246375667203     0.014781192249    12.000000000000
         C           -2.751994410189    -0.263607667203    -0.244198807751    12.000000000000
         H            0.685256589811     2.598446332797    -0.104336807751     1.007825032230
         H            1.401063589811     1.842291332797    -1.545395807751     1.007825032230
         H            2.390465589811     2.126595332797    -0.090031807751     1.007825032230
         H           -0.818284410189     0.936496332797     2.224527192249     1.007825032230
         H           -3.358979410189     0.330233332797     1.751786192249     1.007825032230
         H            3.711564589811     0.471369332797     0.747434192249     1.007825032230
         H            3.524758589811     0.153951332797    -0.984442807751     1.007825032230
         H            3.859942589811    -1.191524667203     0.132830192249     1.007825032230
         H           -3.678282410189    -0.597620667203    -0.694596807751     1.007825032230

  Basis Set: AUG-CC-PVTZ
    Blend: AUG-CC-PVTZ
  Basis Set: (AUG-CC-PVTZ AUX)
    Blend: AUG-CC-PVTZ-JKFIT
	 Reference Energy          =    -797.2974895766593590 [Eh]
	 Singles Energy            =      -0.0000000000000000 [Eh]
	 Same-Spin Energy          =      -0.4866962484571483 [Eh]
	 Opposite-Spin Energy      =      -1.5057683994119921 [Eh]
	 Correlation Energy        =      -1.9924646478691403 [Eh]
	 Total Energy              =    -799.2899542245285147 [Eh]

	 ================> DF-SCS-MP2 Energies <==================
	-----------------------------------------------------------
	 SCS Same-Spin Scale       =       0.3333333333333333 [-]
	 SCS Opposite-Spin Scale   =       1.2000000000000000 [-]
	 SCS Same-Spin Energy      =      -0.1622320828190494 [Eh]
	 SCS Opposite-Spin Energy  =      -1.8069220792943905 [Eh]
	 SCS Correlation Energy    =      -1.9691541621134399 [Eh]
	 SCS Total Energy          =    -799.2666437387728138 [Eh]
	-----------------------------------------------------------

  Dipole Moment: [D]
     X:     0.6855      Y:     3.5097      Z:    -0.6572     Total:     3.6359

*** Psi4 exiting successfully. Buy a developer a beer!
