                               Psi4 1.3.2 release

  ==> Input File <==

--------------------------------------------------------------------------
#psi4
#
memory 32 gb

molecule  {
0 1
  S       -1.4331141    -0.3651898    -1.0758794
  O        1.3948110    -1.6888110     0.5141610
  N        0.9516030     0.5158590     0.1032830
  C       -0.4318110     0.2636330     0.1956970
  C        1.3527330     1.8066140    -0.4558870
  C        1.8123640    -0.5701240     0.2233340
  C       -1.2481770     0.5074040     1.2784860
  C       -2.6022980     0.1802550     1.0222870
  C        3.2848510    -0.2882260     0.0069730
  C       -2.7981330    -0.3054580    -0.2520070
  H        0.6391180     2.5565960    -0.1121450
  H        1.3549250     1.8004410    -1.5532040
  H        2.3443270     2.0847450    -0.0978400
  H       -0.8644230     0.8946460     2.2167190
  H       -3.4051180     0.2883830     1.7439780
  H        3.6654260     0.4295190     0.7396260
  H        3.4786200     0.1121010    -0.9922510
  H        3.8138040    -1.2333750     0.1250220
  H       -3.7244210    -0.6394710    -0.7024050
units angstrom
no_reorient  #important for SAPT in psi4, default
symmetry c1  #important for SAPT in psi4, default
}

set PROPERTIES_ORIGIN ["COM"]
properties('MP2/aug-cc-pvtz', properties = ['dipole'])
--------------------------------------------------------------------------

    Molecular point group: c1
  Charge       = 0
  Multiplicity = 1
  Basis Set: AUG-CC-PVTZ
    Blend: AUG-CC-PVTZ
  Basis Set: (AUG-CC-PVTZ AUX)
    Blend: AUG-CC-PVTZ-JKFIT

    Orbital Energies [Eh]
    ---------------------

    Doubly Occupied:

       1A    -91.978646     2A    -20.523228     3A    -15.604036
       4A    -11.358409     5A    -11.292063     6A    -11.278118
       7A    -11.252488     8A    -11.243246     9A    -11.236855
      10A    -11.232791    11A     -8.982277    12A     -6.663583
      13A     -6.662709    14A     -6.661918    15A     -1.380392
      16A     -1.263233    17A     -1.177978    18A     -1.024275
      19A     -0.999268    20A     -0.979668    21A     -0.941592
      22A     -0.812567    23A     -0.764036    24A     -0.716157
      25A     -0.688836    26A     -0.680554    27A     -0.647755
      28A     -0.630705    29A     -0.591228    30A     -0.580186
      31A     -0.567957    32A     -0.565198    33A     -0.553509
      34A     -0.550119    35A     -0.527332    36A     -0.508524
      37A     -0.472774    38A     -0.427689    39A     -0.386905
      40A     -0.347357    41A     -0.318076

  @DF-RHF Final Energy:  -797.28847326275695

   => Energetics <=

    Nuclear Repulsion Energy =            608.7414309503352570
    One-Electron Energy =               -2301.9113317955229832
    Two-Electron Energy =                 895.8814275824308879
    Total Energy =                       -797.2884732627569520
  Basis Set: (AUG-CC-PVTZ AUX)
    Blend: AUG-CC-PVTZ-RI
    Molecular point group: c1

    Geometry (in Angstrom), charge = 0, multiplicity = 1:

       Center              X                  Y                   Z               Mass
    ------------   -----------------  -----------------  -----------------  -----------------
         S           -1.366095285470    -0.326537690716    -1.081535630805    31.972071174400
         O            1.461829814530    -1.650158890716     0.508504769195    15.994914619570
         N            1.018621814530     0.554511109284     0.097626769195    14.003074004430
         C           -0.364792185470     0.302285109284     0.190040769195    12.000000000000
         C            1.419751814530     1.845266109284    -0.461543230805    12.000000000000
         C            1.879382814530    -0.531471890716     0.217677769195    12.000000000000
         C           -1.181158185470     0.546056109284     1.272829769195    12.000000000000
         C           -2.535279185470     0.218907109284     1.016630769195    12.000000000000
         C            3.351869814530    -0.249573890716     0.001316769195    12.000000000000
         C           -2.731114185470    -0.266805890716    -0.257663230805    12.000000000000
         H            0.706136814530     2.595248109284    -0.117801230805     1.007825032230
         H            1.421943814530     1.839093109284    -1.558860230805     1.007825032230
         H            2.411345814530     2.123397109284    -0.103496230805     1.007825032230
         H           -0.797404185470     0.933298109284     2.211062769195     1.007825032230
         H           -3.338099185470     0.327035109284     1.738321769195     1.007825032230
         H            3.732444814530     0.468171109284     0.733969769195     1.007825032230
         H            3.545638814530     0.150753109284    -0.997907230805     1.007825032230
         H            3.880822814530    -1.194722890716     0.119365769195     1.007825032230
         H           -3.657402185470    -0.600818890716    -0.708061230805     1.007825032230

  Basis Set: AUG-CC-PVTZ
    Blend: AUG-CC-PVTZ
  Basis Set: (AUG-CC-PVTZ AUX)
    Blend: AUG-CC-PVTZ-JKFIT
	 Reference Energy          =    -797.2884732627569520 [Eh]
	 Singles Energy            =      -0.0000000000000000 [Eh]
	 Same-Spin Energy          =      -0.4880778318933364 [Eh]
	 Opposite-Spin Energy      =      -1.5049781773277144 [Eh]
	 Correlation Energy        =      -1.9930560092210508 [Eh]
	 Total Energy              =    -799.2815292719780018 [Eh]

	 ================> DF-SCS-MP2 Energies <==================
	-----------------------------------------------------------
	 SCS Same-Spin Scale       =       0.3333333333333333 [-]
	 SCS Opposite-Spin Scale   =       1.2000000000000000 [-]
	 SCS Same-Spin Energy      =      -0.1626926106311121 [Eh]
	 SCS Opposite-Spin Energy  =      -1.8059738127932572 [Eh]
	 SCS Correlation Energy    =      -1.9686664234243694 [Eh]
	 SCS Total Energy          =    -799.2571396861812900 [Eh]
	-----------------------------------------------------------

  Dipole Moment: [D]
     X:     0.7051      Y:     3.4528      Z:    -0.7541     Total:     3.6038

*** Psi4 exiting successfully. Buy a developer a beer!
