                               Psi4 1.3.2 release

  ==> Input File <==

--------------------------------------------------------------------------
#psi4
#
memory 32 gb

molecule  {
0 1
  S       -1.3336960    -0.3724180    -1.1448160
  O        1.3948110    -1.6888110     0.5141610
  N        0.9516030     0.5158590     0.1032830
  C       -0.4403250     0.3079824     0.1761964
  C        1.3527330     1.8066140    -0.4558870
  C        1.8123640    -0.5701240     0.2233340
  C       -1.2481770     0.5074040     1.2784860
  C       -2.6022980     0.1802550     1.0222870
  C        3.2848510    -0.2882260     0.0069730
  C       -2.7981330    -0.3054580    -0.2520070
  H        0.6391180     2.5565960    -0.1121450
  H        1.3549250     1.8004410    -1.5532040
  H        2.3443270     2.0847450    -0.0978400
  H       -0.8644230     0.8946460     2.2167190
  H       -3.4051180     0.2883830     1.7439780
  H        3.6654260     0.4295190     0.7396260
  H        3.4786200     0.1121010    -0.9922510
  H        3.8138040    -1.2333750     0.1250220
  H       -3.7244210    -0.6394710    -0.7024050
units angstrom
no_reorient  #important for SAPT in psi4, default
symmetry c1  #important for SAPT in psi4, default
}

set PROPERTIES_ORIGIN ["COM"]
properties('MP2/aug-cc-pvtz', properties = ['dipole'])
--------------------------------------------------------------------------

    Molecular point group: c1
  Charge       = 0
  Multiplicity = 1
  Basis Set: AUG-CC-PVTZ
    Blend: AUG-CC-PVTZ
  Basis Set: (AUG-CC-PVTZ AUX)
    Blend: AUG-CC-PVTZ-JKFIT

    Orbital Energies [Eh]
    ---------------------

    Doubly Occupied:

       1A    -91.983347     2A    -20.522951     3A    -15.602036
       4A    -11.358751     5A    -11.296396     6A    -11.276849
       7A    -11.263284     8A    -11.243333     9A    -11.239596
      10A    -11.238485    11A     -8.983714    12A     -6.664665
      13A     -6.664196    14A     -6.663409    15A     -1.379841
      16A     -1.263328    17A     -1.159039    18A     -1.021987
      19A     -0.987703    20A     -0.981458    21A     -0.942095
      22A     -0.815190    23A     -0.762606    24A     -0.714524
      25A     -0.687118    26A     -0.679653    27A     -0.647851
      28A     -0.624744    29A     -0.591138    30A     -0.579239
      31A     -0.566364    32A     -0.564084    33A     -0.554711
      34A     -0.546497    35A     -0.515149    36A     -0.505007
      37A     -0.478482    38A     -0.427453    39A     -0.386751
      40A     -0.345647    41A     -0.320888

  @DF-RHF Final Energy:  -797.29689004015972

   => Energetics <=

    Nuclear Repulsion Energy =            606.3018411294989392
    One-Electron Energy =               -2297.0983441928478896
    Two-Electron Energy =                 893.4996130231893403
    Total Energy =                       -797.2968900401597239
  Basis Set: (AUG-CC-PVTZ AUX)
    Blend: AUG-CC-PVTZ-RI
    Molecular point group: c1

    Geometry (in Angstrom), charge = 0, multiplicity = 1:

       Center              X                  Y                   Z               Mass
    ------------   -----------------  -----------------  -----------------  -----------------
         S           -1.286519967615    -0.335707914279    -1.134746963432    31.972071174400
         O            1.441987032385    -1.652100914279     0.524230036568    15.994914619570
         N            0.998779032385     0.552569085721     0.113352036568    14.003074004430
         C           -0.393148967615     0.344692485721     0.186265436568    12.000000000000
         C            1.399909032385     1.843324085721    -0.445817963432    12.000000000000
         C            1.859540032385    -0.533413914279     0.233403036568    12.000000000000
         C           -1.201000967615     0.544114085721     1.288555036568    12.000000000000
         C           -2.555121967615     0.216965085721     1.032356036568    12.000000000000
         C            3.332027032385    -0.251515914279     0.017042036568    12.000000000000
         C           -2.750956967615    -0.268747914279    -0.241937963432    12.000000000000
         H            0.686294032385     2.593306085721    -0.102075963432     1.007825032230
         H            1.402101032385     1.837151085721    -1.543134963432     1.007825032230
         H            2.391503032385     2.121455085721    -0.087770963432     1.007825032230
         H           -0.817246967615     0.931356085721     2.226788036568     1.007825032230
         H           -3.357941967615     0.325093085721     1.754047036568     1.007825032230
         H            3.712602032385     0.466229085721     0.749695036568     1.007825032230
         H            3.525796032385     0.148811085721    -0.982181963432     1.007825032230
         H            3.860980032385    -1.196664914279     0.135091036568     1.007825032230
         H           -3.677244967615    -0.602760914279    -0.692335963432     1.007825032230

  Basis Set: AUG-CC-PVTZ
    Blend: AUG-CC-PVTZ
  Basis Set: (AUG-CC-PVTZ AUX)
    Blend: AUG-CC-PVTZ-JKFIT
	 Reference Energy          =    -797.2968900401597239 [Eh]
	 Singles Energy            =      -0.0000000000000000 [Eh]
	 Same-Spin Energy          =      -0.4868159911390487 [Eh]
	 Opposite-Spin Energy      =      -1.5059385231888076 [Eh]
	 Correlation Energy        =      -1.9927545143278564 [Eh]
	 Total Energy              =    -799.2896445544876087 [Eh]

	 ================> DF-SCS-MP2 Energies <==================
	-----------------------------------------------------------
	 SCS Same-Spin Scale       =       0.3333333333333333 [-]
	 SCS Opposite-Spin Scale   =       1.2000000000000000 [-]
	 SCS Same-Spin Energy      =      -0.1622719970463496 [Eh]
	 SCS Opposite-Spin Energy  =      -1.8071262278265690 [Eh]
	 SCS Correlation Energy    =      -1.9693982248729185 [Eh]
	 SCS Total Energy          =    -799.2662882650326992 [Eh]
	-----------------------------------------------------------

  Dipole Moment: [D]
     X:     0.6681      Y:     3.4370      Z:    -0.6496     Total:     3.5611

*** Psi4 exiting successfully. Buy a developer a beer!
