                               Psi4 1.4a3.dev225

  ==> Input File <==

--------------------------------------------------------------------------
#psi4
#
memory 32 gb

molecule  {
0 1
  S       -1.3336960    -0.3724180    -1.1448160
  O        1.3948110    -1.6888110     0.5141610
  N        0.9516030     0.5158590     0.1032830
  C       -0.4577816     0.2453173     0.1570957
  C        1.3527330     1.8066140    -0.4558870
  C        1.8123640    -0.5701240     0.2233340
  C       -1.2481770     0.5074040     1.2784860
  C       -2.6022980     0.1802550     1.0222870
  C        3.2848510    -0.2882260     0.0069730
  C       -2.7981330    -0.3054580    -0.2520070
  H        0.6391180     2.5565960    -0.1121450
  H        1.3549250     1.8004410    -1.5532040
  H        2.3443270     2.0847450    -0.0978400
  H       -0.8644230     0.8946460     2.2167190
  H       -3.4051180     0.2883830     1.7439780
  H        3.6654260     0.4295190     0.7396260
  H        3.4786200     0.1121010    -0.9922510
  H        3.8138040    -1.2333750     0.1250220
  H       -3.7244210    -0.6394710    -0.7024050
units angstrom
no_reorient  #important for SAPT in psi4, default
symmetry c1  #important for SAPT in psi4, default
}

set PROPERTIES_ORIGIN ["COM"]
properties('MP2/aug-cc-pvtz', properties = ['dipole'])
--------------------------------------------------------------------------

    Molecular point group: c1
  Charge       = 0
  Multiplicity = 1
  Basis Set: AUG-CC-PVTZ
    Blend: AUG-CC-PVTZ
  Basis Set: (AUG-CC-PVTZ AUX)
    Blend: AUG-CC-PVTZ-JKFIT

    Orbital Energies [Eh]
    ---------------------

    Doubly Occupied:

       1A    -91.986839     2A    -20.521451     3A    -15.601423
       4A    -11.356710     5A    -11.296789     6A    -11.276867
       7A    -11.261354     8A    -11.242107     9A    -11.239842
      10A    -11.238265    11A     -8.987920    12A     -6.668937
      13A     -6.668435    14A     -6.667609    15A     -1.378272
      16A     -1.257563    17A     -1.163231    18A     -1.019594
      19A     -0.992092    20A     -0.980289    21A     -0.941087
      22A     -0.807310    23A     -0.762373    24A     -0.715148
      25A     -0.687021    26A     -0.678415    27A     -0.646094
      28A     -0.624004    29A     -0.590118    30A     -0.578313
      31A     -0.564574    32A     -0.562522    33A     -0.551628
      34A     -0.546966    35A     -0.519203    36A     -0.505733
      37A     -0.483405    38A     -0.425983    39A     -0.387508
      40A     -0.346975    41A     -0.319373

  @DF-RHF Final Energy:  -797.29465633876339

   => Energetics <=

    Nuclear Repulsion Energy =            606.7210783332166102
    One-Electron Energy =               -2297.9327852107107901
    Two-Electron Energy =                 893.9170505387307912
    Total Energy =                       -797.2946563387633887
  Basis Set: (AUG-CC-PVTZ AUX)
    Blend: AUG-CC-PVTZ-RI
    Molecular point group: c1

    Geometry (in Angstrom), charge = 0, multiplicity = 1:

       Center              X                  Y                   Z               Mass
    ------------   -----------------  -----------------  -----------------  -----------------
         S           -1.285168841811    -0.330857689516    -1.133268585704    31.972071174400
         O            1.443338158189    -1.647250689516     0.525708414296    15.994914619570
         N            1.000130158189     0.557419310484     0.114830414296    14.003074004430
         C           -0.409254441811     0.286877610484     0.168643114296    12.000000000000
         C            1.401260158189     1.848174310484    -0.444339585704    12.000000000000
         C            1.860891158189    -0.528563689516     0.234881414296    12.000000000000
         C           -1.199649841811     0.548964310484     1.290033414296    12.000000000000
         C           -2.553770841811     0.221815310484     1.033834414296    12.000000000000
         C            3.333378158189    -0.246665689516     0.018520414296    12.000000000000
         C           -2.749605841811    -0.263897689516    -0.240459585704    12.000000000000
         H            0.687645158189     2.598156310484    -0.100597585704     1.007825032230
         H            1.403452158189     1.842001310484    -1.541656585704     1.007825032230
         H            2.392854158189     2.126305310484    -0.086292585704     1.007825032230
         H           -0.815895841811     0.936206310484     2.228266414296     1.007825032230
         H           -3.356590841811     0.329943310484     1.755525414296     1.007825032230
         H            3.713953158189     0.471079310484     0.751173414296     1.007825032230
         H            3.527147158189     0.153661310484    -0.980703585704     1.007825032230
         H            3.862331158189    -1.191814689516     0.136569414296     1.007825032230
         H           -3.675893841811    -0.597910689516    -0.690857585704     1.007825032230

  Basis Set: AUG-CC-PVTZ
    Blend: AUG-CC-PVTZ
  Basis Set: (AUG-CC-PVTZ AUX)
    Blend: AUG-CC-PVTZ-JKFIT
	 Reference Energy          =    -797.2946563387633887 [Eh]
	 Singles Energy            =      -0.0000000000000000 [Eh]
	 Same-Spin Energy          =      -0.4872307255182824 [Eh]
	 Opposite-Spin Energy      =      -1.5060631007918848 [Eh]
	 Correlation Energy        =      -1.9932938263101672 [Eh]
	 Total Energy              =    -799.2879501650735392 [Eh]

	 ================> DF-SCS-MP2 Energies <==================
	-----------------------------------------------------------
	 SCS Same-Spin Scale       =       0.3333333333333333 [-]
	 SCS Opposite-Spin Scale   =       1.2000000000000000 [-]
	 SCS Same-Spin Energy      =      -0.1624102418394275 [Eh]
	 SCS Opposite-Spin Energy  =      -1.8072757209502617 [Eh]
	 SCS Correlation Energy    =      -1.9696859627896892 [Eh]
	 SCS Total Energy          =    -799.2643423015530288 [Eh]
	-----------------------------------------------------------

  Dipole Moment: [D]
     X:     0.5525      Y:     3.4476      Z:    -0.7589     Total:     3.5731

*** Psi4 exiting successfully. Buy a developer a beer!
