                               Psi4 1.4a3.dev225

  ==> Input File <==

--------------------------------------------------------------------------
#psi4
#
memory 32 gb

molecule  {
0 1
  S       -1.3336960    -0.3724180    -1.1448160
  O        1.3948110    -1.6888110     0.5141610
  N        0.9516030     0.5158590     0.1032830
  C       -0.4421992     0.2563067     0.1802565
  C        1.3527330     1.8066140    -0.4558870
  C        1.8123640    -0.5701240     0.2233340
  C       -1.2481770     0.5074040     1.2784860
  C       -2.6022980     0.1802550     1.0222870
  C        3.2848510    -0.2882260     0.0069730
  C       -2.7981330    -0.3054580    -0.2520070
  H        0.6391180     2.5565960    -0.1121450
  H        1.3549250     1.8004410    -1.5532040
  H        2.3443270     2.0847450    -0.0978400
  H       -0.8644230     0.8946460     2.2167190
  H       -3.4051180     0.2883830     1.7439780
  H        3.6654260     0.4295190     0.7396260
  H        3.4786200     0.1121010    -0.9922510
  H        3.8138040    -1.2333750     0.1250220
  H       -3.7244210    -0.6394710    -0.7024050
units angstrom
no_reorient  #important for SAPT in psi4, default
symmetry c1  #important for SAPT in psi4, default
}

set PROPERTIES_ORIGIN ["COM"]
properties('MP2/aug-cc-pvtz', properties = ['dipole'])
--------------------------------------------------------------------------

    Molecular point group: c1
  Charge       = 0
  Multiplicity = 1
  Basis Set: AUG-CC-PVTZ
    Blend: AUG-CC-PVTZ
  Basis Set: (AUG-CC-PVTZ AUX)
    Blend: AUG-CC-PVTZ-JKFIT

    Orbital Energies [Eh]
    ---------------------

    Doubly Occupied:

       1A    -91.984463     2A    -20.522299     3A    -15.601943
       4A    -11.357552     5A    -11.296603     6A    -11.277574
       7A    -11.262316     8A    -11.242639     9A    -11.239478
      10A    -11.237926    11A     -8.985089    12A     -6.666060
      13A     -6.665594    14A     -6.664786    15A     -1.379461
      16A     -1.260825    17A     -1.160538    18A     -1.020807
      19A     -0.988889    20A     -0.982027    21A     -0.941829
      22A     -0.810877    23A     -0.762425    24A     -0.714786
      25A     -0.687534    26A     -0.679522    27A     -0.647276
      28A     -0.624434    29A     -0.590729    30A     -0.579055
      31A     -0.565404    32A     -0.563394    33A     -0.553150
      34A     -0.547413    35A     -0.516758    36A     -0.505244
      37A     -0.480271    38A     -0.426745    39A     -0.387299
      40A     -0.346039    41A     -0.320355

  @DF-RHF Final Energy:  -797.29706154975474

   => Energetics <=

    Nuclear Repulsion Energy =            606.5361701572652464
    One-Electron Energy =               -2297.5716407763857205
    Two-Electron Energy =                 893.7384090693658436
    Total Energy =                       -797.2970615497547442
  Basis Set: (AUG-CC-PVTZ AUX)
    Blend: AUG-CC-PVTZ-RI
    Molecular point group: c1

    Geometry (in Angstrom), charge = 0, multiplicity = 1:

       Center              X                  Y                   Z               Mass
    ------------   -----------------  -----------------  -----------------  -----------------
         S           -1.286374906149    -0.331708259610    -1.135061211675    31.972071174400
         O            1.442132093851    -1.648101259610     0.523915788325    15.994914619570
         N            0.998924093851     0.556568740390     0.113037788325    14.003074004430
         C           -0.394878106149     0.297016440390     0.190011288325    12.000000000000
         C            1.400054093851     1.847323740390    -0.446132211675    12.000000000000
         C            1.859685093851    -0.529414259610     0.233088788325    12.000000000000
         C           -1.200855906149     0.548113740390     1.288240788325    12.000000000000
         C           -2.554976906149     0.220964740390     1.032041788325    12.000000000000
         C            3.332172093851    -0.247516259610     0.016727788325    12.000000000000
         C           -2.750811906149    -0.264748259610    -0.242252211675    12.000000000000
         H            0.686439093851     2.597305740390    -0.102390211675     1.007825032230
         H            1.402246093851     1.841150740390    -1.543449211675     1.007825032230
         H            2.391648093851     2.125454740390    -0.088085211675     1.007825032230
         H           -0.817101906149     0.935355740390     2.226473788325     1.007825032230
         H           -3.357796906149     0.329092740390     1.753732788325     1.007825032230
         H            3.712747093851     0.470228740390     0.749380788325     1.007825032230
         H            3.525941093851     0.152810740390    -0.982496211675     1.007825032230
         H            3.861125093851    -1.192665259610     0.134776788325     1.007825032230
         H           -3.677099906149    -0.598761259610    -0.692650211675     1.007825032230

  Basis Set: AUG-CC-PVTZ
    Blend: AUG-CC-PVTZ
  Basis Set: (AUG-CC-PVTZ AUX)
    Blend: AUG-CC-PVTZ-JKFIT
	 Reference Energy          =    -797.2970615497547442 [Eh]
	 Singles Energy            =      -0.0000000000000000 [Eh]
	 Same-Spin Energy          =      -0.4868871776065764 [Eh]
	 Opposite-Spin Energy      =      -1.5058398783528704 [Eh]
	 Correlation Energy        =      -1.9927270559594468 [Eh]
	 Total Energy              =    -799.2897886057141932 [Eh]

	 ================> DF-SCS-MP2 Energies <==================
	-----------------------------------------------------------
	 SCS Same-Spin Scale       =       0.3333333333333333 [-]
	 SCS Opposite-Spin Scale   =       1.2000000000000000 [-]
	 SCS Same-Spin Energy      =      -0.1622957258688588 [Eh]
	 SCS Opposite-Spin Energy  =      -1.8070078540234444 [Eh]
	 SCS Correlation Energy    =      -1.9693035798923033 [Eh]
	 SCS Total Energy          =    -799.2663651296470562 [Eh]
	-----------------------------------------------------------

  Dipole Moment: [D]
     X:     0.6264      Y:     3.4700      Z:    -0.6982     Total:     3.5946

*** Psi4 exiting successfully. Buy a developer a beer!
