                               Psi4 1.3.2 release

  ==> Input File <==

--------------------------------------------------------------------------
#psi4
#
memory 32 gb

molecule  {
0 1
  S       -1.3336960    -0.3724180    -1.1448160
  O        1.3948110    -1.6888110     0.5141610
  N        0.9436514     0.5669547     0.2414313
  C       -0.4318110     0.2636330     0.1956970
  C        1.3527330     1.8066140    -0.4558870
  C        1.8123640    -0.5701240     0.2233340
  C       -1.2481770     0.5074040     1.2784860
  C       -2.6022980     0.1802550     1.0222870
  C        3.2848510    -0.2882260     0.0069730
  C       -2.7981330    -0.3054580    -0.2520070
  H        0.6391180     2.5565960    -0.1121450
  H        1.3549250     1.8004410    -1.5532040
  H        2.3443270     2.0847450    -0.0978400
  H       -0.8644230     0.8946460     2.2167190
  H       -3.4051180     0.2883830     1.7439780
  H        3.6654260     0.4295190     0.7396260
  H        3.4786200     0.1121010    -0.9922510
  H        3.8138040    -1.2333750     0.1250220
  H       -3.7244210    -0.6394710    -0.7024050
units angstrom
no_reorient  #important for SAPT in psi4, default
symmetry c1  #important for SAPT in psi4, default
}

set PROPERTIES_ORIGIN ["COM"]
properties('MP2/aug-cc-pvtz', properties = ['dipole'])
--------------------------------------------------------------------------

    Molecular point group: c1
  Charge       = 0
  Multiplicity = 1
  Basis Set: AUG-CC-PVTZ
    Blend: AUG-CC-PVTZ
  Basis Set: (AUG-CC-PVTZ AUX)
    Blend: AUG-CC-PVTZ-JKFIT

    Orbital Energies [Eh]
    ---------------------

    Doubly Occupied:

       1A    -91.984711     2A    -20.533051     3A    -15.603070
       4A    -11.362887     5A    -11.293066     6A    -11.275887
       7A    -11.262440     8A    -11.245408     9A    -11.237608
      10A    -11.233418    11A     -8.984844    12A     -6.665807
      13A     -6.665415    14A     -6.664573    15A     -1.383027
      16A     -1.257424    17A     -1.156490    18A     -1.022221
      19A     -0.987007    20A     -0.979188    21A     -0.935349
      22A     -0.807058    23A     -0.758741    24A     -0.714264
      25A     -0.688407    26A     -0.678845    27A     -0.640565
      28A     -0.624471    29A     -0.594058    30A     -0.577048
      31A     -0.567200    32A     -0.563905    33A     -0.549059
      34A     -0.546873    35A     -0.514471    36A     -0.504590
      37A     -0.479117    38A     -0.432402    39A     -0.393076
      40A     -0.345195    41A     -0.318773

  @DF-RHF Final Energy:  -797.29008610365963

   => Energetics <=

    Nuclear Repulsion Energy =            605.2076840773763706
    One-Electron Energy =               -2294.9335225334120878
    Two-Electron Energy =                 892.4357523523760847
    Total Energy =                       -797.2900861036596325
  Basis Set: (AUG-CC-PVTZ AUX)
    Blend: AUG-CC-PVTZ-RI
    Molecular point group: c1

    Geometry (in Angstrom), charge = 0, multiplicity = 1:

       Center              X                  Y                   Z               Mass
    ------------   -----------------  -----------------  -----------------  -----------------
         S           -1.286460764735    -0.336890212362    -1.148733684818    31.972071174400
         O            1.442046235265    -1.653283212362     0.510243315182    15.994914619570
         N            0.990886635265     0.602482487638     0.237513615182    14.003074004430
         C           -0.384575764735     0.299160787638     0.191779315182    12.000000000000
         C            1.399968235265     1.842141787638    -0.459804684818    12.000000000000
         C            1.859599235265    -0.534596212362     0.219416315182    12.000000000000
         C           -1.200941764735     0.542931787638     1.274568315182    12.000000000000
         C           -2.555062764735     0.215782787638     1.018369315182    12.000000000000
         C            3.332086235265    -0.252698212362     0.003055315182    12.000000000000
         C           -2.750897764735    -0.269930212362    -0.255924684818    12.000000000000
         H            0.686353235265     2.592123787638    -0.116062684818     1.007825032230
         H            1.402160235265     1.835968787638    -1.557121684818     1.007825032230
         H            2.391562235265     2.120272787638    -0.101757684818     1.007825032230
         H           -0.817187764735     0.930173787638     2.212801315182     1.007825032230
         H           -3.357882764735     0.323910787638     1.740060315182     1.007825032230
         H            3.712661235265     0.465046787638     0.735708315182     1.007825032230
         H            3.525855235265     0.147628787638    -0.996168684818     1.007825032230
         H            3.861039235265    -1.197847212362     0.121104315182     1.007825032230
         H           -3.677185764735    -0.603943212362    -0.706322684818     1.007825032230

  Basis Set: AUG-CC-PVTZ
    Blend: AUG-CC-PVTZ
  Basis Set: (AUG-CC-PVTZ AUX)
    Blend: AUG-CC-PVTZ-JKFIT
	 Reference Energy          =    -797.2900861036596325 [Eh]
	 Singles Energy            =      -0.0000000000000000 [Eh]
	 Same-Spin Energy          =      -0.4867877836853746 [Eh]
	 Opposite-Spin Energy      =      -1.5068017931498292 [Eh]
	 Correlation Energy        =      -1.9935895768352039 [Eh]
	 Total Energy              =    -799.2836756804948664 [Eh]

	 ================> DF-SCS-MP2 Energies <==================
	-----------------------------------------------------------
	 SCS Same-Spin Scale       =       0.3333333333333333 [-]
	 SCS Opposite-Spin Scale   =       1.2000000000000000 [-]
	 SCS Same-Spin Energy      =      -0.1622625945617915 [Eh]
	 SCS Opposite-Spin Energy  =      -1.8081621517797950 [Eh]
	 SCS Correlation Energy    =      -1.9704247463415865 [Eh]
	 SCS Total Energy          =    -799.2605108500011966 [Eh]
	-----------------------------------------------------------

  Dipole Moment: [D]
     X:     0.8422      Y:     3.1574      Z:    -0.7917     Total:     3.3624

*** Psi4 exiting successfully. Buy a developer a beer!
