                               Psi4 1.3.2 release

  ==> Input File <==

--------------------------------------------------------------------------
#psi4
#
memory 32 gb

molecule  {
0 1
  S       -1.3336960    -0.3724180    -1.1448160
  O        1.3948110    -1.6888110     0.5141610
  N        0.9516030     0.5158590     0.1032830
  C       -0.3814994     0.2602746     0.1620712
  C        1.3527330     1.8066140    -0.4558870
  C        1.8123640    -0.5701240     0.2233340
  C       -1.2481770     0.5074040     1.2784860
  C       -2.6022980     0.1802550     1.0222870
  C        3.2848510    -0.2882260     0.0069730
  C       -2.7981330    -0.3054580    -0.2520070
  H        0.6391180     2.5565960    -0.1121450
  H        1.3549250     1.8004410    -1.5532040
  H        2.3443270     2.0847450    -0.0978400
  H       -0.8644230     0.8946460     2.2167190
  H       -3.4051180     0.2883830     1.7439780
  H        3.6654260     0.4295190     0.7396260
  H        3.4786200     0.1121010    -0.9922510
  H        3.8138040    -1.2333750     0.1250220
  H       -3.7244210    -0.6394710    -0.7024050
units angstrom
no_reorient  #important for SAPT in psi4, default
symmetry c1  #important for SAPT in psi4, default
}

set PROPERTIES_ORIGIN ["COM"]
properties('MP2/aug-cc-pvtz', properties = ['dipole'])
--------------------------------------------------------------------------

    Molecular point group: c1
  Charge       = 0
  Multiplicity = 1
  Basis Set: AUG-CC-PVTZ
    Blend: AUG-CC-PVTZ
  Basis Set: (AUG-CC-PVTZ AUX)
    Blend: AUG-CC-PVTZ-JKFIT

    Orbital Energies [Eh]
    ---------------------

    Doubly Occupied:

       1A    -91.983215     2A    -20.525850     3A    -15.603165
       4A    -11.360319     5A    -11.298676     6A    -11.279812
       7A    -11.262002     8A    -11.244421     9A    -11.241797
      10A    -11.238380    11A     -8.983317    12A     -6.664245
      13A     -6.663869    14A     -6.663107    15A     -1.384826
      16A     -1.275257    17A     -1.152023    18A     -1.025306
      19A     -0.985791    20A     -0.981067    21A     -0.940788
      22A     -0.823683    23A     -0.758821    24A     -0.712025
      25A     -0.688436    26A     -0.683768    27A     -0.651351
      28A     -0.626890    29A     -0.593009    30A     -0.581897
      31A     -0.568800    32A     -0.564944    33A     -0.556952
      34A     -0.548782    35A     -0.510326    36A     -0.504282
      37A     -0.474220    38A     -0.430074    39A     -0.386525
      40A     -0.342857    41A     -0.312982

  @DF-RHF Final Energy:  -797.28939813263003

   => Energetics <=

    Nuclear Repulsion Energy =            606.6264281937696978
    One-Electron Energy =               -2297.6759380506837260
    Two-Electron Energy =                 893.7601117242840019
    Total Energy =                       -797.2893981326300263
  Basis Set: (AUG-CC-PVTZ AUX)
    Blend: AUG-CC-PVTZ-RI
    Molecular point group: c1

    Geometry (in Angstrom), charge = 0, multiplicity = 1:

       Center              X                  Y                   Z               Mass
    ------------   -----------------  -----------------  -----------------  -----------------
         S           -1.291073018385    -0.332015371652    -1.133653685119    31.972071174400
         O            1.437433981615    -1.648408371652     0.525323314881    15.994914619570
         N            0.994225981615     0.556261628348     0.114445314881    14.003074004430
         C           -0.338876418385     0.300677228348     0.173233514881    12.000000000000
         C            1.395355981615     1.847016628348    -0.444724685119    12.000000000000
         C            1.854986981615    -0.529721371652     0.234496314881    12.000000000000
         C           -1.205554018385     0.547806628348     1.289648314881    12.000000000000
         C           -2.559675018385     0.220657628348     1.033449314881    12.000000000000
         C            3.327473981615    -0.247823371652     0.018135314881    12.000000000000
         C           -2.755510018385    -0.265055371652    -0.240844685119    12.000000000000
         H            0.681740981615     2.596998628348    -0.100982685119     1.007825032230
         H            1.397547981615     1.840843628348    -1.542041685119     1.007825032230
         H            2.386949981615     2.125147628348    -0.086677685119     1.007825032230
         H           -0.821800018385     0.935048628348     2.227881314881     1.007825032230
         H           -3.362495018385     0.328785628348     1.755140314881     1.007825032230
         H            3.708048981615     0.469921628348     0.750788314881     1.007825032230
         H            3.521242981615     0.152503628348    -0.981088685119     1.007825032230
         H            3.856426981615    -1.192972371652     0.136184314881     1.007825032230
         H           -3.681798018385    -0.599068371652    -0.691242685119     1.007825032230

  Basis Set: AUG-CC-PVTZ
    Blend: AUG-CC-PVTZ
  Basis Set: (AUG-CC-PVTZ AUX)
    Blend: AUG-CC-PVTZ-JKFIT
	 Reference Energy          =    -797.2893981326300263 [Eh]
	 Singles Energy            =      -0.0000000000000000 [Eh]
	 Same-Spin Energy          =      -0.4885022449772539 [Eh]
	 Opposite-Spin Energy      =      -1.5078587788707232 [Eh]
	 Correlation Energy        =      -1.9963610238479772 [Eh]
	 Total Energy              =    -799.2857591564779796 [Eh]

	 ================> DF-SCS-MP2 Energies <==================
	-----------------------------------------------------------
	 SCS Same-Spin Scale       =       0.3333333333333333 [-]
	 SCS Opposite-Spin Scale   =       1.2000000000000000 [-]
	 SCS Same-Spin Energy      =      -0.1628340816590846 [Eh]
	 SCS Opposite-Spin Energy  =      -1.8094305346448678 [Eh]
	 SCS Correlation Energy    =      -1.9722646163039523 [Eh]
	 SCS Total Energy          =    -799.2616627489339862 [Eh]
	-----------------------------------------------------------

  Dipole Moment: [D]
     X:     0.8518      Y:     3.4695      Z:    -0.6747     Total:     3.6356

*** Psi4 exiting successfully. Buy a developer a beer!
