                               Psi4 1.3.2 release

  ==> Input File <==

--------------------------------------------------------------------------
#psi4
#
memory 32 gb

molecule  {
0 1
  S       -1.2306034    -0.3727571    -1.2085362
  O        1.3948110    -1.6888110     0.5141610
  N        0.9516030     0.5158590     0.1032830
  C       -0.4318110     0.2636330     0.1956970
  C        1.3527330     1.8066140    -0.4558870
  C        1.8123640    -0.5701240     0.2233340
  C       -1.2481770     0.5074040     1.2784860
  C       -2.6022980     0.1802550     1.0222870
  C        3.2848510    -0.2882260     0.0069730
  C       -2.7981330    -0.3054580    -0.2520070
  H        0.6391180     2.5565960    -0.1121450
  H        1.3549250     1.8004410    -1.5532040
  H        2.3443270     2.0847450    -0.0978400
  H       -0.8644230     0.8946460     2.2167190
  H       -3.4051180     0.2883830     1.7439780
  H        3.6654260     0.4295190     0.7396260
  H        3.4786200     0.1121010    -0.9922510
  H        3.8138040    -1.2333750     0.1250220
  H       -3.7244210    -0.6394710    -0.7024050
units angstrom
no_reorient  #important for SAPT in psi4, default
symmetry c1  #important for SAPT in psi4, default
}

set PROPERTIES_ORIGIN ["COM"]
properties('MP2/aug-cc-pvtz', properties = ['dipole'])
--------------------------------------------------------------------------

    Molecular point group: c1
  Charge       = 0
  Multiplicity = 1
  Basis Set: AUG-CC-PVTZ
    Blend: AUG-CC-PVTZ
  Basis Set: (AUG-CC-PVTZ AUX)
    Blend: AUG-CC-PVTZ-JKFIT

    Orbital Energies [Eh]
    ---------------------

    Doubly Occupied:

       1A    -91.985416     2A    -20.522366     3A    -15.600471
       4A    -11.357654     5A    -11.300359     6A    -11.277835
       7A    -11.272560     8A    -11.245044     9A    -11.242634
      10A    -11.239074    11A     -8.983761    12A     -6.664677
      13A     -6.663948    14A     -6.663330    15A     -1.380025
      16A     -1.263236    17A     -1.146061    18A     -1.021404
      19A     -0.985911    20A     -0.975184    21A     -0.942267
      22A     -0.813860    23A     -0.763503    24A     -0.711199
      25A     -0.687306    26A     -0.679893    27A     -0.648344
      28A     -0.620911    29A     -0.590932    30A     -0.579057
      31A     -0.565585    32A     -0.563919    33A     -0.557992
      34A     -0.541182    35A     -0.506680    36A     -0.500797
      37A     -0.475922    38A     -0.426605    39A     -0.385998
      40A     -0.350316    41A     -0.318025

  @DF-RHF Final Energy:  -797.28883591031695

   => Energetics <=

    Nuclear Repulsion Energy =            604.6684423632235621
    One-Electron Energy =               -2293.8720675206222950
    Two-Electron Energy =                 891.9147892470816714
    Total Energy =                       -797.2888359103169478
  Basis Set: (AUG-CC-PVTZ AUX)
    Blend: AUG-CC-PVTZ-RI
    Molecular point group: c1

    Geometry (in Angstrom), charge = 0, multiplicity = 1:

       Center              X                  Y                   Z               Mass
    ------------   -----------------  -----------------  -----------------  -----------------
         S           -1.205345848732    -0.332544480543    -1.186836268646    31.972071174400
         O            1.420068551268    -1.648598380543     0.535860931354    15.994914619570
         N            0.976860551268     0.556071619457     0.124982931354    14.003074004430
         C           -0.406553448732     0.303845619457     0.217396931354    12.000000000000
         C            1.377990551268     1.846826619457    -0.434187068646    12.000000000000
         C            1.837621551268    -0.529911380543     0.245033931354    12.000000000000
         C           -1.222919448732     0.547616619457     1.300185931354    12.000000000000
         C           -2.577040448732     0.220467619457     1.043986931354    12.000000000000
         C            3.310108551268    -0.248013380543     0.028672931354    12.000000000000
         C           -2.772875448732    -0.265245380543    -0.230307068646    12.000000000000
         H            0.664375551268     2.596808619457    -0.090445068646     1.007825032230
         H            1.380182551268     1.840653619457    -1.531504068646     1.007825032230
         H            2.369584551268     2.124957619457    -0.076140068646     1.007825032230
         H           -0.839165448732     0.934858619457     2.238418931354     1.007825032230
         H           -3.379860448732     0.328595619457     1.765677931354     1.007825032230
         H            3.690683551268     0.469731619457     0.761325931354     1.007825032230
         H            3.503877551268     0.152313619457    -0.970551068646     1.007825032230
         H            3.839061551268    -1.193162380543     0.146721931354     1.007825032230
         H           -3.699163448732    -0.599258380543    -0.680705068646     1.007825032230

  Basis Set: AUG-CC-PVTZ
    Blend: AUG-CC-PVTZ
  Basis Set: (AUG-CC-PVTZ AUX)
    Blend: AUG-CC-PVTZ-JKFIT
	 Reference Energy          =    -797.2888359103169478 [Eh]
	 Singles Energy            =      -0.0000000000000000 [Eh]
	 Same-Spin Energy          =      -0.4858700181139597 [Eh]
	 Opposite-Spin Energy      =      -1.5073876133333663 [Eh]
	 Correlation Energy        =      -1.9932576314473260 [Eh]
	 Total Energy              =    -799.2820935417643113 [Eh]

	 ================> DF-SCS-MP2 Energies <==================
	-----------------------------------------------------------
	 SCS Same-Spin Scale       =       0.3333333333333333 [-]
	 SCS Opposite-Spin Scale   =       1.2000000000000000 [-]
	 SCS Same-Spin Energy      =      -0.1619566727046532 [Eh]
	 SCS Opposite-Spin Energy  =      -1.8088651360000396 [Eh]
	 SCS Correlation Energy    =      -1.9708218087046929 [Eh]
	 SCS Total Energy          =    -799.2596577190216749 [Eh]
	-----------------------------------------------------------

  Dipole Moment: [D]
     X:     0.6057      Y:     3.5178      Z:    -0.5429     Total:     3.6106

*** Psi4 exiting successfully. Buy a developer a beer!
