                               Psi4 1.3.2 release

  ==> Input File <==

--------------------------------------------------------------------------
#psi4
#
memory 32 gb

molecule  {
0 1
  S       -1.3336960    -0.3724180    -1.1448160
  O        1.3948110    -1.6888110     0.5141610
  N        0.9516030     0.5158590     0.1032830
  C       -0.5890869     0.2690470     0.2866212
  C        1.3527330     1.8066140    -0.4558870
  C        1.8123640    -0.5701240     0.2233340
  C       -1.2481770     0.5074040     1.2784860
  C       -2.6022980     0.1802550     1.0222870
  C        3.2848510    -0.2882260     0.0069730
  C       -2.7981330    -0.3054580    -0.2520070
  H        0.6391180     2.5565960    -0.1121450
  H        1.3549250     1.8004410    -1.5532040
  H        2.3443270     2.0847450    -0.0978400
  H       -0.8644230     0.8946460     2.2167190
  H       -3.4051180     0.2883830     1.7439780
  H        3.6654260     0.4295190     0.7396260
  H        3.4786200     0.1121010    -0.9922510
  H        3.8138040    -1.2333750     0.1250220
  H       -3.7244210    -0.6394710    -0.7024050
units angstrom
no_reorient  #important for SAPT in psi4, default
symmetry c1  #important for SAPT in psi4, default
}

set PROPERTIES_ORIGIN ["COM"]
properties('MP2/aug-cc-pvtz', properties = ['dipole'])
--------------------------------------------------------------------------

    Molecular point group: c1
  Charge       = 0
  Multiplicity = 1
  Basis Set: AUG-CC-PVTZ
    Blend: AUG-CC-PVTZ
  Basis Set: (AUG-CC-PVTZ AUX)
    Blend: AUG-CC-PVTZ-JKFIT

    Orbital Energies [Eh]
    ---------------------

    Doubly Occupied:

       1A    -91.983707     2A    -20.514308     3A    -15.595792
       4A    -11.351076     5A    -11.289742     6A    -11.272467
       7A    -11.265414     8A    -11.242213     9A    -11.238397
      10A    -11.222560    11A     -8.984532    12A     -6.665530
      13A     -6.664820    14A     -6.663946    15A     -1.369035
      16A     -1.238254    17A     -1.182779    18A     -1.022010
      19A     -1.006670    20A     -0.975356    21A     -0.938399
      22A     -0.785582    23A     -0.770752    24A     -0.726468
      25A     -0.682242    26A     -0.669717    27A     -0.638708
      28A     -0.619120    29A     -0.585408    30A     -0.575952
      31A     -0.571203    32A     -0.561861    33A     -0.557663
      34A     -0.535558    35A     -0.518678    36A     -0.499120
      37A     -0.487289    38A     -0.418434    39A     -0.380910
      40A     -0.369065    41A     -0.330679

  @DF-RHF Final Energy:  -797.25762328958297

   => Energetics <=

    Nuclear Repulsion Energy =            606.2740884934099768
    One-Electron Energy =               -2297.1205908153706332
    Two-Electron Energy =                 893.5888790323775766
    Total Energy =                       -797.2576232895829662
  Basis Set: (AUG-CC-PVTZ AUX)
    Blend: AUG-CC-PVTZ-RI
    Molecular point group: c1

    Geometry (in Angstrom), charge = 0, multiplicity = 1:

       Center              X                  Y                   Z               Mass
    ------------   -----------------  -----------------  -----------------  -----------------
         S           -1.275005924693    -0.332694347856    -1.143293747836    31.972071174400
         O            1.453501075307    -1.649087347856     0.515683252164    15.994914619570
         N            1.010293075307     0.555582652144     0.104805252164    14.003074004430
         C           -0.530396824693     0.308770652144     0.288143452164    12.000000000000
         C            1.411423075307     1.846337652144    -0.454364747836    12.000000000000
         C            1.871054075307    -0.530400347856     0.224856252164    12.000000000000
         C           -1.189486924693     0.547127652144     1.280008252164    12.000000000000
         C           -2.543607924693     0.219978652144     1.023809252164    12.000000000000
         C            3.343541075307    -0.248502347856     0.008495252164    12.000000000000
         C           -2.739442924693    -0.265734347856    -0.250484747836    12.000000000000
         H            0.697808075307     2.596319652144    -0.110622747836     1.007825032230
         H            1.413615075307     1.840164652144    -1.551681747836     1.007825032230
         H            2.403017075307     2.124468652144    -0.096317747836     1.007825032230
         H           -0.805732924693     0.934369652144     2.218241252164     1.007825032230
         H           -3.346427924693     0.328106652144     1.745500252164     1.007825032230
         H            3.724116075307     0.469242652144     0.741148252164     1.007825032230
         H            3.537310075307     0.151824652144    -0.990728747836     1.007825032230
         H            3.872494075307    -1.193651347856     0.126544252164     1.007825032230
         H           -3.665730924693    -0.599747347856    -0.700882747836     1.007825032230

  Basis Set: AUG-CC-PVTZ
    Blend: AUG-CC-PVTZ
  Basis Set: (AUG-CC-PVTZ AUX)
    Blend: AUG-CC-PVTZ-JKFIT
	 Reference Energy          =    -797.2576232895829662 [Eh]
	 Singles Energy            =      -0.0000000000000000 [Eh]
	 Same-Spin Energy          =      -0.4836112852639732 [Eh]
	 Opposite-Spin Energy      =      -1.5032230061587089 [Eh]
	 Correlation Energy        =      -1.9868342914226820 [Eh]
	 Total Energy              =    -799.2444575810056904 [Eh]

	 ================> DF-SCS-MP2 Energies <==================
	-----------------------------------------------------------
	 SCS Same-Spin Scale       =       0.3333333333333333 [-]
	 SCS Opposite-Spin Scale   =       1.2000000000000000 [-]
	 SCS Same-Spin Energy      =      -0.1612037617546577 [Eh]
	 SCS Opposite-Spin Energy  =      -1.8038676073904505 [Eh]
	 SCS Correlation Energy    =      -1.9650713691451083 [Eh]
	 SCS Total Energy          =    -799.2226946587280736 [Eh]
	-----------------------------------------------------------

  Dipole Moment: [D]
     X:     0.1422      Y:     3.5434      Z:    -0.5496     Total:     3.5886

*** Psi4 exiting successfully. Buy a developer a beer!
