                               Psi4 1.3.2 release

  ==> Input File <==

--------------------------------------------------------------------------
#psi4
#
memory 32 gb

molecule  {
0 1
  S       -1.3336960    -0.3724180    -1.1448160
  O        1.3948110    -1.6888110     0.5141610
  N        0.9516030     0.5158590     0.1032830
  C       -0.4218055     0.2159002     0.2021078
  C        1.3527330     1.8066140    -0.4558870
  C        1.8123640    -0.5701240     0.2233340
  C       -1.2481770     0.5074040     1.2784860
  C       -2.6022980     0.1802550     1.0222870
  C        3.2848510    -0.2882260     0.0069730
  C       -2.7981330    -0.3054580    -0.2520070
  H        0.6391180     2.5565960    -0.1121450
  H        1.3549250     1.8004410    -1.5532040
  H        2.3443270     2.0847450    -0.0978400
  H       -0.8644230     0.8946460     2.2167190
  H       -3.4051180     0.2883830     1.7439780
  H        3.6654260     0.4295190     0.7396260
  H        3.4786200     0.1121010    -0.9922510
  H        3.8138040    -1.2333750     0.1250220
  H       -3.7244210    -0.6394710    -0.7024050
units angstrom
no_reorient  #important for SAPT in psi4, default
symmetry c1  #important for SAPT in psi4, default
}

set PROPERTIES_ORIGIN ["COM"]
properties('MP2/aug-cc-pvtz', properties = ['dipole'])
--------------------------------------------------------------------------

    Molecular point group: c1
  Charge       = 0
  Multiplicity = 1
  Basis Set: AUG-CC-PVTZ
    Blend: AUG-CC-PVTZ
  Basis Set: (AUG-CC-PVTZ AUX)
    Blend: AUG-CC-PVTZ-JKFIT

    Orbital Energies [Eh]
    ---------------------

    Doubly Occupied:

       1A    -91.983196     2A    -20.522851     3A    -15.602447
       4A    -11.357443     5A    -11.297293     6A    -11.279141
       7A    -11.262417     8A    -11.242613     9A    -11.239252
      10A    -11.237956    11A     -8.983639    12A     -6.664600
      13A     -6.664140    14A     -6.663349    15A     -1.380810
      16A     -1.262857    17A     -1.158433    18A     -1.021293
      19A     -0.986980    20A     -0.983623    21A     -0.941894
      22A     -0.811185    23A     -0.761650    24A     -0.714276
      25A     -0.688716    26A     -0.680599    27A     -0.648239
      28A     -0.624915    29A     -0.591125    30A     -0.579856
      31A     -0.565678    32A     -0.563513    33A     -0.554637
      34A     -0.547622    35A     -0.514860    36A     -0.504721
      37A     -0.478104    38A     -0.427147    39A     -0.387349
      40A     -0.345290    41A     -0.319409

  @DF-RHF Final Energy:  -797.29618720272720

   => Energetics <=

    Nuclear Repulsion Energy =            606.5539480594404722
    One-Electron Energy =               -2297.6100346020703000
    Two-Electron Energy =                 893.7598993399026313
    Total Energy =                       -797.2961872027271966
  Basis Set: (AUG-CC-PVTZ AUX)
    Blend: AUG-CC-PVTZ-RI
    Molecular point group: c1

    Geometry (in Angstrom), charge = 0, multiplicity = 1:

       Center              X                  Y                   Z               Mass
    ------------   -----------------  -----------------  -----------------  -----------------
         S           -1.287953360963    -0.328580831315    -1.136752483473    31.972071174400
         O            1.440553639037    -1.644973831315     0.522224516527    15.994914619570
         N            0.997345639037     0.559696168685     0.111346516527    14.003074004430
         C           -0.376062860963     0.259737368685     0.210171316527    12.000000000000
         C            1.398475639037     1.850451168685    -0.447823483473    12.000000000000
         C            1.858106639037    -0.526286831315     0.231397516527    12.000000000000
         C           -1.202434360963     0.551241168685     1.286549516527    12.000000000000
         C           -2.556555360963     0.224092168685     1.030350516527    12.000000000000
         C            3.330593639037    -0.244388831315     0.015036516527    12.000000000000
         C           -2.752390360963    -0.261620831315    -0.243943483473    12.000000000000
         H            0.684860639037     2.600433168685    -0.104081483473     1.007825032230
         H            1.400667639037     1.844278168685    -1.545140483473     1.007825032230
         H            2.390069639037     2.128582168685    -0.089776483473     1.007825032230
         H           -0.818680360963     0.938483168685     2.224782516527     1.007825032230
         H           -3.359375360963     0.332220168685     1.752041516527     1.007825032230
         H            3.711168639037     0.473356168685     0.747689516527     1.007825032230
         H            3.524362639037     0.155938168685    -0.984187483473     1.007825032230
         H            3.859546639037    -1.189537831315     0.133085516527     1.007825032230
         H           -3.678678360963    -0.595633831315    -0.694341483473     1.007825032230

  Basis Set: AUG-CC-PVTZ
    Blend: AUG-CC-PVTZ
  Basis Set: (AUG-CC-PVTZ AUX)
    Blend: AUG-CC-PVTZ-JKFIT
	 Reference Energy          =    -797.2961872027271966 [Eh]
	 Singles Energy            =      -0.0000000000000000 [Eh]
	 Same-Spin Energy          =      -0.4870195065206157 [Eh]
	 Opposite-Spin Energy      =      -1.5061119409783750 [Eh]
	 Correlation Energy        =      -1.9931314474989907 [Eh]
	 Total Energy              =    -799.2893186502261642 [Eh]

	 ================> DF-SCS-MP2 Energies <==================
	-----------------------------------------------------------
	 SCS Same-Spin Scale       =       0.3333333333333333 [-]
	 SCS Opposite-Spin Scale   =       1.2000000000000000 [-]
	 SCS Same-Spin Energy      =      -0.1623398355068719 [Eh]
	 SCS Opposite-Spin Energy  =      -1.8073343291740498 [Eh]
	 SCS Correlation Energy    =      -1.9696741646809217 [Eh]
	 SCS Total Energy          =    -799.2658613674080925 [Eh]
	-----------------------------------------------------------

  Dipole Moment: [D]
     X:     0.6762      Y:     3.5212      Z:    -0.6840     Total:     3.6502

*** Psi4 exiting successfully. Buy a developer a beer!
