                               Psi4 1.4a3.dev225

  ==> Input File <==

--------------------------------------------------------------------------
#psi4
#
memory 32 gb

molecule  {
0 1
  S       -1.3336960    -0.3724180    -1.1448160
  O        1.3948110    -1.6888110     0.5141610
  N        0.9516030     0.5158590     0.1032830
  C       -0.4058404     0.2819487     0.2342983
  C        1.3527330     1.8066140    -0.4558870
  C        1.8123640    -0.5701240     0.2233340
  C       -1.2481770     0.5074040     1.2784860
  C       -2.6022980     0.1802550     1.0222870
  C        3.2848510    -0.2882260     0.0069730
  C       -2.7981330    -0.3054580    -0.2520070
  H        0.6391180     2.5565960    -0.1121450
  H        1.3549250     1.8004410    -1.5532040
  H        2.3443270     2.0847450    -0.0978400
  H       -0.8644230     0.8946460     2.2167190
  H       -3.4051180     0.2883830     1.7439780
  H        3.6654260     0.4295190     0.7396260
  H        3.4786200     0.1121010    -0.9922510
  H        3.8138040    -1.2333750     0.1250220
  H       -3.7244210    -0.6394710    -0.7024050
units angstrom
no_reorient  #important for SAPT in psi4, default
symmetry c1  #important for SAPT in psi4, default
}

set PROPERTIES_ORIGIN ["COM"]
properties('MP2/aug-cc-pvtz', properties = ['dipole'])
--------------------------------------------------------------------------

    Molecular point group: c1
  Charge       = 0
  Multiplicity = 1
  Basis Set: AUG-CC-PVTZ
    Blend: AUG-CC-PVTZ
  Basis Set: (AUG-CC-PVTZ AUX)
    Blend: AUG-CC-PVTZ-JKFIT

    Orbital Energies [Eh]
    ---------------------

    Doubly Occupied:

       1A    -91.977976     2A    -20.524677     3A    -15.603707
       4A    -11.359811     5A    -11.296655     6A    -11.279472
       7A    -11.264204     8A    -11.244105     9A    -11.238565
      10A    -11.237403    11A     -8.977880    12A     -6.658832
      13A     -6.658276    14A     -6.657565    15A     -1.382678
      16A     -1.269276    17A     -1.155118    18A     -1.024215
      19A     -0.988731    20A     -0.980187    21A     -0.942732
      22A     -0.819473    23A     -0.762998    24A     -0.713692
      25A     -0.688885    26A     -0.682386    27A     -0.650420
      28A     -0.625692    29A     -0.592386    30A     -0.581165
      31A     -0.568895    32A     -0.565611    33A     -0.559801
      34A     -0.543877    35A     -0.511570    36A     -0.503391
      37A     -0.472216    38A     -0.428852    39A     -0.385570
      40A     -0.346156    41A     -0.320216

  @DF-RHF Final Energy:  -797.29633672356147

   => Energetics <=

    Nuclear Repulsion Energy =            606.1416783298598148
    One-Electron Energy =               -2296.7853950824819549
    Two-Electron Energy =                 893.3473800290606732
    Total Energy =                       -797.2963367235614669
  Basis Set: (AUG-CC-PVTZ AUX)
    Blend: AUG-CC-PVTZ-RI
    Molecular point group: c1

    Geometry (in Angstrom), charge = 0, multiplicity = 1:

       Center              X                  Y                   Z               Mass
    ------------   -----------------  -----------------  -----------------  -----------------
         S           -1.289189045951    -0.333692928323    -1.139244000445    31.972071174400
         O            1.439317954049    -1.650085928323     0.519732999555    15.994914619570
         N            0.996109954049     0.554584071677     0.108854999555    14.003074004430
         C           -0.361333445951     0.320673771677     0.239870299555    12.000000000000
         C            1.397239954049     1.845339071677    -0.450315000445    12.000000000000
         C            1.856870954049    -0.531398928323     0.228905999555    12.000000000000
         C           -1.203670045951     0.546129071677     1.284057999555    12.000000000000
         C           -2.557791045951     0.218980071677     1.027858999555    12.000000000000
         C            3.329357954049    -0.249500928323     0.012544999555    12.000000000000
         C           -2.753626045951    -0.266732928323    -0.246435000445    12.000000000000
         H            0.683624954049     2.595321071677    -0.106573000445     1.007825032230
         H            1.399431954049     1.839166071677    -1.547632000445     1.007825032230
         H            2.388833954049     2.123470071677    -0.092268000445     1.007825032230
         H           -0.819916045951     0.933371071677     2.222290999555     1.007825032230
         H           -3.360611045951     0.327108071677     1.749549999555     1.007825032230
         H            3.709932954049     0.468244071677     0.745197999555     1.007825032230
         H            3.523126954049     0.150826071677    -0.986679000445     1.007825032230
         H            3.858310954049    -1.194649928323     0.130593999555     1.007825032230
         H           -3.679914045951    -0.600745928323    -0.696833000445     1.007825032230

  Basis Set: AUG-CC-PVTZ
    Blend: AUG-CC-PVTZ
  Basis Set: (AUG-CC-PVTZ AUX)
    Blend: AUG-CC-PVTZ-JKFIT
	 Reference Energy          =    -797.2963367235614669 [Eh]
	 Singles Energy            =      -0.0000000000000000 [Eh]
	 Same-Spin Energy          =      -0.4863777417288187 [Eh]
	 Opposite-Spin Energy      =      -1.5057267153310967 [Eh]
	 Correlation Energy        =      -1.9921044570599153 [Eh]
	 Total Energy              =    -799.2884411806213620 [Eh]

	 ================> DF-SCS-MP2 Energies <==================
	-----------------------------------------------------------
	 SCS Same-Spin Scale       =       0.3333333333333333 [-]
	 SCS Opposite-Spin Scale   =       1.2000000000000000 [-]
	 SCS Same-Spin Energy      =      -0.1621259139096062 [Eh]
	 SCS Opposite-Spin Energy  =      -1.8068720583973159 [Eh]
	 SCS Correlation Energy    =      -1.9689979723069222 [Eh]
	 SCS Total Energy          =    -799.2653346958684324 [Eh]
	-----------------------------------------------------------

  Dipole Moment: [D]
     X:     0.8370      Y:     3.5286      Z:    -0.5441     Total:     3.6671

*** Psi4 exiting successfully. Buy a developer a beer!
