                               Psi4 1.3.2 release

  ==> Input File <==

--------------------------------------------------------------------------
#psi4
#
memory 32 gb

molecule  {
0 1
  S       -1.2298841    -0.3765474    -1.2072217
  O        1.3948110    -1.6888110     0.5141610
  N        0.9516030     0.5158590     0.1032830
  C       -0.4318110     0.2636330     0.1956970
  C        1.3527330     1.8066140    -0.4558870
  C        1.8123640    -0.5701240     0.2233340
  C       -1.2481770     0.5074040     1.2784860
  C       -2.6022980     0.1802550     1.0222870
  C        3.2848510    -0.2882260     0.0069730
  C       -2.7981330    -0.3054580    -0.2520070
  H        0.6391180     2.5565960    -0.1121450
  H        1.3549250     1.8004410    -1.5532040
  H        2.3443270     2.0847450    -0.0978400
  H       -0.8644230     0.8946460     2.2167190
  H       -3.4051180     0.2883830     1.7439780
  H        3.6654260     0.4295190     0.7396260
  H        3.4786200     0.1121010    -0.9922510
  H        3.8138040    -1.2333750     0.1250220
  H       -3.7244210    -0.6394710    -0.7024050
units angstrom
no_reorient  #important for SAPT in psi4, default
symmetry c1  #important for SAPT in psi4, default
}

set PROPERTIES_ORIGIN ["COM"]
properties('MP2/aug-cc-pvtz', properties = ['dipole'])
--------------------------------------------------------------------------

    Molecular point group: c1
  Charge       = 0
  Multiplicity = 1
  Basis Set: AUG-CC-PVTZ
    Blend: AUG-CC-PVTZ
  Basis Set: (AUG-CC-PVTZ AUX)
    Blend: AUG-CC-PVTZ-JKFIT

    Orbital Energies [Eh]
    ---------------------

    Doubly Occupied:

       1A    -91.985400     2A    -20.522376     3A    -15.600472
       4A    -11.357659     5A    -11.300345     6A    -11.277829
       7A    -11.272553     8A    -11.245035     9A    -11.242637
      10A    -11.239071    11A     -8.983743    12A     -6.664659
      13A     -6.663929    14A     -6.663311    15A     -1.380039
      16A     -1.263232    17A     -1.146046    18A     -1.021405
      19A     -0.985919    20A     -0.975156    21A     -0.942251
      22A     -0.813868    23A     -0.763486    24A     -0.711193
      25A     -0.687306    26A     -0.679901    27A     -0.648343
      28A     -0.620905    29A     -0.590933    30A     -0.579059
      31A     -0.565584    32A     -0.563913    33A     -0.557981
      34A     -0.541178    35A     -0.506677    36A     -0.500785
      37A     -0.475897    38A     -0.426617    39A     -0.386016
      40A     -0.350288    41A     -0.318007

  @DF-RHF Final Energy:  -797.28882301270278

   => Energetics <=

    Nuclear Repulsion Energy =            604.6814128472240100
    One-Electron Energy =               -2293.8984664067106678
    Two-Electron Energy =                 891.9282305467838796
    Total Energy =                       -797.2888230127027782
  Basis Set: (AUG-CC-PVTZ AUX)
    Blend: AUG-CC-PVTZ-RI
    Molecular point group: c1

    Geometry (in Angstrom), charge = 0, multiplicity = 1:

       Center              X                  Y                   Z               Mass
    ------------   -----------------  -----------------  -----------------  -----------------
         S           -1.204774881026    -0.335553154110    -1.185792841634    31.972071174400
         O            1.419920218974    -1.647816754110     0.535589858366    15.994914619570
         N            0.976712218974     0.556853245890     0.124711858366    14.003074004430
         C           -0.406701781026     0.304627245890     0.217125858366    12.000000000000
         C            1.377842218974     1.847608245890    -0.434458141634    12.000000000000
         C            1.837473218974    -0.529129754110     0.244762858366    12.000000000000
         C           -1.223067781026     0.548398245890     1.299914858366    12.000000000000
         C           -2.577188781026     0.221249245890     1.043715858366    12.000000000000
         C            3.309960218974    -0.247231754110     0.028401858366    12.000000000000
         C           -2.773023781026    -0.264463754110    -0.230578141634    12.000000000000
         H            0.664227218974     2.597590245890    -0.090716141634     1.007825032230
         H            1.380034218974     1.841435245890    -1.531775141634     1.007825032230
         H            2.369436218974     2.125739245890    -0.076411141634     1.007825032230
         H           -0.839313781026     0.935640245890     2.238147858366     1.007825032230
         H           -3.380008781026     0.329377245890     1.765406858366     1.007825032230
         H            3.690535218974     0.470513245890     0.761054858366     1.007825032230
         H            3.503729218974     0.153095245890    -0.970822141634     1.007825032230
         H            3.838913218974    -1.192380754110     0.146450858366     1.007825032230
         H           -3.699311781026    -0.598476754110    -0.680976141634     1.007825032230

  Basis Set: AUG-CC-PVTZ
    Blend: AUG-CC-PVTZ
  Basis Set: (AUG-CC-PVTZ AUX)
    Blend: AUG-CC-PVTZ-JKFIT
	 Reference Energy          =    -797.2888230127027782 [Eh]
	 Singles Energy            =      -0.0000000000000000 [Eh]
	 Same-Spin Energy          =      -0.4858725833469720 [Eh]
	 Opposite-Spin Energy      =      -1.5073912419563822 [Eh]
	 Correlation Energy        =      -1.9932638253033543 [Eh]
	 Total Energy              =    -799.2820868380060801 [Eh]

	 ================> DF-SCS-MP2 Energies <==================
	-----------------------------------------------------------
	 SCS Same-Spin Scale       =       0.3333333333333333 [-]
	 SCS Opposite-Spin Scale   =       1.2000000000000000 [-]
	 SCS Same-Spin Energy      =      -0.1619575277823240 [Eh]
	 SCS Opposite-Spin Energy  =      -1.8088694903476585 [Eh]
	 SCS Correlation Energy    =      -1.9708270181299825 [Eh]
	 SCS Total Energy          =    -799.2596500308327450 [Eh]
	-----------------------------------------------------------

  Dipole Moment: [D]
     X:     0.6066      Y:     3.5153      Z:    -0.5423     Total:     3.6083

*** Psi4 exiting successfully. Buy a developer a beer!
