                               Psi4 1.3.2 release

  ==> Input File <==

--------------------------------------------------------------------------
#psi4
#
memory 32 gb

molecule  {
0 1
  S       -1.3336960    -0.3724180    -1.1448160
  O        1.3948110    -1.6888110     0.5141610
  N        0.9516030     0.5158590     0.1032830
  C       -0.5356935     0.1903703     0.0412917
  C        1.3527330     1.8066140    -0.4558870
  C        1.8123640    -0.5701240     0.2233340
  C       -1.2481770     0.5074040     1.2784860
  C       -2.6022980     0.1802550     1.0222870
  C        3.2848510    -0.2882260     0.0069730
  C       -2.7981330    -0.3054580    -0.2520070
  H        0.6391180     2.5565960    -0.1121450
  H        1.3549250     1.8004410    -1.5532040
  H        2.3443270     2.0847450    -0.0978400
  H       -0.8644230     0.8946460     2.2167190
  H       -3.4051180     0.2883830     1.7439780
  H        3.6654260     0.4295190     0.7396260
  H        3.4786200     0.1121010    -0.9922510
  H        3.8138040    -1.2333750     0.1250220
  H       -3.7244210    -0.6394710    -0.7024050
units angstrom
no_reorient  #important for SAPT in psi4, default
symmetry c1  #important for SAPT in psi4, default
}

set PROPERTIES_ORIGIN ["COM"]
properties('MP2/aug-cc-pvtz', properties = ['dipole'])
--------------------------------------------------------------------------

    Molecular point group: c1
  Charge       = 0
  Multiplicity = 1
  Basis Set: AUG-CC-PVTZ
    Blend: AUG-CC-PVTZ
  Basis Set: (AUG-CC-PVTZ AUX)
    Blend: AUG-CC-PVTZ-JKFIT

    Orbital Energies [Eh]
    ---------------------

    Doubly Occupied:

       1A    -91.995678     2A    -20.518539     3A    -15.600284
       4A    -11.353536     5A    -11.298308     6A    -11.274203
       7A    -11.255073     8A    -11.241292     9A    -11.240217
      10A    -11.240136    11A     -9.000703    12A     -6.682384
      13A     -6.680783    14A     -6.680114    15A     -1.373797
      16A     -1.245954    17A     -1.180762    18A     -1.021407
      19A     -1.007652    20A     -0.968671    21A     -0.935786
      22A     -0.790147    23A     -0.763824    24A     -0.715703
      25A     -0.684819    26A     -0.673929    27A     -0.641464
      28A     -0.623481    29A     -0.587851    30A     -0.575844
      31A     -0.563184    32A     -0.562471    33A     -0.554811
      34A     -0.534729    35A     -0.529589    36A     -0.505201
      37A     -0.490985    38A     -0.423040    39A     -0.386335
      40A     -0.358238    41A     -0.308146

  @DF-RHF Final Energy:  -797.25223766109400

   => Energetics <=

    Nuclear Repulsion Energy =            607.8632087443918408
    One-Electron Energy =               -2300.0927567039525456
    Two-Electron Energy =                 894.9773102984667048
    Total Energy =                       -797.2522376610940000
  Basis Set: (AUG-CC-PVTZ AUX)
    Blend: AUG-CC-PVTZ-RI
    Molecular point group: c1

    Geometry (in Angstrom), charge = 0, multiplicity = 1:

       Center              X                  Y                   Z               Mass
    ------------   -----------------  -----------------  -----------------  -----------------
         S           -1.279138527862    -0.326604839045    -1.124305455853    31.972071174400
         O            1.449368472138    -1.642997839045     0.534671544147    15.994914619570
         N            1.006160472138     0.561672160955     0.123793544147    14.003074004430
         C           -0.481136027862     0.236183460955     0.061802244147    12.000000000000
         C            1.407290472138     1.852427160955    -0.435376455853    12.000000000000
         C            1.866921472138    -0.524310839045     0.243844544147    12.000000000000
         C           -1.193619527862     0.553217160955     1.298996544147    12.000000000000
         C           -2.547740527862     0.226068160955     1.042797544147    12.000000000000
         C            3.339408472138    -0.242412839045     0.027483544147    12.000000000000
         C           -2.743575527862    -0.259644839045    -0.231496455853    12.000000000000
         H            0.693675472138     2.602409160955    -0.091634455853     1.007825032230
         H            1.409482472138     1.846254160955    -1.532693455853     1.007825032230
         H            2.398884472138     2.130558160955    -0.077329455853     1.007825032230
         H           -0.809865527862     0.940459160955     2.237229544147     1.007825032230
         H           -3.350560527862     0.334196160955     1.764488544147     1.007825032230
         H            3.719983472138     0.475332160955     0.760136544147     1.007825032230
         H            3.533177472138     0.157914160955    -0.971740455853     1.007825032230
         H            3.868361472138    -1.187561839045     0.145532544147     1.007825032230
         H           -3.669863527862    -0.593657839045    -0.681894455853     1.007825032230

  Basis Set: AUG-CC-PVTZ
    Blend: AUG-CC-PVTZ
  Basis Set: (AUG-CC-PVTZ AUX)
    Blend: AUG-CC-PVTZ-JKFIT
	 Reference Energy          =    -797.2522376610940000 [Eh]
	 Singles Energy            =      -0.0000000000000000 [Eh]
	 Same-Spin Energy          =      -0.4898460833128491 [Eh]
	 Opposite-Spin Energy      =      -1.5086789797851876 [Eh]
	 Correlation Energy        =      -1.9985250630980367 [Eh]
	 Total Energy              =    -799.2507627241919863 [Eh]

	 ================> DF-SCS-MP2 Energies <==================
	-----------------------------------------------------------
	 SCS Same-Spin Scale       =       0.3333333333333333 [-]
	 SCS Opposite-Spin Scale   =       1.2000000000000000 [-]
	 SCS Same-Spin Energy      =      -0.1632820277709497 [Eh]
	 SCS Opposite-Spin Energy  =      -1.8104147757422251 [Eh]
	 SCS Correlation Energy    =      -1.9736968035131748 [Eh]
	 SCS Total Energy          =    -799.2259344646071213 [Eh]
	-----------------------------------------------------------

  Dipole Moment: [D]
     X:     0.3128      Y:     3.3582      Z:    -1.0147     Total:     3.5221

*** Psi4 exiting successfully. Buy a developer a beer!
