                               Psi4 1.3.2 release

  ==> Input File <==

--------------------------------------------------------------------------
#psi4
#
memory 32 gb

molecule  {
0 1
  S       -1.2826680    -0.3729754    -1.1775126
  O        1.3948110    -1.6888110     0.5141610
  N        0.9516030     0.5158590     0.1032830
  C       -0.4318110     0.2636330     0.1956970
  C        1.3527330     1.8066140    -0.4558870
  C        1.8123640    -0.5701240     0.2233340
  C       -1.2481770     0.5074040     1.2784860
  C       -2.6022980     0.1802550     1.0222870
  C        3.2848510    -0.2882260     0.0069730
  C       -2.7981330    -0.3054580    -0.2520070
  H        0.6391180     2.5565960    -0.1121450
  H        1.3549250     1.8004410    -1.5532040
  H        2.3443270     2.0847450    -0.0978400
  H       -0.8644230     0.8946460     2.2167190
  H       -3.4051180     0.2883830     1.7439780
  H        3.6654260     0.4295190     0.7396260
  H        3.4786200     0.1121010    -0.9922510
  H        3.8138040    -1.2333750     0.1250220
  H       -3.7244210    -0.6394710    -0.7024050
units angstrom
no_reorient  #important for SAPT in psi4, default
symmetry c1  #important for SAPT in psi4, default
}

set PROPERTIES_ORIGIN ["COM"]
properties('MP2/aug-cc-pvtz', properties = ['dipole'])
--------------------------------------------------------------------------

    Molecular point group: c1
  Charge       = 0
  Multiplicity = 1
  Basis Set: AUG-CC-PVTZ
    Blend: AUG-CC-PVTZ
  Basis Set: (AUG-CC-PVTZ AUX)
    Blend: AUG-CC-PVTZ-JKFIT

    Orbital Energies [Eh]
    ---------------------

    Doubly Occupied:

       1A    -91.984250     2A    -20.522668     3A    -15.601435
       4A    -11.357930     5A    -11.298519     6A    -11.277980
       7A    -11.267830     8A    -11.242847     9A    -11.242100
      10A    -11.238466    11A     -8.983484    12A     -6.664414
      13A     -6.663827    14A     -6.663132    15A     -1.380190
      16A     -1.263161    17A     -1.151801    18A     -1.021382
      19A     -0.984920    20A     -0.980536    21A     -0.942304
      22A     -0.813590    23A     -0.762781    24A     -0.712961
      25A     -0.687563    26A     -0.680110    27A     -0.648248
      28A     -0.622605    29A     -0.591069    30A     -0.579328
      31A     -0.565762    32A     -0.563818    33A     -0.556559
      34A     -0.543814    35A     -0.510522    36A     -0.502646
      37A     -0.478097    38A     -0.426982    39A     -0.386633
      40A     -0.347554    41A     -0.319728

  @DF-RHF Final Energy:  -797.29499304571766

   => Energetics <=

    Nuclear Repulsion Energy =            605.4741094514130282
    One-Electron Energy =               -2295.4711122794783478
    Two-Electron Energy =                 892.7020097823477727
    Total Energy =                       -797.2949930457176606
  Basis Set: (AUG-CC-PVTZ AUX)
    Blend: AUG-CC-PVTZ-RI
    Molecular point group: c1

    Geometry (in Angstrom), charge = 0, multiplicity = 1:

       Center              X                  Y                   Z               Mass
    ------------   -----------------  -----------------  -----------------  -----------------
         S           -1.246673813743    -0.332717763249    -1.162210279868    31.972071174400
         O            1.430805186257    -1.648553363249     0.529463320132    15.994914619570
         N            0.987597186257     0.556116636751     0.118585320132    14.003074004430
         C           -0.395816813743     0.303890636751     0.210999320132    12.000000000000
         C            1.388727186257     1.846871636751    -0.440584679868    12.000000000000
         C            1.848358186257    -0.529866363249     0.238636320132    12.000000000000
         C           -1.212182813743     0.547661636751     1.293788320132    12.000000000000
         C           -2.566303813743     0.220512636751     1.037589320132    12.000000000000
         C            3.320845186257    -0.247968363249     0.022275320132    12.000000000000
         C           -2.762138813743    -0.265200363249    -0.236704679868    12.000000000000
         H            0.675112186257     2.596853636751    -0.096842679868     1.007825032230
         H            1.390919186257     1.840698636751    -1.537901679868     1.007825032230
         H            2.380321186257     2.125002636751    -0.082537679868     1.007825032230
         H           -0.828428813743     0.934903636751     2.232021320132     1.007825032230
         H           -3.369123813743     0.328640636751     1.759280320132     1.007825032230
         H            3.701420186257     0.469776636751     0.754928320132     1.007825032230
         H            3.514614186257     0.152358636751    -0.976948679868     1.007825032230
         H            3.849798186257    -1.193117363249     0.140324320132     1.007825032230
         H           -3.688426813743    -0.599213363249    -0.687102679868     1.007825032230

  Basis Set: AUG-CC-PVTZ
    Blend: AUG-CC-PVTZ
  Basis Set: (AUG-CC-PVTZ AUX)
    Blend: AUG-CC-PVTZ-JKFIT
	 Reference Energy          =    -797.2949930457176606 [Eh]
	 Singles Energy            =      -0.0000000000000000 [Eh]
	 Same-Spin Energy          =      -0.4862122507331669 [Eh]
	 Opposite-Spin Energy      =      -1.5064646323175235 [Eh]
	 Correlation Energy        =      -1.9926768830506902 [Eh]
	 Total Energy              =    -799.2876699287683095 [Eh]

	 ================> DF-SCS-MP2 Energies <==================
	-----------------------------------------------------------
	 SCS Same-Spin Scale       =       0.3333333333333333 [-]
	 SCS Opposite-Spin Scale   =       1.2000000000000000 [-]
	 SCS Same-Spin Energy      =      -0.1620707502443889 [Eh]
	 SCS Opposite-Spin Energy  =      -1.8077575587810282 [Eh]
	 SCS Correlation Energy    =      -1.9698283090254172 [Eh]
	 SCS Total Energy          =    -799.2648213547430487 [Eh]
	-----------------------------------------------------------

  Dipole Moment: [D]
     X:     0.6484      Y:     3.5023      Z:    -0.6010     Total:     3.6122

*** Psi4 exiting successfully. Buy a developer a beer!
