                               Psi4 1.3.2 release

  ==> Input File <==

--------------------------------------------------------------------------
#psi4
#
memory 32 gb

molecule  {
0 1
  S       -1.3336960    -0.3724180    -1.1448160
  O        1.3948110    -1.6888110     0.5141610
  N        0.9516030     0.5158590     0.1032830
  C       -0.4522571     0.3973865     0.1369526
  C        1.3527330     1.8066140    -0.4558870
  C        1.8123640    -0.5701240     0.2233340
  C       -1.2481770     0.5074040     1.2784860
  C       -2.6022980     0.1802550     1.0222870
  C        3.2848510    -0.2882260     0.0069730
  C       -2.7981330    -0.3054580    -0.2520070
  H        0.6391180     2.5565960    -0.1121450
  H        1.3549250     1.8004410    -1.5532040
  H        2.3443270     2.0847450    -0.0978400
  H       -0.8644230     0.8946460     2.2167190
  H       -3.4051180     0.2883830     1.7439780
  H        3.6654260     0.4295190     0.7396260
  H        3.4786200     0.1121010    -0.9922510
  H        3.8138040    -1.2333750     0.1250220
  H       -3.7244210    -0.6394710    -0.7024050
units angstrom
no_reorient  #important for SAPT in psi4, default
symmetry c1  #important for SAPT in psi4, default
}

set PROPERTIES_ORIGIN ["COM"]
properties('MP2/aug-cc-pvtz', properties = ['dipole'])
--------------------------------------------------------------------------

    Molecular point group: c1
  Charge       = 0
  Multiplicity = 1
  Basis Set: AUG-CC-PVTZ
    Blend: AUG-CC-PVTZ
  Basis Set: (AUG-CC-PVTZ AUX)
    Blend: AUG-CC-PVTZ-JKFIT

    Orbital Energies [Eh]
    ---------------------

    Doubly Occupied:

       1A    -91.984516     2A    -20.522953     3A    -15.601017
       4A    -11.359785     5A    -11.297035     6A    -11.274227
       7A    -11.265081     8A    -11.243768     9A    -11.242708
      10A    -11.239793    11A     -8.984743    12A     -6.665667
      13A     -6.665207    14A     -6.664428    15A     -1.378951
      16A     -1.263525    17A     -1.158291    18A     -1.022483
      19A     -0.987355    20A     -0.978799    21A     -0.941442
      22A     -0.818638    23A     -0.761917    24A     -0.714389
      25A     -0.686200    26A     -0.677457    27A     -0.647247
      28A     -0.624915    29A     -0.590956    30A     -0.578394
      31A     -0.566906    32A     -0.564336    33A     -0.553588
      34A     -0.546165    35A     -0.513152    36A     -0.504894
      37A     -0.478320    38A     -0.427709    39A     -0.385761
      40A     -0.344870    41A     -0.320999

  @DF-RHF Final Energy:  -797.29003677424646

   => Energetics <=

    Nuclear Repulsion Energy =            605.8666827131341961
    One-Electron Energy =               -2296.2162699619202613
    Two-Electron Energy =                 893.0595504745396056
    Total Energy =                       -797.2900367742464596
  Basis Set: (AUG-CC-PVTZ AUX)
    Blend: AUG-CC-PVTZ-RI
    Molecular point group: c1

    Geometry (in Angstrom), charge = 0, multiplicity = 1:

       Center              X                  Y                   Z               Mass
    ------------   -----------------  -----------------  -----------------  -----------------
         S           -1.285596433353    -0.342627714609    -1.131709527115    31.972071174400
         O            1.442910566647    -1.659020714609     0.527267472885    15.994914619570
         N            0.999702566647     0.545649285391     0.116389472885    14.003074004430
         C           -0.404157533353     0.427176785391     0.150059072885    12.000000000000
         C            1.400832566647     1.836404285391    -0.442780527115    12.000000000000
         C            1.860463566647    -0.540333714609     0.236440472885    12.000000000000
         C           -1.200077433353     0.537194285391     1.291592472885    12.000000000000
         C           -2.554198433353     0.210045285391     1.035393472885    12.000000000000
         C            3.332950566647    -0.258435714609     0.020079472885    12.000000000000
         C           -2.750033433353    -0.275667714609    -0.238900527115    12.000000000000
         H            0.687217566647     2.586386285391    -0.099038527115     1.007825032230
         H            1.403024566647     1.830231285391    -1.540097527115     1.007825032230
         H            2.392426566647     2.114535285391    -0.084733527115     1.007825032230
         H           -0.816323433353     0.924436285391     2.229825472885     1.007825032230
         H           -3.357018433353     0.318173285391     1.757084472885     1.007825032230
         H            3.713525566647     0.459309285391     0.752732472885     1.007825032230
         H            3.526719566647     0.141891285391    -0.979144527115     1.007825032230
         H            3.861903566647    -1.203584714609     0.138128472885     1.007825032230
         H           -3.676321433353    -0.609680714609    -0.689298527115     1.007825032230

  Basis Set: AUG-CC-PVTZ
    Blend: AUG-CC-PVTZ
  Basis Set: (AUG-CC-PVTZ AUX)
    Blend: AUG-CC-PVTZ-JKFIT
	 Reference Energy          =    -797.2900367742464596 [Eh]
	 Singles Energy            =      -0.0000000000000000 [Eh]
	 Same-Spin Energy          =      -0.4874741984767796 [Eh]
	 Opposite-Spin Energy      =      -1.5071934414673243 [Eh]
	 Correlation Energy        =      -1.9946676399441039 [Eh]
	 Total Energy              =    -799.2847044141905144 [Eh]

	 ================> DF-SCS-MP2 Energies <==================
	-----------------------------------------------------------
	 SCS Same-Spin Scale       =       0.3333333333333333 [-]
	 SCS Opposite-Spin Scale   =       1.2000000000000000 [-]
	 SCS Same-Spin Energy      =      -0.1624913994922599 [Eh]
	 SCS Opposite-Spin Energy  =      -1.8086321297607890 [Eh]
	 SCS Correlation Energy    =      -1.9711235292530489 [Eh]
	 SCS Total Energy          =    -799.2611603034995369 [Eh]
	-----------------------------------------------------------

  Dipole Moment: [D]
     X:     0.6245      Y:     3.3363      Z:    -0.6215     Total:     3.4507

*** Psi4 exiting successfully. Buy a developer a beer!
