                               Psi4 1.3.2 release

  ==> Input File <==

--------------------------------------------------------------------------
#psi4
#
memory 32 gb

molecule  {
0 1
  S       -1.3336960    -0.3724180    -1.1448160
  O        1.3948110    -1.6888110     0.5141610
  N        0.9516030     0.5158590     0.1032830
  C       -0.4362794     0.2857726     0.1859593
  C        1.3527330     1.8066140    -0.4558870
  C        1.8123640    -0.5701240     0.2233340
  C       -1.2481770     0.5074040     1.2784860
  C       -2.6022980     0.1802550     1.0222870
  C        3.2848510    -0.2882260     0.0069730
  C       -2.7981330    -0.3054580    -0.2520070
  H        0.6391180     2.5565960    -0.1121450
  H        1.3549250     1.8004410    -1.5532040
  H        2.3443270     2.0847450    -0.0978400
  H       -0.8644230     0.8946460     2.2167190
  H       -3.4051180     0.2883830     1.7439780
  H        3.6654260     0.4295190     0.7396260
  H        3.4786200     0.1121010    -0.9922510
  H        3.8138040    -1.2333750     0.1250220
  H       -3.7244210    -0.6394710    -0.7024050
units angstrom
no_reorient  #important for SAPT in psi4, default
symmetry c1  #important for SAPT in psi4, default
}

set PROPERTIES_ORIGIN ["COM"]
properties('MP2/aug-cc-pvtz', properties = ['dipole'])
--------------------------------------------------------------------------

    Molecular point group: c1
  Charge       = 0
  Multiplicity = 1
  Basis Set: AUG-CC-PVTZ
    Blend: AUG-CC-PVTZ
  Basis Set: (AUG-CC-PVTZ AUX)
    Blend: AUG-CC-PVTZ-JKFIT

    Orbital Energies [Eh]
    ---------------------

    Doubly Occupied:

       1A    -91.983050     2A    -20.522937     3A    -15.602213
       4A    -11.358458     5A    -11.296427     6A    -11.277471
       7A    -11.263054     8A    -11.243186     9A    -11.239364
      10A    -11.238065    11A     -8.983425    12A     -6.664380
      13A     -6.663908    14A     -6.663122    15A     -1.380074
      16A     -1.263235    17A     -1.159003    18A     -1.021850
      19A     -0.987653    20A     -0.982028    21A     -0.942178
      22A     -0.814254    23A     -0.762604    24A     -0.714519
      25A     -0.687482    26A     -0.680017    27A     -0.647987
      28A     -0.624744    29A     -0.591158    30A     -0.579425
      31A     -0.566244    32A     -0.564040    33A     -0.554974
      34A     -0.546501    35A     -0.515262    36A     -0.504930
      37A     -0.478306    38A     -0.427376    39A     -0.386899
      40A     -0.345727    41A     -0.320789

  @DF-RHF Final Energy:  -797.29752041766801

   => Energetics <=

    Nuclear Repulsion Energy =            606.3687394462889415
    One-Electron Energy =               -2297.2358936590480880
    Two-Electron Energy =                 893.5696337950910220
    Total Energy =                       -797.2975204176680109
  Basis Set: (AUG-CC-PVTZ AUX)
    Blend: AUG-CC-PVTZ-RI
    Molecular point group: c1

    Geometry (in Angstrom), charge = 0, multiplicity = 1:

       Center              X                  Y                   Z               Mass
    ------------   -----------------  -----------------  -----------------  -----------------
         S           -1.286833093570    -0.333988894889    -1.135502603482    31.972071174400
         O            1.441673906430    -1.650381894889     0.523474396518    15.994914619570
         N            0.998465906430     0.554288105111     0.112596396518    14.003074004430
         C           -0.389416493570     0.324201705111     0.195272696518    12.000000000000
         C            1.399595906430     1.845043105111    -0.446573603482    12.000000000000
         C            1.859226906430    -0.531694894889     0.232647396518    12.000000000000
         C           -1.201314093570     0.545833105111     1.287799396518    12.000000000000
         C           -2.555435093570     0.218684105111     1.031600396518    12.000000000000
         C            3.331713906430    -0.249796894889     0.016286396518    12.000000000000
         C           -2.751270093570    -0.267028894889    -0.242693603482    12.000000000000
         H            0.685980906430     2.595025105111    -0.102831603482     1.007825032230
         H            1.401787906430     1.838870105111    -1.543890603482     1.007825032230
         H            2.391189906430     2.123174105111    -0.088526603482     1.007825032230
         H           -0.817560093570     0.933075105111     2.226032396518     1.007825032230
         H           -3.358255093570     0.326812105111     1.753291396518     1.007825032230
         H            3.712288906430     0.467948105111     0.748939396518     1.007825032230
         H            3.525482906430     0.150530105111    -0.982937603482     1.007825032230
         H            3.860666906430    -1.194945894889     0.134335396518     1.007825032230
         H           -3.677558093570    -0.601041894889    -0.693091603482     1.007825032230

  Basis Set: AUG-CC-PVTZ
    Blend: AUG-CC-PVTZ
  Basis Set: (AUG-CC-PVTZ AUX)
    Blend: AUG-CC-PVTZ-JKFIT
	 Reference Energy          =    -797.2975204176680109 [Eh]
	 Singles Energy            =      -0.0000000000000000 [Eh]
	 Same-Spin Energy          =      -0.4867391629930828 [Eh]
	 Opposite-Spin Energy      =      -1.5058068963742932 [Eh]
	 Correlation Energy        =      -1.9925460593673761 [Eh]
	 Total Energy              =    -799.2900664770353387 [Eh]

	 ================> DF-SCS-MP2 Energies <==================
	-----------------------------------------------------------
	 SCS Same-Spin Scale       =       0.3333333333333333 [-]
	 SCS Opposite-Spin Scale   =       1.2000000000000000 [-]
	 SCS Same-Spin Energy      =      -0.1622463876643609 [Eh]
	 SCS Opposite-Spin Energy  =      -1.8069682756491519 [Eh]
	 SCS Correlation Energy    =      -1.9692146633135128 [Eh]
	 SCS Total Energy          =    -799.2667350809815616 [Eh]
	-----------------------------------------------------------

  Dipole Moment: [D]
     X:     0.6752      Y:     3.4616      Z:    -0.6535     Total:     3.5869

*** Psi4 exiting successfully. Buy a developer a beer!
