                               Psi4 1.4a3.dev225

  ==> Input File <==

--------------------------------------------------------------------------
#psi4
#
memory 32 gb

molecule  {
0 1
  S       -1.3336960    -0.3724180    -1.1448160
  O        1.3948110    -1.6888110     0.5141610
  N        0.9516030     0.5158590     0.1032830
  C       -0.4318110     0.2636330     0.1956970
  C        1.3527330     1.8066140    -0.4558870
  C        1.8123640    -0.5701240     0.2233340
  C       -1.2185511     0.4985576     1.2391916
  C       -2.6022980     0.1802550     1.0222870
  C        3.2848510    -0.2882260     0.0069730
  C       -2.7981330    -0.3054580    -0.2520070
  H        0.6391180     2.5565960    -0.1121450
  H        1.3549250     1.8004410    -1.5532040
  H        2.3443270     2.0847450    -0.0978400
  H       -0.8644230     0.8946460     2.2167190
  H       -3.4051180     0.2883830     1.7439780
  H        3.6654260     0.4295190     0.7396260
  H        3.4786200     0.1121010    -0.9922510
  H        3.8138040    -1.2333750     0.1250220
  H       -3.7244210    -0.6394710    -0.7024050
units angstrom
no_reorient  #important for SAPT in psi4, default
symmetry c1  #important for SAPT in psi4, default
}

set PROPERTIES_ORIGIN ["COM"]
properties('MP2/aug-cc-pvtz', properties = ['dipole'])
--------------------------------------------------------------------------

    Molecular point group: c1
  Charge       = 0
  Multiplicity = 1
  Basis Set: AUG-CC-PVTZ
    Blend: AUG-CC-PVTZ
  Basis Set: (AUG-CC-PVTZ AUX)
    Blend: AUG-CC-PVTZ-JKFIT

    Orbital Energies [Eh]
    ---------------------

    Doubly Occupied:

       1A    -91.979642     2A    -20.522867     3A    -15.601911
       4A    -11.358082     5A    -11.290534     6A    -11.278096
       7A    -11.263972     8A    -11.242921     9A    -11.240294
      10A    -11.236108    11A     -8.980389    12A     -6.661371
      13A     -6.660892    14A     -6.660035    15A     -1.380324
      16A     -1.264140    17A     -1.161991    18A     -1.022689
      19A     -0.989097    20A     -0.981192    21A     -0.944833
      22A     -0.812393    23A     -0.764931    24A     -0.712466
      25A     -0.687427    26A     -0.680455    27A     -0.647949
      28A     -0.627222    29A     -0.591169    30A     -0.579702
      31A     -0.566582    32A     -0.564549    33A     -0.555909
      34A     -0.538848    35A     -0.517384    36A     -0.505965
      37A     -0.475421    38A     -0.427227    39A     -0.387519
      40A     -0.345902    41A     -0.326830

  @DF-RHF Final Energy:  -797.29741786160139

   => Energetics <=

    Nuclear Repulsion Energy =            607.4333366639569931
    One-Electron Energy =               -2299.3870474654136160
    Two-Electron Energy =                 894.6562929398551205
    Total Energy =                       -797.2974178616013887
  Basis Set: (AUG-CC-PVTZ AUX)
    Blend: AUG-CC-PVTZ-RI
    Molecular point group: c1

    Geometry (in Angstrom), charge = 0, multiplicity = 1:

       Center              X                  Y                   Z               Mass
    ------------   -----------------  -----------------  -----------------  -----------------
         S           -1.289471963023    -0.331590605179    -1.133214940361    31.972071174400
         O            1.439035036977    -1.647983605179     0.525762059639    15.994914619570
         N            0.995827036977     0.556686394821     0.114884059639    14.003074004430
         C           -0.387586963023     0.304460394821     0.207298059639    12.000000000000
         C            1.396957036977     1.847441394821    -0.444285940361    12.000000000000
         C            1.856588036977    -0.529296605179     0.234935059639    12.000000000000
         C           -1.174327063023     0.539384994821     1.250792659639    12.000000000000
         C           -2.558073963023     0.221082394821     1.033888059639    12.000000000000
         C            3.329075036977    -0.247398605179     0.018574059639    12.000000000000
         C           -2.753908963023    -0.264630605179    -0.240405940361    12.000000000000
         H            0.683342036977     2.597423394821    -0.100543940361     1.007825032230
         H            1.399149036977     1.841268394821    -1.541602940361     1.007825032230
         H            2.388551036977     2.125572394821    -0.086238940361     1.007825032230
         H           -0.820198963023     0.935473394821     2.228320059639     1.007825032230
         H           -3.360893963023     0.329210394821     1.755579059639     1.007825032230
         H            3.709650036977     0.470346394821     0.751227059639     1.007825032230
         H            3.522844036977     0.152928394821    -0.980649940361     1.007825032230
         H            3.858028036977    -1.192547605179     0.136623059639     1.007825032230
         H           -3.680196963023    -0.598643605179    -0.690803940361     1.007825032230

  Basis Set: AUG-CC-PVTZ
    Blend: AUG-CC-PVTZ
  Basis Set: (AUG-CC-PVTZ AUX)
    Blend: AUG-CC-PVTZ-JKFIT
	 Reference Energy          =    -797.2974178616013887 [Eh]
	 Singles Energy            =      -0.0000000000000000 [Eh]
	 Same-Spin Energy          =      -0.4854278701147914 [Eh]
	 Opposite-Spin Energy      =      -1.5041879049281297 [Eh]
	 Correlation Energy        =      -1.9896157750429211 [Eh]
	 Total Energy              =    -799.2870336366443098 [Eh]

	 ================> DF-SCS-MP2 Energies <==================
	-----------------------------------------------------------
	 SCS Same-Spin Scale       =       0.3333333333333333 [-]
	 SCS Opposite-Spin Scale   =       1.2000000000000000 [-]
	 SCS Same-Spin Energy      =      -0.1618092900382638 [Eh]
	 SCS Opposite-Spin Energy  =      -1.8050254859137556 [Eh]
	 SCS Correlation Energy    =      -1.9668347759520193 [Eh]
	 SCS Total Energy          =    -799.2642526375534544 [Eh]
	-----------------------------------------------------------

  Dipole Moment: [D]
     X:     0.6594      Y:     3.5058      Z:    -0.6043     Total:     3.6180

*** Psi4 exiting successfully. Buy a developer a beer!
