                               Psi4 1.3.2 release

  ==> Input File <==

--------------------------------------------------------------------------
#psi4
#
memory 32 gb

molecule  {
0 1
  S       -1.3081355    -0.3737419    -1.1610421
  O        1.3948110    -1.6888110     0.5141610
  N        0.9516030     0.5158590     0.1032830
  C       -0.4318110     0.2636330     0.1956970
  C        1.3527330     1.8066140    -0.4558870
  C        1.8123640    -0.5701240     0.2233340
  C       -1.2481770     0.5074040     1.2784860
  C       -2.6022980     0.1802550     1.0222870
  C        3.2848510    -0.2882260     0.0069730
  C       -2.7981330    -0.3054580    -0.2520070
  H        0.6391180     2.5565960    -0.1121450
  H        1.3549250     1.8004410    -1.5532040
  H        2.3443270     2.0847450    -0.0978400
  H       -0.8644230     0.8946460     2.2167190
  H       -3.4051180     0.2883830     1.7439780
  H        3.6654260     0.4295190     0.7396260
  H        3.4786200     0.1121010    -0.9922510
  H        3.8138040    -1.2333750     0.1250220
  H       -3.7244210    -0.6394710    -0.7024050
units angstrom
no_reorient  #important for SAPT in psi4, default
symmetry c1  #important for SAPT in psi4, default
}

set PROPERTIES_ORIGIN ["COM"]
properties('MP2/aug-cc-pvtz', properties = ['dipole'])
--------------------------------------------------------------------------

    Molecular point group: c1
  Charge       = 0
  Multiplicity = 1
  Basis Set: AUG-CC-PVTZ
    Blend: AUG-CC-PVTZ
  Basis Set: (AUG-CC-PVTZ AUX)
    Blend: AUG-CC-PVTZ-JKFIT

    Orbital Energies [Eh]
    ---------------------

    Doubly Occupied:

       1A    -91.983540     2A    -20.522803     3A    -15.601905
       4A    -11.358050     5A    -11.297545     6A    -11.278035
       7A    -11.265391     8A    -11.242941     9A    -11.240631
      10A    -11.238134    11A     -8.983308    12A     -6.664247
      13A     -6.663727    14A     -6.662986    15A     -1.380261
      16A     -1.263137    17A     -1.155152    18A     -1.021493
      19A     -0.985276    20A     -0.982479    21A     -0.942275
      22A     -0.813447    23A     -0.762581    24A     -0.713770
      25A     -0.687721    26A     -0.680211    27A     -0.648187
      28A     -0.623620    29A     -0.591124    30A     -0.579464
      31A     -0.565922    32A     -0.563864    33A     -0.555869
      34A     -0.545169    35A     -0.512756    36A     -0.503711
      37A     -0.478327    38A     -0.427151    39A     -0.386858
      40A     -0.346484    41A     -0.320327

  @DF-RHF Final Energy:  -797.29684188262320

   => Energetics <=

    Nuclear Repulsion Energy =            605.9316985447024990
    One-Electron Energy =               -2296.3773242586239576
    Two-Electron Energy =                 893.1487838312981467
    Total Energy =                       -797.2968418826231982
  Basis Set: (AUG-CC-PVTZ AUX)
    Blend: AUG-CC-PVTZ-RI
    Molecular point group: c1

    Geometry (in Angstrom), charge = 0, multiplicity = 1:

       Center              X                  Y                   Z               Mass
    ------------   -----------------  -----------------  -----------------  -----------------
         S           -1.266889467929    -0.333326197486    -1.149136286258    31.972071174400
         O            1.436057032071    -1.648395297486     0.526066813742    15.994914619570
         N            0.992849032071     0.556274702514     0.115188813742    14.003074004430
         C           -0.390564967929     0.304048702514     0.207602813742    12.000000000000
         C            1.393979032071     1.847029702514    -0.443981186258    12.000000000000
         C            1.853610032071    -0.529708297486     0.235239813742    12.000000000000
         C           -1.206930967929     0.547819702514     1.290391813742    12.000000000000
         C           -2.561051967929     0.220670702514     1.034192813742    12.000000000000
         C            3.326097032071    -0.247810297486     0.018878813742    12.000000000000
         C           -2.756886967929    -0.265042297486    -0.240101186258    12.000000000000
         H            0.680364032071     2.597011702514    -0.100239186258     1.007825032230
         H            1.396171032071     1.840856702514    -1.541298186258     1.007825032230
         H            2.385573032071     2.125160702514    -0.085934186258     1.007825032230
         H           -0.823176967929     0.935061702514     2.228624813742     1.007825032230
         H           -3.363871967929     0.328798702514     1.755883813742     1.007825032230
         H            3.706672032071     0.469934702514     0.751531813742     1.007825032230
         H            3.519866032071     0.152516702514    -0.980345186258     1.007825032230
         H            3.855050032071    -1.192959297486     0.136927813742     1.007825032230
         H           -3.683174967929    -0.599055297486    -0.690499186258     1.007825032230

  Basis Set: AUG-CC-PVTZ
    Blend: AUG-CC-PVTZ
  Basis Set: (AUG-CC-PVTZ AUX)
    Blend: AUG-CC-PVTZ-JKFIT
	 Reference Energy          =    -797.2968418826231982 [Eh]
	 Singles Energy            =      -0.0000000000000000 [Eh]
	 Same-Spin Energy          =      -0.4864382663303568 [Eh]
	 Opposite-Spin Energy      =      -1.5060813809869409 [Eh]
	 Correlation Energy        =      -1.9925196473172977 [Eh]
	 Total Energy              =    -799.2893615299404928 [Eh]

	 ================> DF-SCS-MP2 Energies <==================
	-----------------------------------------------------------
	 SCS Same-Spin Scale       =       0.3333333333333333 [-]
	 SCS Opposite-Spin Scale   =       1.2000000000000000 [-]
	 SCS Same-Spin Energy      =      -0.1621460887767856 [Eh]
	 SCS Opposite-Spin Energy  =      -1.8072976571843289 [Eh]
	 SCS Correlation Energy    =      -1.9694437459611145 [Eh]
	 SCS Total Energy          =    -799.2662856285843418 [Eh]
	-----------------------------------------------------------

  Dipole Moment: [D]
     X:     0.6664      Y:     3.4936      Z:    -0.6288     Total:     3.6117

*** Psi4 exiting successfully. Buy a developer a beer!
