                               Psi4 1.3.2 release

  ==> Input File <==

--------------------------------------------------------------------------
#psi4
#
memory 32 gb

molecule  {
0 1
  S       -1.3336960    -0.3724180    -1.1448160
  O        1.3948110    -1.6888110     0.5141610
  N        0.9516030     0.5158590     0.1032830
  C       -0.3226348     0.3115634     0.2768235
  C        1.3527330     1.8066140    -0.4558870
  C        1.8123640    -0.5701240     0.2233340
  C       -1.2481770     0.5074040     1.2784860
  C       -2.6022980     0.1802550     1.0222870
  C        3.2848510    -0.2882260     0.0069730
  C       -2.7981330    -0.3054580    -0.2520070
  H        0.6391180     2.5565960    -0.1121450
  H        1.3549250     1.8004410    -1.5532040
  H        2.3443270     2.0847450    -0.0978400
  H       -0.8644230     0.8946460     2.2167190
  H       -3.4051180     0.2883830     1.7439780
  H        3.6654260     0.4295190     0.7396260
  H        3.4786200     0.1121010    -0.9922510
  H        3.8138040    -1.2333750     0.1250220
  H       -3.7244210    -0.6394710    -0.7024050
units angstrom
no_reorient  #important for SAPT in psi4, default
symmetry c1  #important for SAPT in psi4, default
}

set PROPERTIES_ORIGIN ["COM"]
properties('MP2/aug-cc-pvtz', properties = ['dipole'])
--------------------------------------------------------------------------

    Molecular point group: c1
  Charge       = 0
  Multiplicity = 1
  Basis Set: AUG-CC-PVTZ
    Blend: AUG-CC-PVTZ
  Basis Set: (AUG-CC-PVTZ AUX)
    Blend: AUG-CC-PVTZ-JKFIT

    Orbital Energies [Eh]
    ---------------------

    Doubly Occupied:

       1A    -91.967017     2A    -20.531115     3A    -15.607600
       4A    -11.365068     5A    -11.299671     6A    -11.283786
       7A    -11.265186     8A    -11.247622     9A    -11.242344
      10A    -11.235939    11A     -8.966531    12A     -6.647489
      13A     -6.646789    14A     -6.646223    15A     -1.392114
      16A     -1.292409    17A     -1.143620    18A     -1.032154
      19A     -0.992066    20A     -0.975363    21A     -0.940688
      22A     -0.838952    23A     -0.761164    24A     -0.712332
      25A     -0.690592    26A     -0.689033    27A     -0.658165
      28A     -0.628165    29A     -0.596537    30A     -0.586913
      31A     -0.579895    32A     -0.570044    33A     -0.562489
      34A     -0.543263    35A     -0.502082    36A     -0.499243
      37A     -0.462351    38A     -0.434664    39A     -0.377530
      40A     -0.342825    41A     -0.313335

  @DF-RHF Final Energy:  -797.27758517251880

   => Energetics <=

    Nuclear Repulsion Energy =            605.9120774467578485
    One-Electron Energy =               -2296.2385869114928028
    Two-Electron Energy =                 893.0489242922161566
    Total Energy =                       -797.2775851725187977
  Basis Set: (AUG-CC-PVTZ AUX)
    Blend: AUG-CC-PVTZ-RI
    Molecular point group: c1

    Geometry (in Angstrom), charge = 0, multiplicity = 1:

       Center              X                  Y                   Z               Mass
    ------------   -----------------  -----------------  -----------------  -----------------
         S           -1.295629087721    -0.335985080594    -1.142535414296    31.972071174400
         O            1.432877912279    -1.652378080594     0.516441585704    15.994914619570
         N            0.989669912279     0.552291919406     0.105563585704    14.003074004430
         C           -0.284567887721     0.347996319406     0.279104085704    12.000000000000
         C            1.390799912279     1.843046919406    -0.453606414296    12.000000000000
         C            1.850430912279    -0.533691080594     0.225614585704    12.000000000000
         C           -1.210110087721     0.543836919406     1.280766585704    12.000000000000
         C           -2.564231087721     0.216687919406     1.024567585704    12.000000000000
         C            3.322917912279    -0.251793080594     0.009253585704    12.000000000000
         C           -2.760066087721    -0.269025080594    -0.249726414296    12.000000000000
         H            0.677184912279     2.593028919406    -0.109864414296     1.007825032230
         H            1.392991912279     1.836873919406    -1.550923414296     1.007825032230
         H            2.382393912279     2.121177919406    -0.095559414296     1.007825032230
         H           -0.826356087721     0.931078919406     2.218999585704     1.007825032230
         H           -3.367051087721     0.324815919406     1.746258585704     1.007825032230
         H            3.703492912279     0.465951919406     0.741906585704     1.007825032230
         H            3.516686912279     0.148533919406    -0.989970414296     1.007825032230
         H            3.851870912279    -1.196942080594     0.127302585704     1.007825032230
         H           -3.686354087721    -0.603038080594    -0.700124414296     1.007825032230

  Basis Set: AUG-CC-PVTZ
    Blend: AUG-CC-PVTZ
  Basis Set: (AUG-CC-PVTZ AUX)
    Blend: AUG-CC-PVTZ-JKFIT
	 Reference Energy          =    -797.2775851725187977 [Eh]
	 Singles Energy            =      -0.0000000000000000 [Eh]
	 Same-Spin Energy          =      -0.4879010757873730 [Eh]
	 Opposite-Spin Energy      =      -1.5081064448249397 [Eh]
	 Correlation Energy        =      -1.9960075206123127 [Eh]
	 Total Energy              =    -799.2735926931311496 [Eh]

	 ================> DF-SCS-MP2 Energies <==================
	-----------------------------------------------------------
	 SCS Same-Spin Scale       =       0.3333333333333333 [-]
	 SCS Opposite-Spin Scale   =       1.2000000000000000 [-]
	 SCS Same-Spin Energy      =      -0.1626336919291243 [Eh]
	 SCS Opposite-Spin Energy  =      -1.8097277337899276 [Eh]
	 SCS Correlation Energy    =      -1.9723614257190518 [Eh]
	 SCS Total Energy          =    -799.2499465982378979 [Eh]
	-----------------------------------------------------------

  Dipole Moment: [D]
     X:     1.3479      Y:     3.6002      Z:    -0.3454     Total:     3.8597

*** Psi4 exiting successfully. Buy a developer a beer!
