                               Psi4 1.3.2 release

  ==> Input File <==

--------------------------------------------------------------------------
#psi4
#
memory 32 gb

molecule  {
0 1
  S       -1.3336960    -0.3724180    -1.1448160
  O        1.3948110    -1.6888110     0.5141610
  N        0.9516030     0.5158590     0.1032830
  C       -0.3323479     0.2561454     0.1268532
  C        1.3527330     1.8066140    -0.4558870
  C        1.8123640    -0.5701240     0.2233340
  C       -1.2481770     0.5074040     1.2784860
  C       -2.6022980     0.1802550     1.0222870
  C        3.2848510    -0.2882260     0.0069730
  C       -2.7981330    -0.3054580    -0.2520070
  H        0.6391180     2.5565960    -0.1121450
  H        1.3549250     1.8004410    -1.5532040
  H        2.3443270     2.0847450    -0.0978400
  H       -0.8644230     0.8946460     2.2167190
  H       -3.4051180     0.2883830     1.7439780
  H        3.6654260     0.4295190     0.7396260
  H        3.4786200     0.1121010    -0.9922510
  H        3.8138040    -1.2333750     0.1250220
  H       -3.7244210    -0.6394710    -0.7024050
units angstrom
no_reorient  #important for SAPT in psi4, default
symmetry c1  #important for SAPT in psi4, default
}

set PROPERTIES_ORIGIN ["COM"]
properties('MP2/aug-cc-pvtz', properties = ['dipole'])
--------------------------------------------------------------------------

    Molecular point group: c1
  Charge       = 0
  Multiplicity = 1
  Basis Set: AUG-CC-PVTZ
    Blend: AUG-CC-PVTZ
  Basis Set: (AUG-CC-PVTZ AUX)
    Blend: AUG-CC-PVTZ-JKFIT

    Orbital Energies [Eh]
    ---------------------

    Doubly Occupied:

       1A    -91.984015     2A    -20.528950     3A    -15.603717
       4A    -11.362564     5A    -11.300595     6A    -11.281637
       7A    -11.260899     8A    -11.245873     9A    -11.244354
      10A    -11.237884    11A     -8.983782    12A     -6.664676
      13A     -6.664406    14A     -6.663662    15A     -1.390117
      16A     -1.288623    17A     -1.145959    18A     -1.029266
      19A     -0.988800    20A     -0.977416    21A     -0.937730
      22A     -0.833510    23A     -0.755641    24A     -0.711111
      25A     -0.687944    26A     -0.686932    27A     -0.654663
      28A     -0.629032    29A     -0.594933    30A     -0.584518
      31A     -0.574053    32A     -0.567462    33A     -0.556639
      34A     -0.548617    35A     -0.506775    36A     -0.502449
      37A     -0.470832    38A     -0.432960    39A     -0.384140
      40A     -0.341512    41A     -0.304026

  @DF-RHF Final Energy:  -797.27153853746233

   => Energetics <=

    Nuclear Repulsion Energy =            606.9020901625640363
    One-Electron Energy =               -2298.1219081182293849
    Two-Electron Energy =                 893.9482794182030148
    Total Energy =                       -797.2715385374623338
  Basis Set: (AUG-CC-PVTZ AUX)
    Blend: AUG-CC-PVTZ-RI
    Molecular point group: c1

    Geometry (in Angstrom), charge = 0, multiplicity = 1:

       Center              X                  Y                   Z               Mass
    ------------   -----------------  -----------------  -----------------  -----------------
         S           -1.294877302148    -0.331695775129    -1.130927842254    31.972071174400
         O            1.433629697852    -1.648088775129     0.528049157746    15.994914619570
         N            0.990421697852     0.556581224871     0.117171157746    14.003074004430
         C           -0.293529202148     0.296867624871     0.140741357746    12.000000000000
         C            1.391551697852     1.847336224871    -0.441998842254    12.000000000000
         C            1.851182697852    -0.529401775129     0.237222157746    12.000000000000
         C           -1.209358302148     0.548126224871     1.292374157746    12.000000000000
         C           -2.563479302148     0.220977224871     1.036175157746    12.000000000000
         C            3.323669697852    -0.247503775129     0.020861157746    12.000000000000
         C           -2.759314302148    -0.264735775129    -0.238118842254    12.000000000000
         H            0.677936697852     2.597318224871    -0.098256842254     1.007825032230
         H            1.393743697852     1.841163224871    -1.539315842254     1.007825032230
         H            2.383145697852     2.125467224871    -0.083951842254     1.007825032230
         H           -0.825604302148     0.935368224871     2.230607157746     1.007825032230
         H           -3.366299302148     0.329105224871     1.757866157746     1.007825032230
         H            3.704244697852     0.470241224871     0.753514157746     1.007825032230
         H            3.517438697852     0.152823224871    -0.978362842254     1.007825032230
         H            3.852622697852    -1.192652775129     0.138910157746     1.007825032230
         H           -3.685602302148    -0.598748775129    -0.688516842254     1.007825032230

  Basis Set: AUG-CC-PVTZ
    Blend: AUG-CC-PVTZ
  Basis Set: (AUG-CC-PVTZ AUX)
    Blend: AUG-CC-PVTZ-JKFIT
	 Reference Energy          =    -797.2715385374623338 [Eh]
	 Singles Energy            =      -0.0000000000000000 [Eh]
	 Same-Spin Energy          =      -0.4906180021700408 [Eh]
	 Opposite-Spin Energy      =      -1.5105552921688998 [Eh]
	 Correlation Energy        =      -2.0011732943389404 [Eh]
	 Total Energy              =    -799.2727118318013027 [Eh]

	 ================> DF-SCS-MP2 Energies <==================
	-----------------------------------------------------------
	 SCS Same-Spin Scale       =       0.3333333333333333 [-]
	 SCS Opposite-Spin Scale   =       1.2000000000000000 [-]
	 SCS Same-Spin Energy      =      -0.1635393340566803 [Eh]
	 SCS Opposite-Spin Energy  =      -1.8126663506026797 [Eh]
	 SCS Correlation Energy    =      -1.9762056846593599 [Eh]
	 SCS Total Energy          =    -799.2477442221216961 [Eh]
	-----------------------------------------------------------

  Dipole Moment: [D]
     X:     1.0285      Y:     3.4549      Z:    -0.6868     Total:     3.6696

*** Psi4 exiting successfully. Buy a developer a beer!
