                               Psi4 1.3.2 release

  ==> Input File <==

--------------------------------------------------------------------------
#psi4
#
memory 32 gb

molecule  {
0 1
  S       -1.3336960    -0.3724180    -1.1448160
  O        1.3948110    -1.6888110     0.5141610
  N        0.9484820     0.4802241     0.0116535
  C       -0.4318110     0.2636330     0.1956970
  C        1.3527330     1.8066140    -0.4558870
  C        1.8123640    -0.5701240     0.2233340
  C       -1.2481770     0.5074040     1.2784860
  C       -2.6022980     0.1802550     1.0222870
  C        3.2848510    -0.2882260     0.0069730
  C       -2.7981330    -0.3054580    -0.2520070
  H        0.6391180     2.5565960    -0.1121450
  H        1.3549250     1.8004410    -1.5532040
  H        2.3443270     2.0847450    -0.0978400
  H       -0.8644230     0.8946460     2.2167190
  H       -3.4051180     0.2883830     1.7439780
  H        3.6654260     0.4295190     0.7396260
  H        3.4786200     0.1121010    -0.9922510
  H        3.8138040    -1.2333750     0.1250220
  H       -3.7244210    -0.6394710    -0.7024050
units angstrom
no_reorient  #important for SAPT in psi4, default
symmetry c1  #important for SAPT in psi4, default
}

set PROPERTIES_ORIGIN ["COM"]
properties('MP2/aug-cc-pvtz', properties = ['dipole'])
--------------------------------------------------------------------------

    Molecular point group: c1
  Charge       = 0
  Multiplicity = 1
  Basis Set: AUG-CC-PVTZ
    Blend: AUG-CC-PVTZ
  Basis Set: (AUG-CC-PVTZ AUX)
    Blend: AUG-CC-PVTZ-JKFIT

    Orbital Energies [Eh]
    ---------------------

    Doubly Occupied:

       1A    -91.981097     2A    -20.518817     3A    -15.602744
       4A    -11.356094     5A    -11.298119     6A    -11.279182
       7A    -11.262561     8A    -11.242414     9A    -11.240593
      10A    -11.239255    11A     -8.981620    12A     -6.662574
      13A     -6.662027    14A     -6.661286    15A     -1.379633
      16A     -1.264498    17A     -1.159345    18A     -1.021705
      19A     -0.987627    20A     -0.983351    21A     -0.944780
      22A     -0.815692    23A     -0.764085    24A     -0.714582
      25A     -0.687679    26A     -0.680289    27A     -0.650600
      28A     -0.624690    29A     -0.590511    30A     -0.579752
      31A     -0.566160    32A     -0.564176    33A     -0.559140
      34A     -0.543400    35A     -0.515091    36A     -0.504308
      37A     -0.476869    38A     -0.425452    39A     -0.384936
      40A     -0.345776    41A     -0.321095

  @DF-RHF Final Energy:  -797.29641030178254

   => Energetics <=

    Nuclear Repulsion Energy =            606.9670864839873730
    One-Electron Energy =               -2298.4397806596380178
    Two-Electron Energy =                 894.1762838738682149
    Total Energy =                       -797.2964103017825437
  Basis Set: (AUG-CC-PVTZ AUX)
    Blend: AUG-CC-PVTZ-RI
    Molecular point group: c1

    Geometry (in Angstrom), charge = 0, multiplicity = 1:

       Center              X                  Y                   Z               Mass
    ------------   -----------------  -----------------  -----------------  -----------------
         S           -1.286897058837    -0.329056806723    -1.127980424557    31.972071174400
         O            1.441609941163    -1.645449806723     0.530996575443    15.994914619570
         N            0.995280941163     0.523585293277     0.028489075443    14.003074004430
         C           -0.385012058837     0.306994193277     0.212532575443    12.000000000000
         C            1.399531941163     1.849975193277    -0.439051424557    12.000000000000
         C            1.859162941163    -0.526762806723     0.240169575443    12.000000000000
         C           -1.201378058837     0.550765193277     1.295321575443    12.000000000000
         C           -2.555499058837     0.223616193277     1.039122575443    12.000000000000
         C            3.331649941163    -0.244864806723     0.023808575443    12.000000000000
         C           -2.751334058837    -0.262096806723    -0.235171424557    12.000000000000
         H            0.685916941163     2.599957193277    -0.095309424557     1.007825032230
         H            1.401723941163     1.843802193277    -1.536368424557     1.007825032230
         H            2.391125941163     2.128106193277    -0.081004424557     1.007825032230
         H           -0.817624058837     0.938007193277     2.233554575443     1.007825032230
         H           -3.358319058837     0.331744193277     1.760813575443     1.007825032230
         H            3.712224941163     0.472880193277     0.756461575443     1.007825032230
         H            3.525418941163     0.155462193277    -0.975415424557     1.007825032230
         H            3.860602941163    -1.190013806723     0.141857575443     1.007825032230
         H           -3.677622058837    -0.596109806723    -0.685569424557     1.007825032230

  Basis Set: AUG-CC-PVTZ
    Blend: AUG-CC-PVTZ
  Basis Set: (AUG-CC-PVTZ AUX)
    Blend: AUG-CC-PVTZ-JKFIT
	 Reference Energy          =    -797.2964103017825437 [Eh]
	 Singles Energy            =      -0.0000000000000000 [Eh]
	 Same-Spin Energy          =      -0.4868296472292547 [Eh]
	 Opposite-Spin Energy      =      -1.5058014715894421 [Eh]
	 Correlation Energy        =      -1.9926311188186969 [Eh]
	 Total Energy              =    -799.2890414206012792 [Eh]

	 ================> DF-SCS-MP2 Energies <==================
	-----------------------------------------------------------
	 SCS Same-Spin Scale       =       0.3333333333333333 [-]
	 SCS Opposite-Spin Scale   =       1.2000000000000000 [-]
	 SCS Same-Spin Energy      =      -0.1622765490764182 [Eh]
	 SCS Opposite-Spin Energy  =      -1.8069617659073305 [Eh]
	 SCS Correlation Energy    =      -1.9692383149837487 [Eh]
	 SCS Total Energy          =    -799.2656486167662706 [Eh]
	-----------------------------------------------------------

  Dipole Moment: [D]
     X:     0.6472      Y:     3.6315      Z:    -0.5649     Total:     3.7317

*** Psi4 exiting successfully. Buy a developer a beer!
