                               Psi4 1.3.2 release

  ==> Input File <==

--------------------------------------------------------------------------
#psi4
#
memory 32 gb

molecule  {
0 1
  S       -1.3336960    -0.3724180    -1.1448160
  O        1.3948110    -1.6888110     0.5141610
  N        0.9516030     0.5158590     0.1032830
  C       -0.3336445     0.2815309     0.1891393
  C        1.3527330     1.8066140    -0.4558870
  C        1.8123640    -0.5701240     0.2233340
  C       -1.2481770     0.5074040     1.2784860
  C       -2.6022980     0.1802550     1.0222870
  C        3.2848510    -0.2882260     0.0069730
  C       -2.7981330    -0.3054580    -0.2520070
  H        0.6391180     2.5565960    -0.1121450
  H        1.3549250     1.8004410    -1.5532040
  H        2.3443270     2.0847450    -0.0978400
  H       -0.8644230     0.8946460     2.2167190
  H       -3.4051180     0.2883830     1.7439780
  H        3.6654260     0.4295190     0.7396260
  H        3.4786200     0.1121010    -0.9922510
  H        3.8138040    -1.2333750     0.1250220
  H       -3.7244210    -0.6394710    -0.7024050
units angstrom
no_reorient  #important for SAPT in psi4, default
symmetry c1  #important for SAPT in psi4, default
}

set PROPERTIES_ORIGIN ["COM"]
properties('MP2/aug-cc-pvtz', properties = ['dipole'])
--------------------------------------------------------------------------

    Molecular point group: c1
  Charge       = 0
  Multiplicity = 1
  Basis Set: AUG-CC-PVTZ
    Blend: AUG-CC-PVTZ
  Basis Set: (AUG-CC-PVTZ AUX)
    Blend: AUG-CC-PVTZ-JKFIT

    Orbital Energies [Eh]
    ---------------------

    Doubly Occupied:

       1A    -91.977623     2A    -20.529284     3A    -15.604557
       4A    -11.363202     5A    -11.299615     6A    -11.282076
       7A    -11.262979     8A    -11.246312     9A    -11.243410
      10A    -11.237329    11A     -8.977187    12A     -6.658103
      13A     -6.657660    14A     -6.656988    15A     -1.390219
      16A     -1.289023    17A     -1.144850    18A     -1.029884
      19A     -0.987971    20A     -0.976426    21A     -0.940487
      22A     -0.834901    23A     -0.757628    24A     -0.711830
      25A     -0.688895    26A     -0.687430    27A     -0.655582
      28A     -0.628140    29A     -0.595245    30A     -0.584821
      31A     -0.575284    32A     -0.568114    33A     -0.559260
      34A     -0.546994    35A     -0.505176    36A     -0.501574
      37A     -0.468337    38A     -0.433126    39A     -0.383001
      40A     -0.339728    41A     -0.310565

  @DF-RHF Final Energy:  -797.27962131005620

   => Energetics <=

    Nuclear Repulsion Energy =            606.4765859115040030
    One-Electron Energy =               -2297.3307833506542011
    Two-Electron Energy =                 893.5745761290938844
    Total Energy =                       -797.2796213100561999
  Basis Set: (AUG-CC-PVTZ AUX)
    Blend: AUG-CC-PVTZ-RI
    Molecular point group: c1

    Geometry (in Angstrom), charge = 0, multiplicity = 1:

       Center              X                  Y                   Z               Mass
    ------------   -----------------  -----------------  -----------------  -----------------
         S           -1.294776946424    -0.333660590963    -1.135748732743    31.972071174400
         O            1.433730053576    -1.650053590963     0.523228267257    15.994914619570
         N            0.990522053576     0.554616409037     0.112350267257    14.003074004430
         C           -0.294725446424     0.320288309037     0.198206567257    12.000000000000
         C            1.391652053576     1.845371409037    -0.446819732743    12.000000000000
         C            1.851283053576    -0.531366590963     0.232401267257    12.000000000000
         C           -1.209257946424     0.546161409037     1.287553267257    12.000000000000
         C           -2.563378946424     0.219012409037     1.031354267257    12.000000000000
         C            3.323770053576    -0.249468590963     0.016040267257    12.000000000000
         C           -2.759213946424    -0.266700590963    -0.242939732743    12.000000000000
         H            0.678037053576     2.595353409037    -0.103077732743     1.007825032230
         H            1.393844053576     1.839198409037    -1.544136732743     1.007825032230
         H            2.383246053576     2.123502409037    -0.088772732743     1.007825032230
         H           -0.825503946424     0.933403409037     2.225786267257     1.007825032230
         H           -3.366198946424     0.327140409037     1.753045267257     1.007825032230
         H            3.704345053576     0.468276409037     0.748693267257     1.007825032230
         H            3.517539053576     0.150858409037    -0.983183732743     1.007825032230
         H            3.852723053576    -1.194617590963     0.134089267257     1.007825032230
         H           -3.685501946424    -0.600713590963    -0.693337732743     1.007825032230

  Basis Set: AUG-CC-PVTZ
    Blend: AUG-CC-PVTZ
  Basis Set: (AUG-CC-PVTZ AUX)
    Blend: AUG-CC-PVTZ-JKFIT
	 Reference Energy          =    -797.2796213100561999 [Eh]
	 Singles Energy            =      -0.0000000000000000 [Eh]
	 Same-Spin Energy          =      -0.4892192820113540 [Eh]
	 Opposite-Spin Energy      =      -1.5091281955001308 [Eh]
	 Correlation Energy        =      -1.9983474775114847 [Eh]
	 Total Energy              =    -799.2779687875677155 [Eh]

	 ================> DF-SCS-MP2 Energies <==================
	-----------------------------------------------------------
	 SCS Same-Spin Scale       =       0.3333333333333333 [-]
	 SCS Opposite-Spin Scale   =       1.2000000000000000 [-]
	 SCS Same-Spin Energy      =      -0.1630730940037846 [Eh]
	 SCS Opposite-Spin Energy  =      -1.8109538346001568 [Eh]
	 SCS Correlation Energy    =      -1.9740269286039414 [Eh]
	 SCS Total Energy          =    -799.2536482386601620 [Eh]
	-----------------------------------------------------------

  Dipole Moment: [D]
     X:     1.1216      Y:     3.5052      Z:    -0.5625     Total:     3.7230

*** Psi4 exiting successfully. Buy a developer a beer!
