                               Psi4 1.3.2 release

  ==> Input File <==

--------------------------------------------------------------------------
#psi4
#
memory 32 gb

molecule  {
0 1
  S       -1.3336960    -0.3724180    -1.1448160
  O        1.3948110    -1.6888110     0.5141610
  N        0.9516030     0.5158590     0.1032830
  C       -0.4318110     0.2636330     0.1956970
  C        1.3527330     1.8066140    -0.4558870
  C        1.8123640    -0.5701240     0.2233340
  C       -1.3074288     0.5250969     1.3570747
  C       -2.6022980     0.1802550     1.0222870
  C        3.2848510    -0.2882260     0.0069730
  C       -2.7981330    -0.3054580    -0.2520070
  H        0.6391180     2.5565960    -0.1121450
  H        1.3549250     1.8004410    -1.5532040
  H        2.3443270     2.0847450    -0.0978400
  H       -0.8644230     0.8946460     2.2167190
  H       -3.4051180     0.2883830     1.7439780
  H        3.6654260     0.4295190     0.7396260
  H        3.4786200     0.1121010    -0.9922510
  H        3.8138040    -1.2333750     0.1250220
  H       -3.7244210    -0.6394710    -0.7024050
units angstrom
no_reorient  #important for SAPT in psi4, default
symmetry c1  #important for SAPT in psi4, default
}

set PROPERTIES_ORIGIN ["COM"]
properties('MP2/aug-cc-pvtz', properties = ['dipole'])
--------------------------------------------------------------------------

    Molecular point group: c1
  Charge       = 0
  Multiplicity = 1
  Basis Set: AUG-CC-PVTZ
    Blend: AUG-CC-PVTZ
  Basis Set: (AUG-CC-PVTZ AUX)
    Blend: AUG-CC-PVTZ-JKFIT

    Orbital Energies [Eh]
    ---------------------

    Doubly Occupied:

       1A    -91.989334     2A    -20.523158     3A    -15.603349
       4A    -11.358428     5A    -11.306930     6A    -11.278235
       7A    -11.260465     8A    -11.243314     9A    -11.241192
      10A    -11.237155    11A     -8.988946    12A     -6.669838
      13A     -6.669384    14A     -6.668741    15A     -1.380473
      16A     -1.261913    17A     -1.153910    18A     -1.021053
      19A     -0.994035    20A     -0.978175    21A     -0.936496
      22A     -0.815462    23A     -0.761247    24A     -0.715504
      25A     -0.688399    26A     -0.680221    27A     -0.648553
      28A     -0.621777    29A     -0.591295    30A     -0.579751
      31A     -0.578966    32A     -0.565375    33A     -0.554445
      34A     -0.541631    35A     -0.512007    36A     -0.501059
      37A     -0.481335    38A     -0.427498    39A     -0.385347
      40A     -0.349897    41A     -0.306512

  @DF-RHF Final Energy:  -797.28027696552522

   => Energetics <=

    Nuclear Repulsion Energy =            604.4973032709253857
    One-Electron Energy =               -2293.4135549920115409
    Two-Electron Energy =                 891.6359747555609374
    Total Energy =                       -797.2802769655252177
  Basis Set: (AUG-CC-PVTZ AUX)
    Blend: AUG-CC-PVTZ-RI
    Molecular point group: c1

    Geometry (in Angstrom), charge = 0, multiplicity = 1:

       Center              X                  Y                   Z               Mass
    ------------   -----------------  -----------------  -----------------  -----------------
         S           -1.282592905598    -0.333644724139    -1.142338990762    31.972071174400
         O            1.445914094402    -1.650037724139     0.516638009238    15.994914619570
         N            1.002706094402     0.554632275861     0.105760009238    14.003074004430
         C           -0.380707905598     0.302406275861     0.198174009238    12.000000000000
         C            1.403836094402     1.845387275861    -0.453409990762    12.000000000000
         C            1.863467094402    -0.531350724139     0.225811009238    12.000000000000
         C           -1.256325705598     0.563870175861     1.359551709238    12.000000000000
         C           -2.551194905598     0.219028275861     1.024764009238    12.000000000000
         C            3.335954094402    -0.249452724139     0.009450009238    12.000000000000
         C           -2.747029905598    -0.266684724139    -0.249529990762    12.000000000000
         H            0.690221094402     2.595369275861    -0.109667990762     1.007825032230
         H            1.406028094402     1.839214275861    -1.550726990762     1.007825032230
         H            2.395430094402     2.123518275861    -0.095362990762     1.007825032230
         H           -0.813319905598     0.933419275861     2.219196009238     1.007825032230
         H           -3.354014905598     0.327156275861     1.746455009238     1.007825032230
         H            3.716529094402     0.468292275861     0.742103009238     1.007825032230
         H            3.529723094402     0.150874275861    -0.989773990762     1.007825032230
         H            3.864907094402    -1.194601724139     0.127499009238     1.007825032230
         H           -3.673317905598    -0.600697724139    -0.699927990762     1.007825032230

  Basis Set: AUG-CC-PVTZ
    Blend: AUG-CC-PVTZ
  Basis Set: (AUG-CC-PVTZ AUX)
    Blend: AUG-CC-PVTZ-JKFIT
	 Reference Energy          =    -797.2802769655252177 [Eh]
	 Singles Energy            =      -0.0000000000000000 [Eh]
	 Same-Spin Energy          =      -0.4895508630018365 [Eh]
	 Opposite-Spin Energy      =      -1.5097316437026211 [Eh]
	 Correlation Energy        =      -1.9992825067044577 [Eh]
	 Total Energy              =    -799.2795594722297210 [Eh]

	 ================> DF-SCS-MP2 Energies <==================
	-----------------------------------------------------------
	 SCS Same-Spin Scale       =       0.3333333333333333 [-]
	 SCS Opposite-Spin Scale   =       1.2000000000000000 [-]
	 SCS Same-Spin Energy      =      -0.1631836210006122 [Eh]
	 SCS Opposite-Spin Energy  =      -1.8116779724431453 [Eh]
	 SCS Correlation Energy    =      -1.9748615934437574 [Eh]
	 SCS Total Energy          =    -799.2551385589689517 [Eh]
	-----------------------------------------------------------

  Dipole Moment: [D]
     X:     0.7043      Y:     3.4508      Z:    -0.7426     Total:     3.5993

*** Psi4 exiting successfully. Buy a developer a beer!
