                               Psi4 1.3.2 release

  ==> Input File <==

--------------------------------------------------------------------------
#psi4
#
memory 32 gb

molecule  {
0 1
  S       -1.3839851    -0.3691894    -1.1111438
  O        1.3948110    -1.6888110     0.5141610
  N        0.9516030     0.5158590     0.1032830
  C       -0.4318110     0.2636330     0.1956970
  C        1.3527330     1.8066140    -0.4558870
  C        1.8123640    -0.5701240     0.2233340
  C       -1.2481770     0.5074040     1.2784860
  C       -2.6022980     0.1802550     1.0222870
  C        3.2848510    -0.2882260     0.0069730
  C       -2.7981330    -0.3054580    -0.2520070
  H        0.6391180     2.5565960    -0.1121450
  H        1.3549250     1.8004410    -1.5532040
  H        2.3443270     2.0847450    -0.0978400
  H       -0.8644230     0.8946460     2.2167190
  H       -3.4051180     0.2883830     1.7439780
  H        3.6654260     0.4295190     0.7396260
  H        3.4786200     0.1121010    -0.9922510
  H        3.8138040    -1.2333750     0.1250220
  H       -3.7244210    -0.6394710    -0.7024050
units angstrom
no_reorient  #important for SAPT in psi4, default
symmetry c1  #important for SAPT in psi4, default
}

set PROPERTIES_ORIGIN ["COM"]
properties('MP2/aug-cc-pvtz', properties = ['dipole'])
--------------------------------------------------------------------------

    Molecular point group: c1
  Charge       = 0
  Multiplicity = 1
  Basis Set: AUG-CC-PVTZ
    Blend: AUG-CC-PVTZ
  Basis Set: (AUG-CC-PVTZ AUX)
    Blend: AUG-CC-PVTZ-JKFIT

    Orbital Energies [Eh]
    ---------------------

    Doubly Occupied:

       1A    -91.980899     2A    -20.523108     3A    -15.603235
       4A    -11.358317     5A    -11.294399     6A    -11.278130
       7A    -11.257788     8A    -11.243160     9A    -11.237549
      10A    -11.235761    11A     -8.982715    12A     -6.663783
      13A     -6.663244    14A     -6.662416    15A     -1.380383
      16A     -1.263141    17A     -1.167529    18A     -1.022568
      19A     -0.993508    20A     -0.981256    21A     -0.941999
      22A     -0.812952    23A     -0.762909    24A     -0.715628
      25A     -0.688318    26A     -0.680450    27A     -0.647949
      28A     -0.627453    29A     -0.591224    30A     -0.579881
      31A     -0.566785    32A     -0.564526    33A     -0.554071
      34A     -0.548820    35A     -0.520782    36A     -0.506881
      37A     -0.476152    38A     -0.427534    39A     -0.387105
      40A     -0.345596    41A     -0.320194

  @DF-RHF Final Energy:  -797.29598785804035

   => Energetics <=

    Nuclear Repulsion Energy =            607.5032567739376645
    One-Electron Energy =               -2299.4782972947587041
    Two-Electron Energy =                 894.6790526627806912
    Total Energy =                       -797.2959878580403483
  Basis Set: (AUG-CC-PVTZ AUX)
    Blend: AUG-CC-PVTZ-RI
    Molecular point group: c1

    Geometry (in Angstrom), charge = 0, multiplicity = 1:

       Center              X                  Y                   Z               Mass
    ------------   -----------------  -----------------  -----------------  -----------------
         S           -1.327097548178    -0.329712502947    -1.109527892137    31.972071174400
         O            1.451698551822    -1.649334102947     0.515776907863    15.994914619570
         N            1.008490551822     0.555335897053     0.104898907863    14.003074004430
         C           -0.374923448178     0.303109897053     0.197312907863    12.000000000000
         C            1.409620551822     1.846090897053    -0.454271092137    12.000000000000
         C            1.869251551822    -0.530647102947     0.224949907863    12.000000000000
         C           -1.191289448178     0.546880897053     1.280101907863    12.000000000000
         C           -2.545410448178     0.219731897053     1.023902907863    12.000000000000
         C            3.341738551822    -0.248749102947     0.008588907863    12.000000000000
         C           -2.741245448178    -0.265981102947    -0.250391092137    12.000000000000
         H            0.696005551822     2.596072897053    -0.110529092137     1.007825032230
         H            1.411812551822     1.839917897053    -1.551588092137     1.007825032230
         H            2.401214551822     2.124221897053    -0.096224092137     1.007825032230
         H           -0.807535448178     0.934122897053     2.218334907863     1.007825032230
         H           -3.348230448178     0.327859897053     1.745593907863     1.007825032230
         H            3.722313551822     0.468995897053     0.741241907863     1.007825032230
         H            3.535507551822     0.151577897053    -0.990635092137     1.007825032230
         H            3.870691551822    -1.193898102947     0.126637907863     1.007825032230
         H           -3.667533448178    -0.599994102947    -0.700789092137     1.007825032230

  Basis Set: AUG-CC-PVTZ
    Blend: AUG-CC-PVTZ
  Basis Set: (AUG-CC-PVTZ AUX)
    Blend: AUG-CC-PVTZ-JKFIT
	 Reference Energy          =    -797.2959878580403483 [Eh]
	 Singles Energy            =      -0.0000000000000000 [Eh]
	 Same-Spin Energy          =      -0.4873243395817598 [Eh]
	 Opposite-Spin Energy      =      -1.5052515652266640 [Eh]
	 Correlation Energy        =      -1.9925759048084237 [Eh]
	 Total Energy              =    -799.2885637628487530 [Eh]

	 ================> DF-SCS-MP2 Energies <==================
	-----------------------------------------------------------
	 SCS Same-Spin Scale       =       0.3333333333333333 [-]
	 SCS Opposite-Spin Scale   =       1.2000000000000000 [-]
	 SCS Same-Spin Energy      =      -0.1624414465272533 [Eh]
	 SCS Opposite-Spin Energy  =      -1.8063018782719968 [Eh]
	 SCS Correlation Energy    =      -1.9687433247992501 [Eh]
	 SCS Total Energy          =    -799.2647311828395686 [Eh]
	-----------------------------------------------------------

  Dipole Moment: [D]
     X:     0.7005      Y:     3.4698      Z:    -0.7075     Total:     3.6098

*** Psi4 exiting successfully. Buy a developer a beer!
