                               Psi4 1.3.2 release

  ==> Input File <==

--------------------------------------------------------------------------
#psi4
#
memory 32 gb

molecule  {
0 1
  S       -1.3336960    -0.3724180    -1.1448160
  O        1.3948110    -1.6888110     0.5141610
  N        0.9516030     0.5158590     0.1032830
  C       -0.3943639     0.2793384     0.2214623
  C        1.3527330     1.8066140    -0.4558870
  C        1.8123640    -0.5701240     0.2233340
  C       -1.2481770     0.5074040     1.2784860
  C       -2.6022980     0.1802550     1.0222870
  C        3.2848510    -0.2882260     0.0069730
  C       -2.7981330    -0.3054580    -0.2520070
  H        0.6391180     2.5565960    -0.1121450
  H        1.3549250     1.8004410    -1.5532040
  H        2.3443270     2.0847450    -0.0978400
  H       -0.8644230     0.8946460     2.2167190
  H       -3.4051180     0.2883830     1.7439780
  H        3.6654260     0.4295190     0.7396260
  H        3.4786200     0.1121010    -0.9922510
  H        3.8138040    -1.2333750     0.1250220
  H       -3.7244210    -0.6394710    -0.7024050
units angstrom
no_reorient  #important for SAPT in psi4, default
symmetry c1  #important for SAPT in psi4, default
}

set PROPERTIES_ORIGIN ["COM"]
properties('MP2/aug-cc-pvtz', properties = ['dipole'])
--------------------------------------------------------------------------

    Molecular point group: c1
  Charge       = 0
  Multiplicity = 1
  Basis Set: AUG-CC-PVTZ
    Blend: AUG-CC-PVTZ
  Basis Set: (AUG-CC-PVTZ AUX)
    Blend: AUG-CC-PVTZ-JKFIT

    Orbital Energies [Eh]
    ---------------------

    Doubly Occupied:

       1A    -91.978470     2A    -20.525322     3A    -15.603756
       4A    -11.360248     5A    -11.297260     6A    -11.279810
       7A    -11.263860     8A    -11.244386     9A    -11.239258
      10A    -11.237896    11A     -8.978355    12A     -6.659300
      13A     -6.658777    14A     -6.658066    15A     -1.383714
      16A     -1.272136    17A     -1.153375    18A     -1.024918
      19A     -0.986942    20A     -0.980840    21A     -0.942509
      22A     -0.821841    23A     -0.761824    24A     -0.713134
      25A     -0.688991    26A     -0.683150    27A     -0.651120
      28A     -0.626085    29A     -0.592779    30A     -0.581629
      31A     -0.569317    32A     -0.565735    33A     -0.559578
      34A     -0.545094    35A     -0.510407    36A     -0.503518
      37A     -0.471996    38A     -0.429470    39A     -0.385609
      40A     -0.344467    41A     -0.318780

  @DF-RHF Final Energy:  -797.29517782999471

   => Energetics <=

    Nuclear Repulsion Energy =            606.2249504129352999
    One-Electron Energy =               -2296.9328121015055331
    Two-Electron Energy =                 893.4126838585754058
    Total Energy =                       -797.2951778299947136
  Basis Set: (AUG-CC-PVTZ AUX)
    Blend: AUG-CC-PVTZ-RI
    Molecular point group: c1

    Geometry (in Angstrom), charge = 0, multiplicity = 1:

       Center              X                  Y                   Z               Mass
    ------------   -----------------  -----------------  -----------------  -----------------
         S           -1.290077317166    -0.333490893351    -1.138250505102    31.972071174400
         O            1.438429682834    -1.649883893351     0.520726494898    15.994914619570
         N            0.995221682834     0.554786106649     0.109848494898    14.003074004430
         C           -0.350745217166     0.318265506649     0.228027794898    12.000000000000
         C            1.396351682834     1.845541106649    -0.449321505102    12.000000000000
         C            1.855982682834    -0.531196893351     0.229899494898    12.000000000000
         C           -1.204558317166     0.546331106649     1.285051494898    12.000000000000
         C           -2.558679317166     0.219182106649     1.028852494898    12.000000000000
         C            3.328469682834    -0.249298893351     0.013538494898    12.000000000000
         C           -2.754514317166    -0.266530893351    -0.245441505102    12.000000000000
         H            0.682736682834     2.595523106649    -0.105579505102     1.007825032230
         H            1.398543682834     1.839368106649    -1.546638505102     1.007825032230
         H            2.387945682834     2.123672106649    -0.091274505102     1.007825032230
         H           -0.820804317166     0.933573106649     2.223284494898     1.007825032230
         H           -3.361499317166     0.327310106649     1.750543494898     1.007825032230
         H            3.709044682834     0.468446106649     0.746191494898     1.007825032230
         H            3.522238682834     0.151028106649    -0.985685505102     1.007825032230
         H            3.857422682834    -1.194447893351     0.131587494898     1.007825032230
         H           -3.680802317166    -0.600543893351    -0.695839505102     1.007825032230

  Basis Set: AUG-CC-PVTZ
    Blend: AUG-CC-PVTZ
  Basis Set: (AUG-CC-PVTZ AUX)
    Blend: AUG-CC-PVTZ-JKFIT
	 Reference Energy          =    -797.2951778299947136 [Eh]
	 Singles Energy            =      -0.0000000000000000 [Eh]
	 Same-Spin Energy          =      -0.4868979700137901 [Eh]
	 Opposite-Spin Energy      =      -1.5062770407202066 [Eh]
	 Correlation Energy        =      -1.9931750107339967 [Eh]
	 Total Energy              =    -799.2883528407287486 [Eh]

	 ================> DF-SCS-MP2 Energies <==================
	-----------------------------------------------------------
	 SCS Same-Spin Scale       =       0.3333333333333333 [-]
	 SCS Opposite-Spin Scale   =       1.2000000000000000 [-]
	 SCS Same-Spin Energy      =      -0.1622993233379300 [Eh]
	 SCS Opposite-Spin Energy  =      -1.8075324488642479 [Eh]
	 SCS Correlation Energy    =      -1.9698317722021779 [Eh]
	 SCS Total Energy          =    -799.2650096021968693 [Eh]
	-----------------------------------------------------------

  Dipole Moment: [D]
     X:     0.8713      Y:     3.5192      Z:    -0.5621     Total:     3.6687

*** Psi4 exiting successfully. Buy a developer a beer!
