                               Psi4 1.3.2 release

  ==> Input File <==

--------------------------------------------------------------------------
#psi4
#
memory 32 gb

molecule  {
0 1
  S       -1.2823081    -0.3748717    -1.1768550
  O        1.3948110    -1.6888110     0.5141610
  N        0.9516030     0.5158590     0.1032830
  C       -0.4318110     0.2636330     0.1956970
  C        1.3527330     1.8066140    -0.4558870
  C        1.8123640    -0.5701240     0.2233340
  C       -1.2481770     0.5074040     1.2784860
  C       -2.6022980     0.1802550     1.0222870
  C        3.2848510    -0.2882260     0.0069730
  C       -2.7981330    -0.3054580    -0.2520070
  H        0.6391180     2.5565960    -0.1121450
  H        1.3549250     1.8004410    -1.5532040
  H        2.3443270     2.0847450    -0.0978400
  H       -0.8644230     0.8946460     2.2167190
  H       -3.4051180     0.2883830     1.7439780
  H        3.6654260     0.4295190     0.7396260
  H        3.4786200     0.1121010    -0.9922510
  H        3.8138040    -1.2333750     0.1250220
  H       -3.7244210    -0.6394710    -0.7024050
units angstrom
no_reorient  #important for SAPT in psi4, default
symmetry c1  #important for SAPT in psi4, default
}

set PROPERTIES_ORIGIN ["COM"]
properties('MP2/aug-cc-pvtz', properties = ['dipole'])
--------------------------------------------------------------------------

    Molecular point group: c1
  Charge       = 0
  Multiplicity = 1
  Basis Set: AUG-CC-PVTZ
    Blend: AUG-CC-PVTZ
  Basis Set: (AUG-CC-PVTZ AUX)
    Blend: AUG-CC-PVTZ-JKFIT

    Orbital Energies [Eh]
    ---------------------

    Doubly Occupied:

       1A    -91.984243     2A    -20.522673     3A    -15.601436
       4A    -11.357932     5A    -11.298512     6A    -11.277977
       7A    -11.267828     8A    -11.242848     9A    -11.242095
      10A    -11.238464    11A     -8.983475    12A     -6.664405
      13A     -6.663818    14A     -6.663124    15A     -1.380197
      16A     -1.263159    17A     -1.151793    18A     -1.021382
      19A     -0.984922    20A     -0.980525    21A     -0.942295
      22A     -0.813594    23A     -0.762773    24A     -0.712958
      25A     -0.687563    26A     -0.680114    27A     -0.648248
      28A     -0.622601    29A     -0.591069    30A     -0.579329
      31A     -0.565761    32A     -0.563815    33A     -0.556553
      34A     -0.543813    35A     -0.510518    36A     -0.502638
      37A     -0.478089    38A     -0.426989    39A     -0.386642
      40A     -0.347543    41A     -0.319718

  @DF-RHF Final Energy:  -797.29498817855585

   => Energetics <=

    Nuclear Repulsion Energy =            605.4803462093303779
    One-Electron Energy =               -2295.4838126113554608
    Two-Electron Energy =                 892.7084782234691147
    Total Energy =                       -797.2949881785558546
  Basis Set: (AUG-CC-PVTZ AUX)
    Blend: AUG-CC-PVTZ-RI
    Molecular point group: c1

    Geometry (in Angstrom), charge = 0, multiplicity = 1:

       Center              X                  Y                   Z               Mass
    ------------   -----------------  -----------------  -----------------  -----------------
         S           -1.246388131444    -0.334223012882    -1.161688288538    31.972071174400
         O            1.430730968556    -1.648162312882     0.529327711462    15.994914619570
         N            0.987522968556     0.556507687118     0.118449711462    14.003074004430
         C           -0.395891031444     0.304281687118     0.210863711462    12.000000000000
         C            1.388652968556     1.847262687118    -0.440720288538    12.000000000000
         C            1.848283968556    -0.529475312882     0.238500711462    12.000000000000
         C           -1.212257031444     0.548052687118     1.293652711462    12.000000000000
         C           -2.566378031444     0.220903687118     1.037453711462    12.000000000000
         C            3.320770968556    -0.247577312882     0.022139711462    12.000000000000
         C           -2.762213031444    -0.264809312882    -0.236840288538    12.000000000000
         H            0.675037968556     2.597244687118    -0.096978288538     1.007825032230
         H            1.390844968556     1.841089687118    -1.538037288538     1.007825032230
         H            2.380246968556     2.125393687118    -0.082673288538     1.007825032230
         H           -0.828503031444     0.935294687118     2.231885711462     1.007825032230
         H           -3.369198031444     0.329031687118     1.759144711462     1.007825032230
         H            3.701345968556     0.470167687118     0.754792711462     1.007825032230
         H            3.514539968556     0.152749687118    -0.977084288538     1.007825032230
         H            3.849723968556    -1.192726312882     0.140188711462     1.007825032230
         H           -3.688501031444    -0.598822312882    -0.687238288538     1.007825032230

  Basis Set: AUG-CC-PVTZ
    Blend: AUG-CC-PVTZ
  Basis Set: (AUG-CC-PVTZ AUX)
    Blend: AUG-CC-PVTZ-JKFIT
	 Reference Energy          =    -797.2949881785558546 [Eh]
	 Singles Energy            =      -0.0000000000000000 [Eh]
	 Same-Spin Energy          =      -0.4862133335279494 [Eh]
	 Opposite-Spin Energy      =      -1.5064662487300300 [Eh]
	 Correlation Energy        =      -1.9926795822579795 [Eh]
	 Total Energy              =    -799.2876677608138607 [Eh]

	 ================> DF-SCS-MP2 Energies <==================
	-----------------------------------------------------------
	 SCS Same-Spin Scale       =       0.3333333333333333 [-]
	 SCS Opposite-Spin Scale   =       1.2000000000000000 [-]
	 SCS Same-Spin Energy      =      -0.1620711111759831 [Eh]
	 SCS Opposite-Spin Energy  =      -1.8077594984760359 [Eh]
	 SCS Correlation Energy    =      -1.9698306096520191 [Eh]
	 SCS Total Energy          =    -799.2648187882078901 [Eh]
	-----------------------------------------------------------

  Dipole Moment: [D]
     X:     0.6489      Y:     3.5010      Z:    -0.6007     Total:     3.6110

*** Psi4 exiting successfully. Buy a developer a beer!
