                               Psi4 1.4a3.dev225

  ==> Input File <==

--------------------------------------------------------------------------
#psi4
#
memory 32 gb

molecule  {
0 1
  S       -1.3336960    -0.3724180    -1.1448160
  O        1.3948110    -1.6888110     0.5141610
  N        0.9516030     0.5158590     0.1032830
  C       -0.4514443     0.2600534     0.1970085
  C        1.3527330     1.8066140    -0.4558870
  C        1.8123640    -0.5701240     0.2233340
  C       -1.2481770     0.5074040     1.2784860
  C       -2.6022980     0.1802550     1.0222870
  C        3.2848510    -0.2882260     0.0069730
  C       -2.7981330    -0.3054580    -0.2520070
  H        0.6391180     2.5565960    -0.1121450
  H        1.3549250     1.8004410    -1.5532040
  H        2.3443270     2.0847450    -0.0978400
  H       -0.8644230     0.8946460     2.2167190
  H       -3.4051180     0.2883830     1.7439780
  H        3.6654260     0.4295190     0.7396260
  H        3.4786200     0.1121010    -0.9922510
  H        3.8138040    -1.2333750     0.1250220
  H       -3.7244210    -0.6394710    -0.7024050
units angstrom
no_reorient  #important for SAPT in psi4, default
symmetry c1  #important for SAPT in psi4, default
}

set PROPERTIES_ORIGIN ["COM"]
properties('MP2/aug-cc-pvtz', properties = ['dipole'])
--------------------------------------------------------------------------

    Molecular point group: c1
  Charge       = 0
  Multiplicity = 1
  Basis Set: AUG-CC-PVTZ
    Blend: AUG-CC-PVTZ
  Basis Set: (AUG-CC-PVTZ AUX)
    Blend: AUG-CC-PVTZ-JKFIT

    Orbital Energies [Eh]
    ---------------------

    Doubly Occupied:

       1A    -91.983566     2A    -20.521794     3A    -15.601817
       4A    -11.357224     5A    -11.295947     6A    -11.277347
       7A    -11.262830     8A    -11.242427     9A    -11.239416
      10A    -11.236733    11A     -8.984133    12A     -6.665103
      13A     -6.664610    14A     -6.663805    15A     -1.378724
      16A     -1.258839    17A     -1.161769    18A     -1.020302
      19A     -0.989929    20A     -0.981924    21A     -0.942132
      22A     -0.809063    23A     -0.763539    24A     -0.715570
      25A     -0.687386    26A     -0.678927    27A     -0.646797
      28A     -0.623983    29A     -0.590429    30A     -0.578711
      31A     -0.565406    32A     -0.563960    33A     -0.553864
      34A     -0.545137    35A     -0.517544    36A     -0.505027
      37A     -0.480360    38A     -0.426232    39A     -0.387004
      40A     -0.346982    41A     -0.322389

  @DF-RHF Final Energy:  -797.29797639175513

   => Energetics <=

    Nuclear Repulsion Energy =            606.4372626884943429
    One-Electron Energy =               -2297.3931201948453236
    Two-Electron Energy =                 893.6578811145959662
    Total Energy =                       -797.2979763917551281
  Basis Set: (AUG-CC-PVTZ AUX)
    Blend: AUG-CC-PVTZ-RI
    Molecular point group: c1

    Geometry (in Angstrom), charge = 0, multiplicity = 1:

       Center              X                  Y                   Z               Mass
    ------------   -----------------  -----------------  -----------------  -----------------
         S           -1.285659343373    -0.331998250963    -1.136357802045    31.972071174400
         O            1.442847656627    -1.648391250963     0.522619197955    15.994914619570
         N            0.999639656627     0.556278749037     0.111741197955    14.003074004430
         C           -0.403407643373     0.300473149037     0.205466697955    12.000000000000
         C            1.400769656627     1.847033749037    -0.447428802045    12.000000000000
         C            1.860400656627    -0.529704250963     0.231792197955    12.000000000000
         C           -1.200140343373     0.547823749037     1.286944197955    12.000000000000
         C           -2.554261343373     0.220674749037     1.030745197955    12.000000000000
         C            3.332887656627    -0.247806250963     0.015431197955    12.000000000000
         C           -2.750096343373    -0.265038250963    -0.243548802045    12.000000000000
         H            0.687154656627     2.597015749037    -0.103686802045     1.007825032230
         H            1.402961656627     1.840860749037    -1.544745802045     1.007825032230
         H            2.392363656627     2.125164749037    -0.089381802045     1.007825032230
         H           -0.816386343373     0.935065749037     2.225177197955     1.007825032230
         H           -3.357081343373     0.328802749037     1.752436197955     1.007825032230
         H            3.713462656627     0.469938749037     0.748084197955     1.007825032230
         H            3.526656656627     0.152520749037    -0.983792802045     1.007825032230
         H            3.861840656627    -1.192955250963     0.133480197955     1.007825032230
         H           -3.676384343373    -0.599051250963    -0.693946802045     1.007825032230

  Basis Set: AUG-CC-PVTZ
    Blend: AUG-CC-PVTZ
  Basis Set: (AUG-CC-PVTZ AUX)
    Blend: AUG-CC-PVTZ-JKFIT
	 Reference Energy          =    -797.2979763917551281 [Eh]
	 Singles Energy            =      -0.0000000000000000 [Eh]
	 Same-Spin Energy          =      -0.4863582561293538 [Eh]
	 Opposite-Spin Energy      =      -1.5053216380023025 [Eh]
	 Correlation Energy        =      -1.9916798941316562 [Eh]
	 Total Energy              =    -799.2896562858867355 [Eh]

	 ================> DF-SCS-MP2 Energies <==================
	-----------------------------------------------------------
	 SCS Same-Spin Scale       =       0.3333333333333333 [-]
	 SCS Opposite-Spin Scale   =       1.2000000000000000 [-]
	 SCS Same-Spin Energy      =      -0.1621194187097846 [Eh]
	 SCS Opposite-Spin Energy  =      -1.8063859656027628 [Eh]
	 SCS Correlation Energy    =      -1.9685053843125473 [Eh]
	 SCS Total Energy          =    -799.2664817760676215 [Eh]
	-----------------------------------------------------------

  Dipole Moment: [D]
     X:     0.6053      Y:     3.4829      Z:    -0.6720     Total:     3.5984

*** Psi4 exiting successfully. Buy a developer a beer!
