                               Psi4 1.3.2 release

  ==> Input File <==

--------------------------------------------------------------------------
#psi4
#
memory 32 gb

molecule  {
0 1
  S       -1.3336960    -0.3724180    -1.1448160
  O        1.3948110    -1.6888110     0.5141610
  N        0.9516030     0.5158590     0.1032830
  C       -0.4573827     0.2650218     0.2118999
  C        1.3527330     1.8066140    -0.4558870
  C        1.8123640    -0.5701240     0.2233340
  C       -1.2481770     0.5074040     1.2784860
  C       -2.6022980     0.1802550     1.0222870
  C        3.2848510    -0.2882260     0.0069730
  C       -2.7981330    -0.3054580    -0.2520070
  H        0.6391180     2.5565960    -0.1121450
  H        1.3549250     1.8004410    -1.5532040
  H        2.3443270     2.0847450    -0.0978400
  H       -0.8644230     0.8946460     2.2167190
  H       -3.4051180     0.2883830     1.7439780
  H        3.6654260     0.4295190     0.7396260
  H        3.4786200     0.1121010    -0.9922510
  H        3.8138040    -1.2333750     0.1250220
  H       -3.7244210    -0.6394710    -0.7024050
units angstrom
no_reorient  #important for SAPT in psi4, default
symmetry c1  #important for SAPT in psi4, default
}

set PROPERTIES_ORIGIN ["COM"]
properties('MP2/aug-cc-pvtz', properties = ['dipole'])
--------------------------------------------------------------------------

    Molecular point group: c1
  Charge       = 0
  Multiplicity = 1
  Basis Set: AUG-CC-PVTZ
    Blend: AUG-CC-PVTZ
  Basis Set: (AUG-CC-PVTZ AUX)
    Blend: AUG-CC-PVTZ-JKFIT

    Orbital Energies [Eh]
    ---------------------

    Doubly Occupied:

       1A    -91.982650     2A    -20.521498     3A    -15.601790
       4A    -11.357075     5A    -11.295401     6A    -11.277223
       7A    -11.263305     8A    -11.242328     9A    -11.239382
      10A    -11.235649    11A     -8.983134    12A     -6.664103
      13A     -6.663583    14A     -6.662785    15A     -1.378271
      16A     -1.257632    17A     -1.162610    18A     -1.020105
      19A     -0.991286    20A     -0.981308    21A     -0.942317
      22A     -0.808009    23A     -0.764475    24A     -0.716126
      25A     -0.687277    26A     -0.678566    27A     -0.646539
      28A     -0.623729    29A     -0.590261    30A     -0.578533
      31A     -0.565815    32A     -0.564226    33A     -0.554671
      34A     -0.543233    35A     -0.518022    36A     -0.504713
      37A     -0.479987    38A     -0.425919    39A     -0.386683
      40A     -0.348140    41A     -0.323659

  @DF-RHF Final Energy:  -797.29809252940811

   => Energetics <=

    Nuclear Repulsion Energy =            606.3429764926047483
    One-Electron Energy =               -2297.2180999586335020
    Two-Electron Energy =                 893.5770309366206448
    Total Energy =                       -797.2980925294081089
  Basis Set: (AUG-CC-PVTZ AUX)
    Blend: AUG-CC-PVTZ-RI
    Molecular point group: c1

    Geometry (in Angstrom), charge = 0, multiplicity = 1:

       Center              X                  Y                   Z               Mass
    ------------   -----------------  -----------------  -----------------  -----------------
         S           -1.285199716328    -0.332382800843    -1.137510383578    31.972071174400
         O            1.443307283672    -1.648775800843     0.521466616422    15.994914619570
         N            1.000099283672     0.555894199157     0.110588616422    14.003074004430
         C           -0.408886416328     0.305056999157     0.219205516422    12.000000000000
         C            1.401229283672     1.846649199157    -0.448581383578    12.000000000000
         C            1.860860283672    -0.530088800843     0.230639616422    12.000000000000
         C           -1.199680716328     0.547439199157     1.285791616422    12.000000000000
         C           -2.553801716328     0.220290199157     1.029592616422    12.000000000000
         C            3.333347283672    -0.248190800843     0.014278616422    12.000000000000
         C           -2.749636716328    -0.265422800843    -0.244701383578    12.000000000000
         H            0.687614283672     2.596631199157    -0.104839383578     1.007825032230
         H            1.403421283672     1.840476199157    -1.545898383578     1.007825032230
         H            2.392823283672     2.124780199157    -0.090534383578     1.007825032230
         H           -0.815926716328     0.934681199157     2.224024616422     1.007825032230
         H           -3.356621716328     0.328418199157     1.751283616422     1.007825032230
         H            3.713922283672     0.469554199157     0.746931616422     1.007825032230
         H            3.527116283672     0.152136199157    -0.984945383578     1.007825032230
         H            3.862300283672    -1.193339800843     0.132327616422     1.007825032230
         H           -3.675924716328    -0.599435800843    -0.695099383578     1.007825032230

  Basis Set: AUG-CC-PVTZ
    Blend: AUG-CC-PVTZ
  Basis Set: (AUG-CC-PVTZ AUX)
    Blend: AUG-CC-PVTZ-JKFIT
	 Reference Energy          =    -797.2980925294081089 [Eh]
	 Singles Energy            =      -0.0000000000000000 [Eh]
	 Same-Spin Energy          =      -0.4859300175404172 [Eh]
	 Opposite-Spin Energy      =      -1.5049315450657073 [Eh]
	 Correlation Energy        =      -1.9908615626061246 [Eh]
	 Total Energy              =    -799.2889540920142508 [Eh]

	 ================> DF-SCS-MP2 Energies <==================
	-----------------------------------------------------------
	 SCS Same-Spin Scale       =       0.3333333333333333 [-]
	 SCS Opposite-Spin Scale   =       1.2000000000000000 [-]
	 SCS Same-Spin Energy      =      -0.1619766725134724 [Eh]
	 SCS Opposite-Spin Energy  =      -1.8059178540788485 [Eh]
	 SCS Correlation Energy    =      -1.9678945265923209 [Eh]
	 SCS Total Energy          =    -799.2659870560004265 [Eh]
	-----------------------------------------------------------

  Dipole Moment: [D]
     X:     0.5965      Y:     3.4948      Z:    -0.6437     Total:     3.6033

*** Psi4 exiting successfully. Buy a developer a beer!
