                               Psi4 1.3.2 release

  ==> Input File <==

--------------------------------------------------------------------------
#psi4
#
memory 32 gb

molecule  {
0 1
  S       -1.3336960    -0.3724180    -1.1448160
  O        1.3948110    -1.6888110     0.5141610
  N        0.9443976     0.4619998    -0.0338528
  C       -0.4318110     0.2636330     0.1956970
  C        1.3527330     1.8066140    -0.4558870
  C        1.8123640    -0.5701240     0.2233340
  C       -1.2481770     0.5074040     1.2784860
  C       -2.6022980     0.1802550     1.0222870
  C        3.2848510    -0.2882260     0.0069730
  C       -2.7981330    -0.3054580    -0.2520070
  H        0.6391180     2.5565960    -0.1121450
  H        1.3549250     1.8004410    -1.5532040
  H        2.3443270     2.0847450    -0.0978400
  H       -0.8644230     0.8946460     2.2167190
  H       -3.4051180     0.2883830     1.7439780
  H        3.6654260     0.4295190     0.7396260
  H        3.4786200     0.1121010    -0.9922510
  H        3.8138040    -1.2333750     0.1250220
  H       -3.7244210    -0.6394710    -0.7024050
units angstrom
no_reorient  #important for SAPT in psi4, default
symmetry c1  #important for SAPT in psi4, default
}

set PROPERTIES_ORIGIN ["COM"]
properties('MP2/aug-cc-pvtz', properties = ['dipole'])
--------------------------------------------------------------------------

    Molecular point group: c1
  Charge       = 0
  Multiplicity = 1
  Basis Set: AUG-CC-PVTZ
    Blend: AUG-CC-PVTZ
  Basis Set: (AUG-CC-PVTZ AUX)
    Blend: AUG-CC-PVTZ-JKFIT

    Orbital Energies [Eh]
    ---------------------

    Doubly Occupied:

       1A    -91.980120     2A    -20.517887     3A    -15.603047
       4A    -11.355571     5A    -11.298611     6A    -11.279535
       7A    -11.262148     8A    -11.242468     9A    -11.241428
      10A    -11.239447    11A     -8.980716    12A     -6.661668
      13A     -6.661079    14A     -6.660362    15A     -1.379679
      16A     -1.264482    17A     -1.159209    18A     -1.021798
      19A     -0.987588    20A     -0.983114    21A     -0.945386
      22A     -0.816240    23A     -0.764538    24A     -0.714491
      25A     -0.687474    26A     -0.680297    27A     -0.650766
      28A     -0.624544    29A     -0.590695    30A     -0.579266
      31A     -0.566930    32A     -0.564298    33A     -0.560247
      34A     -0.541510    35A     -0.514743    36A     -0.503866
      37A     -0.476095    38A     -0.425188    39A     -0.384638
      40A     -0.345647    41A     -0.321034

  @DF-RHF Final Energy:  -797.29402346918062

   => Energetics <=

    Nuclear Repulsion Energy =            607.1573769734593498
    One-Electron Energy =               -2298.8270998188127123
    Two-Electron Energy =                 894.3756993761727472
    Total Energy =                       -797.2940234691806154
  Basis Set: (AUG-CC-PVTZ AUX)
    Blend: AUG-CC-PVTZ-RI
    Molecular point group: c1

    Geometry (in Angstrom), charge = 0, multiplicity = 1:

       Center              X                  Y                   Z               Mass
    ------------   -----------------  -----------------  -----------------  -----------------
         S           -1.286528160640    -0.327410809411    -1.123870349139    31.972071174400
         O            1.441978839360    -1.643803809411     0.535106650861    15.994914619570
         N            0.991565439360     0.507006990589    -0.012907149139    14.003074004430
         C           -0.384643160640     0.308640190589     0.216642650861    12.000000000000
         C            1.399900839360     1.851621190589    -0.434941349139    12.000000000000
         C            1.859531839360    -0.525116809411     0.244279650861    12.000000000000
         C           -1.201009160640     0.552411190589     1.299431650861    12.000000000000
         C           -2.555130160640     0.225262190589     1.043232650861    12.000000000000
         C            3.332018839360    -0.243218809411     0.027918650861    12.000000000000
         C           -2.750965160640    -0.260450809411    -0.231061349139    12.000000000000
         H            0.686285839360     2.601603190589    -0.091199349139     1.007825032230
         H            1.402092839360     1.845448190589    -1.532258349139     1.007825032230
         H            2.391494839360     2.129752190589    -0.076894349139     1.007825032230
         H           -0.817255160640     0.939653190589     2.237664650861     1.007825032230
         H           -3.357950160640     0.333390190589     1.764923650861     1.007825032230
         H            3.712593839360     0.474526190589     0.760571650861     1.007825032230
         H            3.525787839360     0.157108190589    -0.971305349139     1.007825032230
         H            3.860971839360    -1.188367809411     0.145967650861     1.007825032230
         H           -3.677253160640    -0.594463809411    -0.681459349139     1.007825032230

  Basis Set: AUG-CC-PVTZ
    Blend: AUG-CC-PVTZ
  Basis Set: (AUG-CC-PVTZ AUX)
    Blend: AUG-CC-PVTZ-JKFIT
	 Reference Energy          =    -797.2940234691806154 [Eh]
	 Singles Energy            =      -0.0000000000000000 [Eh]
	 Same-Spin Energy          =      -0.4869458521201258 [Eh]
	 Opposite-Spin Energy      =      -1.5060185497086676 [Eh]
	 Correlation Energy        =      -1.9929644018287933 [Eh]
	 Total Energy              =    -799.2869878710093872 [Eh]

	 ================> DF-SCS-MP2 Energies <==================
	-----------------------------------------------------------
	 SCS Same-Spin Scale       =       0.3333333333333333 [-]
	 SCS Opposite-Spin Scale   =       1.2000000000000000 [-]
	 SCS Same-Spin Energy      =      -0.1623152840400419 [Eh]
	 SCS Opposite-Spin Energy  =      -1.8072222596504011 [Eh]
	 SCS Correlation Energy    =      -1.9695375436904430 [Eh]
	 SCS Total Energy          =    -799.2635610128710368 [Eh]
	-----------------------------------------------------------

  Dipole Moment: [D]
     X:     0.6572      Y:     3.6754      Z:    -0.5168     Total:     3.7693

*** Psi4 exiting successfully. Buy a developer a beer!
