                               Psi4 1.3.2 release

  ==> Input File <==

--------------------------------------------------------------------------
#psi4
#
memory 32 gb

molecule  {
0 1
  S       -1.3336960    -0.3724180    -1.1448160
  O        1.3948110    -1.6888110     0.5141610
  N        0.9516030     0.5158590     0.1032830
  C       -0.4097390     0.1759099     0.2343368
  C        1.3527330     1.8066140    -0.4558870
  C        1.8123640    -0.5701240     0.2233340
  C       -1.2481770     0.5074040     1.2784860
  C       -2.6022980     0.1802550     1.0222870
  C        3.2848510    -0.2882260     0.0069730
  C       -2.7981330    -0.3054580    -0.2520070
  H        0.6391180     2.5565960    -0.1121450
  H        1.3549250     1.8004410    -1.5532040
  H        2.3443270     2.0847450    -0.0978400
  H       -0.8644230     0.8946460     2.2167190
  H       -3.4051180     0.2883830     1.7439780
  H        3.6654260     0.4295190     0.7396260
  H        3.4786200     0.1121010    -0.9922510
  H        3.8138040    -1.2333750     0.1250220
  H       -3.7244210    -0.6394710    -0.7024050
units angstrom
no_reorient  #important for SAPT in psi4, default
symmetry c1  #important for SAPT in psi4, default
}

set PROPERTIES_ORIGIN ["COM"]
properties('MP2/aug-cc-pvtz', properties = ['dipole'])
--------------------------------------------------------------------------

    Molecular point group: c1
  Charge       = 0
  Multiplicity = 1
  Basis Set: AUG-CC-PVTZ
    Blend: AUG-CC-PVTZ
  Basis Set: (AUG-CC-PVTZ AUX)
    Blend: AUG-CC-PVTZ-JKFIT

    Orbital Energies [Eh]
    ---------------------

    Doubly Occupied:

       1A    -91.981531     2A    -20.522849     3A    -15.602709
       4A    -11.356876     5A    -11.297842     6A    -11.280384
       7A    -11.263085     8A    -11.242270     9A    -11.239101
      10A    -11.237741    11A     -8.981790    12A     -6.662745
      13A     -6.662258    14A     -6.661487    15A     -1.381389
      16A     -1.262542    17A     -1.157411    18A     -1.021125
      19A     -0.986865    20A     -0.984037    21A     -0.941963
      22A     -0.809232    23A     -0.761462    24A     -0.714403
      25A     -0.689858    26A     -0.680769    27A     -0.648597
      28A     -0.625031    29A     -0.591144    30A     -0.580229
      31A     -0.565842    32A     -0.563814    33A     -0.555924
      34A     -0.546413    35A     -0.513336    36A     -0.503995
      37A     -0.476153    38A     -0.427011    39A     -0.387048
      40A     -0.345242    41A     -0.319839

  @DF-RHF Final Energy:  -797.29419631576820

   => Energetics <=

    Nuclear Repulsion Energy =            606.4517258795705175
    One-Electron Energy =               -2297.4251608123718142
    Two-Electron Energy =                 893.6792386170332065
    Total Energy =                       -797.2941963157682039
  Basis Set: (AUG-CC-PVTZ AUX)
    Blend: AUG-CC-PVTZ-RI
    Molecular point group: c1

    Geometry (in Angstrom), charge = 0, multiplicity = 1:

       Center              X                  Y                   Z               Mass
    ------------   -----------------  -----------------  -----------------  -----------------
         S           -1.288887297669    -0.325485616541    -1.139246980312    31.972071174400
         O            1.439619702331    -1.641878616541     0.519730019688    15.994914619570
         N            0.996411702331     0.562791383459     0.108852019688    14.003074004430
         C           -0.364930297669     0.222842283459     0.239905819688    12.000000000000
         C            1.397541702331     1.853546383459    -0.450317980312    12.000000000000
         C            1.857172702331    -0.523191616541     0.228903019688    12.000000000000
         C           -1.203368297669     0.554336383459     1.284055019688    12.000000000000
         C           -2.557489297669     0.227187383459     1.027856019688    12.000000000000
         C            3.329659702331    -0.241293616541     0.012542019688    12.000000000000
         C           -2.753324297669    -0.258525616541    -0.246437980312    12.000000000000
         H            0.683926702331     2.603528383459    -0.106575980312     1.007825032230
         H            1.399733702331     1.847373383459    -1.547634980312     1.007825032230
         H            2.389135702331     2.131677383459    -0.092270980312     1.007825032230
         H           -0.819614297669     0.941578383459     2.222288019688     1.007825032230
         H           -3.360309297669     0.335315383459     1.749547019688     1.007825032230
         H            3.710234702331     0.476451383459     0.745195019688     1.007825032230
         H            3.523428702331     0.159033383459    -0.986681980312     1.007825032230
         H            3.858612702331    -1.186442616541     0.130591019688     1.007825032230
         H           -3.679612297669    -0.592538616541    -0.696835980312     1.007825032230

  Basis Set: AUG-CC-PVTZ
    Blend: AUG-CC-PVTZ
  Basis Set: (AUG-CC-PVTZ AUX)
    Blend: AUG-CC-PVTZ-JKFIT
	 Reference Energy          =    -797.2941963157682039 [Eh]
	 Singles Energy            =      -0.0000000000000000 [Eh]
	 Same-Spin Energy          =      -0.4869177082219899 [Eh]
	 Opposite-Spin Energy      =      -1.5062847995840021 [Eh]
	 Correlation Energy        =      -1.9932025078059921 [Eh]
	 Total Energy              =    -799.2873988235742218 [Eh]

	 ================> DF-SCS-MP2 Energies <==================
	-----------------------------------------------------------
	 SCS Same-Spin Scale       =       0.3333333333333333 [-]
	 SCS Opposite-Spin Scale   =       1.2000000000000000 [-]
	 SCS Same-Spin Energy      =      -0.1623059027406633 [Eh]
	 SCS Opposite-Spin Energy  =      -1.8075417595008023 [Eh]
	 SCS Correlation Energy    =      -1.9698476622414656 [Eh]
	 SCS Total Energy          =    -799.2640439780096813 [Eh]
	-----------------------------------------------------------

  Dipole Moment: [D]
     X:     0.6928      Y:     3.5782      Z:    -0.6530     Total:     3.7026

*** Psi4 exiting successfully. Buy a developer a beer!
