                               Psi4 1.3.2 release

  ==> Input File <==

--------------------------------------------------------------------------
#psi4
#
memory 32 gb

molecule  {
0 1
  S       -1.3336960    -0.3724180    -1.1448160
  O        1.3948110    -1.6888110     0.5141610
  N        0.9508848     0.4981844     0.0573840
  C       -0.4318110     0.2636330     0.1956970
  C        1.3527330     1.8066140    -0.4558870
  C        1.8123640    -0.5701240     0.2233340
  C       -1.2481770     0.5074040     1.2784860
  C       -2.6022980     0.1802550     1.0222870
  C        3.2848510    -0.2882260     0.0069730
  C       -2.7981330    -0.3054580    -0.2520070
  H        0.6391180     2.5565960    -0.1121450
  H        1.3549250     1.8004410    -1.5532040
  H        2.3443270     2.0847450    -0.0978400
  H       -0.8644230     0.8946460     2.2167190
  H       -3.4051180     0.2883830     1.7439780
  H        3.6654260     0.4295190     0.7396260
  H        3.4786200     0.1121010    -0.9922510
  H        3.8138040    -1.2333750     0.1250220
  H       -3.7244210    -0.6394710    -0.7024050
units angstrom
no_reorient  #important for SAPT in psi4, default
symmetry c1  #important for SAPT in psi4, default
}

set PROPERTIES_ORIGIN ["COM"]
properties('MP2/aug-cc-pvtz', properties = ['dipole'])
--------------------------------------------------------------------------

    Molecular point group: c1
  Charge       = 0
  Multiplicity = 1
  Basis Set: AUG-CC-PVTZ
    Blend: AUG-CC-PVTZ
  Basis Set: (AUG-CC-PVTZ AUX)
    Blend: AUG-CC-PVTZ-JKFIT

    Orbital Energies [Eh]
    ---------------------

    Doubly Occupied:

       1A    -91.981971     2A    -20.520523     3A    -15.602506
       4A    -11.356972     5A    -11.297422     6A    -11.278689
       7A    -11.262810     8A    -11.242605     9A    -11.239800
      10A    -11.238733    11A     -8.982419    12A     -6.663374
      13A     -6.662866    14A     -6.662102    15A     -1.379847
      16A     -1.264054    17A     -1.159229    18A     -1.021675
      19A     -0.987614    20A     -0.983151    21A     -0.943723
      22A     -0.814700    23A     -0.763412    24A     -0.714578
      25A     -0.687802    26A     -0.680324    27A     -0.649698
      28A     -0.624761    29A     -0.590665    30A     -0.579872
      31A     -0.565959    32A     -0.564073    33A     -0.557406
      34A     -0.545082    35A     -0.515230    36A     -0.504624
      37A     -0.477515    38A     -0.426172    39A     -0.385736
      40A     -0.345808    41A     -0.320967

  @DF-RHF Final Energy:  -797.29765634407215

   => Energetics <=

    Nuclear Repulsion Energy =            606.7205159397233274
    One-Electron Energy =               -2297.9434005247148889
    Two-Electron Energy =                 893.9252282409194095
    Total Energy =                       -797.2976563440721520
  Basis Set: (AUG-CC-PVTZ AUX)
    Blend: AUG-CC-PVTZ-RI
    Molecular point group: c1

    Geometry (in Angstrom), charge = 0, multiplicity = 1:

       Center              X                  Y                   Z               Mass
    ------------   -----------------  -----------------  -----------------  -----------------
         S           -1.287114076903    -0.330678959865    -1.132110749455    31.972071174400
         O            1.441392923097    -1.647071959865     0.526866250545    15.994914619570
         N            0.997466723097     0.539923440135     0.070089250545    14.003074004430
         C           -0.385229076903     0.305372040135     0.208402250545    12.000000000000
         C            1.399314923097     1.848353040135    -0.443181749455    12.000000000000
         C            1.858945923097    -0.528384959865     0.236039250545    12.000000000000
         C           -1.201595076903     0.549143040135     1.291191250545    12.000000000000
         C           -2.555716076903     0.221994040135     1.034992250545    12.000000000000
         C            3.331432923097    -0.246486959865     0.019678250545    12.000000000000
         C           -2.751551076903    -0.263718959865    -0.239301749455    12.000000000000
         H            0.685699923097     2.598335040135    -0.099439749455     1.007825032230
         H            1.401506923097     1.842180040135    -1.540498749455     1.007825032230
         H            2.390908923097     2.126484040135    -0.085134749455     1.007825032230
         H           -0.817841076903     0.936385040135     2.229424250545     1.007825032230
         H           -3.358536076903     0.330122040135     1.756683250545     1.007825032230
         H            3.712007923097     0.471258040135     0.752331250545     1.007825032230
         H            3.525201923097     0.153840040135    -0.979545749455     1.007825032230
         H            3.860385923097    -1.191635959865     0.137727250545     1.007825032230
         H           -3.677839076903    -0.597731959865    -0.689699749455     1.007825032230

  Basis Set: AUG-CC-PVTZ
    Blend: AUG-CC-PVTZ
  Basis Set: (AUG-CC-PVTZ AUX)
    Blend: AUG-CC-PVTZ-JKFIT
	 Reference Energy          =    -797.2976563440721520 [Eh]
	 Singles Energy            =      -0.0000000000000000 [Eh]
	 Same-Spin Energy          =      -0.4867476915960544 [Eh]
	 Opposite-Spin Energy      =      -1.5057102142342127 [Eh]
	 Correlation Energy        =      -1.9924579058302672 [Eh]
	 Total Energy              =    -799.2901142499024445 [Eh]

	 ================> DF-SCS-MP2 Energies <==================
	-----------------------------------------------------------
	 SCS Same-Spin Scale       =       0.3333333333333333 [-]
	 SCS Opposite-Spin Scale   =       1.2000000000000000 [-]
	 SCS Same-Spin Energy      =      -0.1622492305320181 [Eh]
	 SCS Opposite-Spin Energy  =      -1.8068522570810552 [Eh]
	 SCS Correlation Energy    =      -1.9691014876130732 [Eh]
	 SCS Total Energy          =    -799.2667578316852541 [Eh]
	-----------------------------------------------------------

  Dipole Moment: [D]
     X:     0.6555      Y:     3.5677      Z:    -0.6110     Total:     3.6785

*** Psi4 exiting successfully. Buy a developer a beer!
