                               Psi4 1.3.2 release

  ==> Input File <==

--------------------------------------------------------------------------
#psi4
#
memory 32 gb

molecule  {
0 1
  S       -1.3336960    -0.3724180    -1.1448160
  O        1.3948110    -1.6888110     0.5141610
  N        0.9516030     0.5158590     0.1032830
  C       -0.2354780     0.2994287     0.1825817
  C        1.3527330     1.8066140    -0.4558870
  C        1.8123640    -0.5701240     0.2233340
  C       -1.2481770     0.5074040     1.2784860
  C       -2.6022980     0.1802550     1.0222870
  C        3.2848510    -0.2882260     0.0069730
  C       -2.7981330    -0.3054580    -0.2520070
  H        0.6391180     2.5565960    -0.1121450
  H        1.3549250     1.8004410    -1.5532040
  H        2.3443270     2.0847450    -0.0978400
  H       -0.8644230     0.8946460     2.2167190
  H       -3.4051180     0.2883830     1.7439780
  H        3.6654260     0.4295190     0.7396260
  H        3.4786200     0.1121010    -0.9922510
  H        3.8138040    -1.2333750     0.1250220
  H       -3.7244210    -0.6394710    -0.7024050
units angstrom
no_reorient  #important for SAPT in psi4, default
symmetry c1  #important for SAPT in psi4, default
}

set PROPERTIES_ORIGIN ["COM"]
properties('MP2/aug-cc-pvtz', properties = ['dipole'])
--------------------------------------------------------------------------

    Molecular point group: c1
  Charge       = 0
  Multiplicity = 1
  Basis Set: AUG-CC-PVTZ
    Blend: AUG-CC-PVTZ
  Basis Set: (AUG-CC-PVTZ AUX)
    Blend: AUG-CC-PVTZ-JKFIT

    Orbital Energies [Eh]
    ---------------------

    Doubly Occupied:

       1A    -91.969783     2A    -20.537593     3A    -15.607046
       4A    -11.369488     5A    -11.301963     6A    -11.287089
       7A    -11.262023     8A    -11.250537     9A    -11.247757
      10A    -11.235118    11A     -8.968887    12A     -6.649792
      13A     -6.649298    14A     -6.648753    15A     -1.406254
      16A     -1.321081    17A     -1.131759    18A     -1.040474
      19A     -0.996966    20A     -0.966360    21A     -0.936114
      22A     -0.854971    23A     -0.754001    24A     -0.716911
      25A     -0.695799    26A     -0.684396    27A     -0.664678
      28A     -0.629951    29A     -0.600415    30A     -0.593014
      31A     -0.587018    32A     -0.573171    33A     -0.561035
      34A     -0.546655    35A     -0.501240    36A     -0.491632
      37A     -0.464043    38A     -0.440516    39A     -0.370273
      40A     -0.333236    41A     -0.297876

  @DF-RHF Final Energy:  -797.22787153478930

   => Energetics <=

    Nuclear Repulsion Energy =            606.8290470979599149
    One-Electron Energy =               -2297.8239073211279901
    Two-Electron Energy =                 893.7669886883786603
    Total Energy =                       -797.2278715347893012
  Basis Set: (AUG-CC-PVTZ AUX)
    Blend: AUG-CC-PVTZ-RI
    Molecular point group: c1

    Geometry (in Angstrom), charge = 0, multiplicity = 1:

       Center              X                  Y                   Z               Mass
    ------------   -----------------  -----------------  -----------------  -----------------
         S           -1.302374948968    -0.335045865266    -1.135241180152    31.972071174400
         O            1.426132051032    -1.651438865266     0.523735819848    15.994914619570
         N            0.982924051032     0.553231134734     0.112857819848    14.003074004430
         C           -0.204156948968     0.336800834734     0.192156519848    12.000000000000
         C            1.384054051032     1.843986134734    -0.446312180152    12.000000000000
         C            1.843685051032    -0.532751865266     0.232908819848    12.000000000000
         C           -1.216855948968     0.544776134734     1.288060819848    12.000000000000
         C           -2.570976948968     0.217627134734     1.031861819848    12.000000000000
         C            3.316172051032    -0.250853865266     0.016547819848    12.000000000000
         C           -2.766811948968    -0.268085865266    -0.242432180152    12.000000000000
         H            0.670439051032     2.593968134734    -0.102570180152     1.007825032230
         H            1.386246051032     1.837813134734    -1.543629180152     1.007825032230
         H            2.375648051032     2.122117134734    -0.088265180152     1.007825032230
         H           -0.833101948968     0.932018134734     2.226293819848     1.007825032230
         H           -3.373796948968     0.325755134734     1.753552819848     1.007825032230
         H            3.696747051032     0.466891134734     0.749200819848     1.007825032230
         H            3.509941051032     0.149473134734    -0.982676180152     1.007825032230
         H            3.845125051032    -1.196002865266     0.134596819848     1.007825032230
         H           -3.693099948968    -0.602098865266    -0.692830180152     1.007825032230

  Basis Set: AUG-CC-PVTZ
    Blend: AUG-CC-PVTZ
  Basis Set: (AUG-CC-PVTZ AUX)
    Blend: AUG-CC-PVTZ-JKFIT
	 Reference Energy          =    -797.2278715347893012 [Eh]
	 Singles Energy            =      -0.0000000000000000 [Eh]
	 Same-Spin Energy          =      -0.4930834210965811 [Eh]
	 Opposite-Spin Energy      =      -1.5144437245767406 [Eh]
	 Correlation Energy        =      -2.0075271456733219 [Eh]
	 Total Energy              =    -799.2353986804625947 [Eh]

	 ================> DF-SCS-MP2 Energies <==================
	-----------------------------------------------------------
	 SCS Same-Spin Scale       =       0.3333333333333333 [-]
	 SCS Opposite-Spin Scale   =       1.2000000000000000 [-]
	 SCS Same-Spin Energy      =      -0.1643611403655270 [Eh]
	 SCS Opposite-Spin Energy  =      -1.8173324694920887 [Eh]
	 SCS Correlation Energy    =      -1.9816936098576157 [Eh]
	 SCS Total Energy          =    -799.2095651446469446 [Eh]
	-----------------------------------------------------------

  Dipole Moment: [D]
     X:     1.7082      Y:     3.5351      Z:    -0.4414     Total:     3.9509

*** Psi4 exiting successfully. Buy a developer a beer!
