                               Psi4 1.3.2 release

  ==> Input File <==

--------------------------------------------------------------------------
#psi4
#
memory 32 gb

molecule  {
0 1
  S       -1.3336960    -0.3724180    -1.1448160
  O        1.3948110    -1.6888110     0.5141610
  N        0.9516030     0.5158590     0.1032830
  C       -0.4401310     0.3116731     0.1891736
  C        1.3527330     1.8066140    -0.4558870
  C        1.8123640    -0.5701240     0.2233340
  C       -1.2481770     0.5074040     1.2784860
  C       -2.6022980     0.1802550     1.0222870
  C        3.2848510    -0.2882260     0.0069730
  C       -2.7981330    -0.3054580    -0.2520070
  H        0.6391180     2.5565960    -0.1121450
  H        1.3549250     1.8004410    -1.5532040
  H        2.3443270     2.0847450    -0.0978400
  H       -0.8644230     0.8946460     2.2167190
  H       -3.4051180     0.2883830     1.7439780
  H        3.6654260     0.4295190     0.7396260
  H        3.4786200     0.1121010    -0.9922510
  H        3.8138040    -1.2333750     0.1250220
  H       -3.7244210    -0.6394710    -0.7024050
units angstrom
no_reorient  #important for SAPT in psi4, default
symmetry c1  #important for SAPT in psi4, default
}

set PROPERTIES_ORIGIN ["COM"]
properties('MP2/aug-cc-pvtz', properties = ['dipole'])
--------------------------------------------------------------------------

    Molecular point group: c1
  Charge       = 0
  Multiplicity = 1
  Basis Set: AUG-CC-PVTZ
    Blend: AUG-CC-PVTZ
  Basis Set: (AUG-CC-PVTZ AUX)
    Blend: AUG-CC-PVTZ-JKFIT

    Orbital Energies [Eh]
    ---------------------

    Doubly Occupied:

       1A    -91.982290     2A    -20.522987     3A    -15.602192
       4A    -11.358852     5A    -11.296128     6A    -11.276973
       7A    -11.263684     8A    -11.243399     9A    -11.239357
      10A    -11.238011    11A     -8.982555    12A     -6.663504
      13A     -6.663013    14A     -6.662238    15A     -1.379869
      16A     -1.263348    17A     -1.158974    18A     -1.022135
      19A     -0.988122    20A     -0.981193    21A     -0.942338
      22A     -0.815326    23A     -0.763140    24A     -0.714712
      25A     -0.687205    26A     -0.679720    27A     -0.647983
      28A     -0.624707    29A     -0.591190    30A     -0.579320
      31A     -0.566663    32A     -0.564488    33A     -0.555715
      34A     -0.545324    35A     -0.514942    36A     -0.504717
      37A     -0.477608    38A     -0.427462    39A     -0.386512
      40A     -0.346066    41A     -0.321708

  @DF-RHF Final Energy:  -797.29737813247209

   => Energetics <=

    Nuclear Repulsion Energy =            606.2195843601919023
    One-Electron Energy =               -2296.9425795818951883
    Two-Electron Energy =                 893.4256170892311957
    Total Energy =                       -797.2973781324720903
  Basis Set: (AUG-CC-PVTZ AUX)
    Blend: AUG-CC-PVTZ-RI
    Molecular point group: c1

    Geometry (in Angstrom), charge = 0, multiplicity = 1:

       Center              X                  Y                   Z               Mass
    ------------   -----------------  -----------------  -----------------  -----------------
         S           -1.286534983048    -0.335993571279    -1.135751387534    31.972071174400
         O            1.441972016952    -1.652386571279     0.523225612466    15.994914619570
         N            0.998764016952     0.552283428721     0.112347612466    14.003074004430
         C           -0.392969983048     0.348097528721     0.198238212466    12.000000000000
         C            1.399894016952     1.843038428721    -0.446822387534    12.000000000000
         C            1.859525016952    -0.533699571279     0.232398612466    12.000000000000
         C           -1.201015983048     0.543828428721     1.287550612466    12.000000000000
         C           -2.555136983048     0.216679428721     1.031351612466    12.000000000000
         C            3.332012016952    -0.251801571279     0.016037612466    12.000000000000
         C           -2.750971983048    -0.269033571279    -0.242942387534    12.000000000000
         H            0.686279016952     2.593020428721    -0.103080387534     1.007825032230
         H            1.402086016952     1.836865428721    -1.544139387534     1.007825032230
         H            2.391488016952     2.121169428721    -0.088775387534     1.007825032230
         H           -0.817261983048     0.931070428721     2.225783612466     1.007825032230
         H           -3.357956983048     0.324807428721     1.753042612466     1.007825032230
         H            3.712587016952     0.465943428721     0.748690612466     1.007825032230
         H            3.525781016952     0.148525428721    -0.983186387534     1.007825032230
         H            3.860965016952    -1.196950571279     0.134086612466     1.007825032230
         H           -3.677259983048    -0.603046571279    -0.693340387534     1.007825032230

  Basis Set: AUG-CC-PVTZ
    Blend: AUG-CC-PVTZ
  Basis Set: (AUG-CC-PVTZ AUX)
    Blend: AUG-CC-PVTZ-JKFIT
	 Reference Energy          =    -797.2973781324720903 [Eh]
	 Singles Energy            =      -0.0000000000000000 [Eh]
	 Same-Spin Energy          =      -0.4865296945290716 [Eh]
	 Opposite-Spin Energy      =      -1.5056923338965695 [Eh]
	 Correlation Energy        =      -1.9922220284256411 [Eh]
	 Total Energy              =    -799.2896001608977485 [Eh]

	 ================> DF-SCS-MP2 Energies <==================
	-----------------------------------------------------------
	 SCS Same-Spin Scale       =       0.3333333333333333 [-]
	 SCS Opposite-Spin Scale   =       1.2000000000000000 [-]
	 SCS Same-Spin Energy      =      -0.1621765648430238 [Eh]
	 SCS Opposite-Spin Energy  =      -1.8068308006758833 [Eh]
	 SCS Correlation Energy    =      -1.9690073655189071 [Eh]
	 SCS Total Energy          =    -799.2663854979909956 [Eh]
	-----------------------------------------------------------

  Dipole Moment: [D]
     X:     0.6814      Y:     3.4493      Z:    -0.6225     Total:     3.5707

*** Psi4 exiting successfully. Buy a developer a beer!
