                               Psi4 1.3.2 release

  ==> Input File <==

--------------------------------------------------------------------------
#psi4
#
memory 32 gb

molecule  {
0 1
  S       -1.3588018    -0.3718486    -1.1278527
  O        1.3948110    -1.6888110     0.5141610
  N        0.9516030     0.5158590     0.1032830
  C       -0.4318110     0.2636330     0.1956970
  C        1.3527330     1.8066140    -0.4558870
  C        1.8123640    -0.5701240     0.2233340
  C       -1.2481770     0.5074040     1.2784860
  C       -2.6022980     0.1802550     1.0222870
  C        3.2848510    -0.2882260     0.0069730
  C       -2.7981330    -0.3054580    -0.2520070
  H        0.6391180     2.5565960    -0.1121450
  H        1.3549250     1.8004410    -1.5532040
  H        2.3443270     2.0847450    -0.0978400
  H       -0.8644230     0.8946460     2.2167190
  H       -3.4051180     0.2883830     1.7439780
  H        3.6654260     0.4295190     0.7396260
  H        3.4786200     0.1121010    -0.9922510
  H        3.8138040    -1.2333750     0.1250220
  H       -3.7244210    -0.6394710    -0.7024050
units angstrom
no_reorient  #important for SAPT in psi4, default
symmetry c1  #important for SAPT in psi4, default
}

set PROPERTIES_ORIGIN ["COM"]
properties('MP2/aug-cc-pvtz', properties = ['dipole'])
--------------------------------------------------------------------------

    Molecular point group: c1
  Charge       = 0
  Multiplicity = 1
  Basis Set: AUG-CC-PVTZ
    Blend: AUG-CC-PVTZ
  Basis Set: (AUG-CC-PVTZ AUX)
    Blend: AUG-CC-PVTZ-JKFIT

    Orbital Energies [Eh]
    ---------------------

    Doubly Occupied:

       1A    -91.981869     2A    -20.523024     3A    -15.602807
       4A    -11.358245     5A    -11.295489     6A    -11.278111
       7A    -11.260370     8A    -11.243099     9A    -11.238110
      10A    -11.237025    11A     -8.982921    12A     -6.663917
      13A     -6.663444    14A     -6.662627    15A     -1.380359
      16A     -1.263125    17A     -1.162985    18A     -1.022056
      19A     -0.990478    20A     -0.981979    21A     -0.942127
      22A     -0.813129    23A     -0.762627    24A     -0.715128
      25A     -0.688097    26A     -0.680382    27A     -0.648037
      28A     -0.626037    29A     -0.591203    30A     -0.579740
      31A     -0.566410    32A     -0.564225    33A     -0.554604
      34A     -0.547734    35A     -0.517875    36A     -0.505882
      37A     -0.477303    38A     -0.427428    39A     -0.387096
      40A     -0.345430    41A     -0.320630

  @DF-RHF Final Energy:  -797.29748637350576

   => Energetics <=

    Nuclear Repulsion Energy =            606.9451924101467739
    One-Electron Energy =               -2298.3790333618858313
    Two-Electron Energy =                 894.1363545782332949
    Total Energy =                       -797.2974863735057625
  Basis Set: (AUG-CC-PVTZ AUX)
    Blend: AUG-CC-PVTZ-RI
    Molecular point group: c1

    Geometry (in Angstrom), charge = 0, multiplicity = 1:

       Center              X                  Y                   Z               Mass
    ------------   -----------------  -----------------  -----------------  -----------------
         S           -1.307107486960    -0.331823329200    -1.122791123480    31.972071174400
         O            1.446505313040    -1.648785729200     0.519222576520    15.994914619570
         N            1.003297313040     0.555884270800     0.108344576520    14.003074004430
         C           -0.380116686960     0.303658270800     0.200758576520    12.000000000000
         C            1.404427313040     1.846639270800    -0.450825423480    12.000000000000
         C            1.864058313040    -0.530098729200     0.228395576520    12.000000000000
         C           -1.196482686960     0.547429270800     1.283547576520    12.000000000000
         C           -2.550603686960     0.220280270800     1.027348576520    12.000000000000
         C            3.336545313040    -0.248200729200     0.012034576520    12.000000000000
         C           -2.746438686960    -0.265432729200    -0.246945423480    12.000000000000
         H            0.690812313040     2.596621270800    -0.107083423480     1.007825032230
         H            1.406619313040     1.840466270800    -1.548142423480     1.007825032230
         H            2.396021313040     2.124770270800    -0.092778423480     1.007825032230
         H           -0.812728686960     0.934671270800     2.221780576520     1.007825032230
         H           -3.353423686960     0.328408270800     1.749039576520     1.007825032230
         H            3.717120313040     0.469544270800     0.744687576520     1.007825032230
         H            3.530314313040     0.152126270800    -0.987189423480     1.007825032230
         H            3.865498313040    -1.193349729200     0.130083576520     1.007825032230
         H           -3.672726686960    -0.599445729200    -0.697343423480     1.007825032230

  Basis Set: AUG-CC-PVTZ
    Blend: AUG-CC-PVTZ
  Basis Set: (AUG-CC-PVTZ AUX)
    Blend: AUG-CC-PVTZ-JKFIT
	 Reference Energy          =    -797.2974863735057625 [Eh]
	 Singles Energy            =      -0.0000000000000000 [Eh]
	 Same-Spin Energy          =      -0.4869951768698048 [Eh]
	 Opposite-Spin Energy      =      -1.5054736584466926 [Eh]
	 Correlation Energy        =      -1.9924688353164974 [Eh]
	 Total Energy              =    -799.2899552088222208 [Eh]

	 ================> DF-SCS-MP2 Energies <==================
	-----------------------------------------------------------
	 SCS Same-Spin Scale       =       0.3333333333333333 [-]
	 SCS Opposite-Spin Scale   =       1.2000000000000000 [-]
	 SCS Same-Spin Energy      =      -0.1623317256232683 [Eh]
	 SCS Opposite-Spin Energy  =      -1.8065683901360310 [Eh]
	 SCS Correlation Energy    =      -1.9689001157592991 [Eh]
	 SCS Total Energy          =    -799.2663864892650736 [Eh]
	-----------------------------------------------------------

  Dipole Moment: [D]
     X:     0.6927      Y:     3.4773      Z:    -0.6821     Total:     3.6106

*** Psi4 exiting successfully. Buy a developer a beer!
