                               Psi4 1.3.2 release

  ==> Input File <==

--------------------------------------------------------------------------
#psi4
#
memory 32 gb

molecule  {
0 1
  S       -1.3336960    -0.3724180    -1.1448160
  O        1.3948110    -1.6888110     0.5141610
  N        0.9516030     0.5158590     0.1032830
  C       -0.4509104     0.2558905     0.1833071
  C        1.3527330     1.8066140    -0.4558870
  C        1.8123640    -0.5701240     0.2233340
  C       -1.2481770     0.5074040     1.2784860
  C       -2.6022980     0.1802550     1.0222870
  C        3.2848510    -0.2882260     0.0069730
  C       -2.7981330    -0.3054580    -0.2520070
  H        0.6391180     2.5565960    -0.1121450
  H        1.3549250     1.8004410    -1.5532040
  H        2.3443270     2.0847450    -0.0978400
  H       -0.8644230     0.8946460     2.2167190
  H       -3.4051180     0.2883830     1.7439780
  H        3.6654260     0.4295190     0.7396260
  H        3.4786200     0.1121010    -0.9922510
  H        3.8138040    -1.2333750     0.1250220
  H       -3.7244210    -0.6394710    -0.7024050
units angstrom
no_reorient  #important for SAPT in psi4, default
symmetry c1  #important for SAPT in psi4, default
}

set PROPERTIES_ORIGIN ["COM"]
properties('MP2/aug-cc-pvtz', properties = ['dipole'])
--------------------------------------------------------------------------

    Molecular point group: c1
  Charge       = 0
  Multiplicity = 1
  Basis Set: AUG-CC-PVTZ
    Blend: AUG-CC-PVTZ
  Basis Set: (AUG-CC-PVTZ AUX)
    Blend: AUG-CC-PVTZ-JKFIT

    Orbital Energies [Eh]
    ---------------------

    Doubly Occupied:

       1A    -91.984594     2A    -20.521815     3A    -15.601724
       4A    -11.357169     5A    -11.296295     6A    -11.277266
       7A    -11.262369     8A    -11.242392     9A    -11.239527
      10A    -11.237414    11A     -8.985289    12A     -6.666266
      13A     -6.665786    14A     -6.664972    15A     -1.378771
      16A     -1.258976    17A     -1.161784    18A     -1.020215
      19A     -0.989856    20A     -0.981839    21A     -0.941850
      22A     -0.809071    23A     -0.762970    24A     -0.715309
      25A     -0.687324    26A     -0.678928    27A     -0.646725
      28A     -0.624066    29A     -0.590415    30A     -0.578677
      31A     -0.565124    32A     -0.563535    33A     -0.552897
      34A     -0.546384    35A     -0.517732    36A     -0.505293
      37A     -0.481155    38A     -0.426280    39A     -0.387226
      40A     -0.346571    41A     -0.321352

  @DF-RHF Final Energy:  -797.29729133663659

   => Energetics <=

    Nuclear Repulsion Energy =            606.5273703467137238
    One-Electron Energy =               -2297.5629207462498016
    Two-Electron Energy =                 893.7382590628994876
    Total Energy =                       -797.2972913366365901
  Basis Set: (AUG-CC-PVTZ AUX)
    Blend: AUG-CC-PVTZ-RI
    Molecular point group: c1

    Geometry (in Angstrom), charge = 0, multiplicity = 1:

       Center              X                  Y                   Z               Mass
    ------------   -----------------  -----------------  -----------------  -----------------
         S           -1.285700666773    -0.331676046088    -1.135297325487    31.972071174400
         O            1.442806333227    -1.648069046088     0.523679674513    15.994914619570
         N            0.999598333227     0.556600953912     0.112801674513    14.003074004430
         C           -0.402915066773     0.296632453912     0.192825774513    12.000000000000
         C            1.400728333227     1.847355953912    -0.446368325487    12.000000000000
         C            1.860359333227    -0.529382046088     0.232852674513    12.000000000000
         C           -1.200181666773     0.548145953912     1.288004674513    12.000000000000
         C           -2.554302666773     0.220996953912     1.031805674513    12.000000000000
         C            3.332846333227    -0.247484046088     0.016491674513    12.000000000000
         C           -2.750137666773    -0.264716046088    -0.242488325487    12.000000000000
         H            0.687113333227     2.597337953912    -0.102626325487     1.007825032230
         H            1.402920333227     1.841182953912    -1.543685325487     1.007825032230
         H            2.392322333227     2.125486953912    -0.088321325487     1.007825032230
         H           -0.816427666773     0.935387953912     2.226237674513     1.007825032230
         H           -3.357122666773     0.329124953912     1.753496674513     1.007825032230
         H            3.713421333227     0.470260953912     0.749144674513     1.007825032230
         H            3.526615333227     0.152842953912    -0.982732325487     1.007825032230
         H            3.861799333227    -1.192633046088     0.134540674513     1.007825032230
         H           -3.676425666773    -0.598729046088    -0.692886325487     1.007825032230

  Basis Set: AUG-CC-PVTZ
    Blend: AUG-CC-PVTZ
  Basis Set: (AUG-CC-PVTZ AUX)
    Blend: AUG-CC-PVTZ-JKFIT
	 Reference Energy          =    -797.2972913366365901 [Eh]
	 Singles Energy            =      -0.0000000000000000 [Eh]
	 Same-Spin Energy          =      -0.4866843352188316 [Eh]
	 Opposite-Spin Energy      =      -1.5056066200718590 [Eh]
	 Correlation Energy        =      -1.9922909552906907 [Eh]
	 Total Energy              =    -799.2895822919273314 [Eh]

	 ================> DF-SCS-MP2 Energies <==================
	-----------------------------------------------------------
	 SCS Same-Spin Scale       =       0.3333333333333333 [-]
	 SCS Opposite-Spin Scale   =       1.2000000000000000 [-]
	 SCS Same-Spin Energy      =      -0.1622281117396105 [Eh]
	 SCS Opposite-Spin Energy  =      -1.8067279440862307 [Eh]
	 SCS Correlation Energy    =      -1.9689560558258412 [Eh]
	 SCS Total Energy          =    -799.2662473924624464 [Eh]
	-----------------------------------------------------------

  Dipole Moment: [D]
     X:     0.5963      Y:     3.4707      Z:    -0.6999     Total:     3.5905

*** Psi4 exiting successfully. Buy a developer a beer!
