                               Psi4 1.3.2 release

  ==> Input File <==

--------------------------------------------------------------------------
#psi4
#
memory 32 gb

molecule  {
0 1
  S       -1.3336960    -0.3724180    -1.1448160
  O        1.3948110    -1.6888110     0.5141610
  N        0.9516030     0.5158590     0.1032830
  C       -0.2844163     0.2512503     0.0900858
  C        1.3527330     1.8066140    -0.4558870
  C        1.8123640    -0.5701240     0.2233340
  C       -1.2481770     0.5074040     1.2784860
  C       -2.6022980     0.1802550     1.0222870
  C        3.2848510    -0.2882260     0.0069730
  C       -2.7981330    -0.3054580    -0.2520070
  H        0.6391180     2.5565960    -0.1121450
  H        1.3549250     1.8004410    -1.5532040
  H        2.3443270     2.0847450    -0.0978400
  H       -0.8644230     0.8946460     2.2167190
  H       -3.4051180     0.2883830     1.7439780
  H        3.6654260     0.4295190     0.7396260
  H        3.4786200     0.1121010    -0.9922510
  H        3.8138040    -1.2333750     0.1250220
  H       -3.7244210    -0.6394710    -0.7024050
units angstrom
no_reorient  #important for SAPT in psi4, default
symmetry c1  #important for SAPT in psi4, default
}

set PROPERTIES_ORIGIN ["COM"]
properties('MP2/aug-cc-pvtz', properties = ['dipole'])
--------------------------------------------------------------------------

    Molecular point group: c1
  Charge       = 0
  Multiplicity = 1
  Basis Set: AUG-CC-PVTZ
    Blend: AUG-CC-PVTZ
  Basis Set: (AUG-CC-PVTZ AUX)
    Blend: AUG-CC-PVTZ-JKFIT

    Orbital Energies [Eh]
    ---------------------

    Doubly Occupied:

       1A    -91.985168     2A    -20.532262     3A    -15.604250
       4A    -11.364953     5A    -11.302312     6A    -11.283612
       7A    -11.259569     8A    -11.247426     9A    -11.245616
      10A    -11.237224    11A     -8.984529    12A     -6.665385
      13A     -6.665225    14A     -6.664498    15A     -1.396492
      16A     -1.302745    17A     -1.140576    18A     -1.033476
      19A     -0.992242    20A     -0.975547    21A     -0.933663
      22A     -0.842459    23A     -0.753225    24A     -0.712148
      25A     -0.690842    26A     -0.685310    27A     -0.657890
      28A     -0.631099    29A     -0.596989    30A     -0.587681
      31A     -0.579962    32A     -0.569592    33A     -0.556395
      34A     -0.547642    35A     -0.504553    36A     -0.499311
      37A     -0.468295    38A     -0.436011    39A     -0.379402
      40A     -0.340857    41A     -0.294674

  @DF-RHF Final Energy:  -797.24472975677554

   => Energetics <=

    Nuclear Repulsion Energy =            607.2352594638105074
    One-Electron Energy =               -2298.6577671250261119
    Two-Electron Energy =                 894.1777779044400631
    Total Energy =                       -797.2447297567755413
  Basis Set: (AUG-CC-PVTZ AUX)
    Blend: AUG-CC-PVTZ-RI
    Molecular point group: c1

    Geometry (in Angstrom), charge = 0, multiplicity = 1:

       Center              X                  Y                   Z               Mass
    ------------   -----------------  -----------------  -----------------  -----------------
         S           -1.298587166701    -0.331316898605    -1.128082077164    31.972071174400
         O            1.429919833299    -1.647709898605     0.530894922836    15.994914619570
         N            0.986711833299     0.556960101395     0.120016922836    14.003074004430
         C           -0.249307466701     0.292351401395     0.106819722836    12.000000000000
         C            1.387841833299     1.847715101395    -0.439153077164    12.000000000000
         C            1.847472833299    -0.529022898605     0.240067922836    12.000000000000
         C           -1.213068166701     0.548505101395     1.295219922836    12.000000000000
         C           -2.567189166701     0.221356101395     1.039020922836    12.000000000000
         C            3.319959833299    -0.247124898605     0.023706922836    12.000000000000
         C           -2.763024166701    -0.264356898605    -0.235273077164    12.000000000000
         H            0.674226833299     2.597697101395    -0.095411077164     1.007825032230
         H            1.390033833299     1.841542101395    -1.536470077164     1.007825032230
         H            2.379435833299     2.125846101395    -0.081106077164     1.007825032230
         H           -0.829314166701     0.935747101395     2.233452922836     1.007825032230
         H           -3.370009166701     0.329484101395     1.760711922836     1.007825032230
         H            3.700534833299     0.470620101395     0.756359922836     1.007825032230
         H            3.513728833299     0.153202101395    -0.975517077164     1.007825032230
         H            3.848912833299    -1.192273898605     0.141755922836     1.007825032230
         H           -3.689312166701    -0.598369898605    -0.685671077164     1.007825032230

  Basis Set: AUG-CC-PVTZ
    Blend: AUG-CC-PVTZ
  Basis Set: (AUG-CC-PVTZ AUX)
    Blend: AUG-CC-PVTZ-JKFIT
	 Reference Energy          =    -797.2447297567755413 [Eh]
	 Singles Energy            =      -0.0000000000000000 [Eh]
	 Same-Spin Energy          =      -0.4929934324327367 [Eh]
	 Opposite-Spin Energy      =      -1.5137658003657481 [Eh]
	 Correlation Energy        =      -2.0067592327984851 [Eh]
	 Total Energy              =    -799.2514889895739998 [Eh]

	 ================> DF-SCS-MP2 Energies <==================
	-----------------------------------------------------------
	 SCS Same-Spin Scale       =       0.3333333333333333 [-]
	 SCS Opposite-Spin Scale   =       1.2000000000000000 [-]
	 SCS Same-Spin Energy      =      -0.1643311441442456 [Eh]
	 SCS Opposite-Spin Energy  =      -1.8165189604388976 [Eh]
	 SCS Correlation Energy    =      -1.9808501045831433 [Eh]
	 SCS Total Energy          =    -799.2255798613587103 [Eh]
	-----------------------------------------------------------

  Dipole Moment: [D]
     X:     1.2132      Y:     3.4417      Z:    -0.6948     Total:     3.7148

*** Psi4 exiting successfully. Buy a developer a beer!
