                               Psi4 1.3.2 release

  ==> Input File <==

--------------------------------------------------------------------------
#psi4
#
memory 32 gb

molecule  {
0 1
  S       -1.3336960    -0.3724180    -1.1448160
  O        1.3948110    -1.6888110     0.5141610
  N        0.9516030     0.5158590     0.1032830
  C       -0.4471431     0.3525850     0.1566070
  C        1.3527330     1.8066140    -0.4558870
  C        1.8123640    -0.5701240     0.2233340
  C       -1.2481770     0.5074040     1.2784860
  C       -2.6022980     0.1802550     1.0222870
  C        3.2848510    -0.2882260     0.0069730
  C       -2.7981330    -0.3054580    -0.2520070
  H        0.6391180     2.5565960    -0.1121450
  H        1.3549250     1.8004410    -1.5532040
  H        2.3443270     2.0847450    -0.0978400
  H       -0.8644230     0.8946460     2.2167190
  H       -3.4051180     0.2883830     1.7439780
  H        3.6654260     0.4295190     0.7396260
  H        3.4786200     0.1121010    -0.9922510
  H        3.8138040    -1.2333750     0.1250220
  H       -3.7244210    -0.6394710    -0.7024050
units angstrom
no_reorient  #important for SAPT in psi4, default
symmetry c1  #important for SAPT in psi4, default
}

set PROPERTIES_ORIGIN ["COM"]
properties('MP2/aug-cc-pvtz', properties = ['dipole'])
--------------------------------------------------------------------------

    Molecular point group: c1
  Charge       = 0
  Multiplicity = 1
  Basis Set: AUG-CC-PVTZ
    Blend: AUG-CC-PVTZ
  Basis Set: (AUG-CC-PVTZ AUX)
    Blend: AUG-CC-PVTZ-JKFIT

    Orbital Energies [Eh]
    ---------------------

    Doubly Occupied:

       1A    -91.983937     2A    -20.522965     3A    -15.601591
       4A    -11.359298     5A    -11.296571     6A    -11.275565
       7A    -11.264001     8A    -11.243583     9A    -11.240677
      10A    -11.239254    11A     -8.984256    12A     -6.665196
      13A     -6.664731    14A     -6.663947    15A     -1.379391
      16A     -1.263462    17A     -1.158837    18A     -1.022247
      19A     -0.987635    20A     -0.980206    21A     -0.941828
      22A     -0.816976    23A     -0.762394    24A     -0.714494
      25A     -0.686558    26A     -0.678688    27A     -0.647563
      28A     -0.624797    29A     -0.591069    30A     -0.578838
      31A     -0.566623    32A     -0.564193    33A     -0.554147
      34A     -0.546425    35A     -0.514439    36A     -0.505039
      37A     -0.478576    38A     -0.427595    39A     -0.386338
      40A     -0.345339    41A     -0.320999

  @DF-RHF Final Energy:  -797.29433392034116

   => Energetics <=

    Nuclear Repulsion Energy =            606.1174510452984805
    One-Electron Energy =               -2296.7230329575427277
    Two-Electron Energy =                 893.3112479919032012
    Total Energy =                       -797.2943339203411597
  Basis Set: (AUG-CC-PVTZ AUX)
    Blend: AUG-CC-PVTZ-RI
    Molecular point group: c1

    Geometry (in Angstrom), charge = 0, multiplicity = 1:

       Center              X                  Y                   Z               Mass
    ------------   -----------------  -----------------  -----------------  -----------------
         S           -1.285992252548    -0.339160117100    -1.133230760745    31.972071174400
         O            1.442514747452    -1.655553117100     0.525746239255    15.994914619570
         N            0.999306747452     0.549116882900     0.114868239255    14.003074004430
         C           -0.399439352548     0.385842882900     0.168192239255    12.000000000000
         C            1.400436747452     1.839871882900    -0.444301760745    12.000000000000
         C            1.860067747452    -0.536866117100     0.234919239255    12.000000000000
         C           -1.200473252548     0.540661882900     1.290071239255    12.000000000000
         C           -2.554594252548     0.213512882900     1.033872239255    12.000000000000
         C            3.332554747452    -0.254968117100     0.018558239255    12.000000000000
         C           -2.750429252548    -0.272200117100    -0.240421760745    12.000000000000
         H            0.686821747452     2.589853882900    -0.100559760745     1.007825032230
         H            1.402628747452     1.833698882900    -1.541618760745     1.007825032230
         H            2.392030747452     2.118002882900    -0.086254760745     1.007825032230
         H           -0.816719252548     0.927903882900     2.228304239255     1.007825032230
         H           -3.357414252548     0.321640882900     1.755563239255     1.007825032230
         H            3.713129747452     0.462776882900     0.751211239255     1.007825032230
         H            3.526323747452     0.145358882900    -0.980665760745     1.007825032230
         H            3.861507747452    -1.200117117100     0.136607239255     1.007825032230
         H           -3.676717252548    -0.606213117100    -0.690819760745     1.007825032230

  Basis Set: AUG-CC-PVTZ
    Blend: AUG-CC-PVTZ
  Basis Set: (AUG-CC-PVTZ AUX)
    Blend: AUG-CC-PVTZ-JKFIT
	 Reference Energy          =    -797.2943339203411597 [Eh]
	 Singles Energy            =      -0.0000000000000000 [Eh]
	 Same-Spin Energy          =      -0.4870767111956059 [Eh]
	 Opposite-Spin Energy      =      -1.5064224680920251 [Eh]
	 Correlation Energy        =      -1.9934991792876309 [Eh]
	 Total Energy              =    -799.2878330996287559 [Eh]

	 ================> DF-SCS-MP2 Energies <==================
	-----------------------------------------------------------
	 SCS Same-Spin Scale       =       0.3333333333333333 [-]
	 SCS Opposite-Spin Scale   =       1.2000000000000000 [-]
	 SCS Same-Spin Energy      =      -0.1623589037318686 [Eh]
	 SCS Opposite-Spin Energy  =      -1.8077069617104300 [Eh]
	 SCS Correlation Energy    =      -1.9700658654422987 [Eh]
	 SCS Total Energy          =    -799.2643997857834393 [Eh]
	-----------------------------------------------------------

  Dipole Moment: [D]
     X:     0.6493      Y:     3.3869      Z:    -0.6380     Total:     3.5071

*** Psi4 exiting successfully. Buy a developer a beer!
