                               Psi4 1.4a3.dev225

  ==> Input File <==

--------------------------------------------------------------------------
#psi4
#
memory 32 gb

molecule  {
0 1
  S       -1.3336960    -0.3724180    -1.1448160
  O        1.3948110    -1.6888110     0.5141610
  N        0.9516030     0.5158590     0.1032830
  C       -0.4808943     0.2546841     0.1989758
  C        1.3527330     1.8066140    -0.4558870
  C        1.8123640    -0.5701240     0.2233340
  C       -1.2481770     0.5074040     1.2784860
  C       -2.6022980     0.1802550     1.0222870
  C        3.2848510    -0.2882260     0.0069730
  C       -2.7981330    -0.3054580    -0.2520070
  H        0.6391180     2.5565960    -0.1121450
  H        1.3549250     1.8004410    -1.5532040
  H        2.3443270     2.0847450    -0.0978400
  H       -0.8644230     0.8946460     2.2167190
  H       -3.4051180     0.2883830     1.7439780
  H        3.6654260     0.4295190     0.7396260
  H        3.4786200     0.1121010    -0.9922510
  H        3.8138040    -1.2333750     0.1250220
  H       -3.7244210    -0.6394710    -0.7024050
units angstrom
no_reorient  #important for SAPT in psi4, default
symmetry c1  #important for SAPT in psi4, default
}

set PROPERTIES_ORIGIN ["COM"]
properties('MP2/aug-cc-pvtz', properties = ['dipole'])
--------------------------------------------------------------------------

    Molecular point group: c1
  Charge       = 0
  Multiplicity = 1
  Basis Set: AUG-CC-PVTZ
    Blend: AUG-CC-PVTZ
  Basis Set: (AUG-CC-PVTZ AUX)
    Blend: AUG-CC-PVTZ-JKFIT

    Orbital Energies [Eh]
    ---------------------

    Doubly Occupied:

       1A    -91.984704     2A    -20.520164     3A    -15.600874
       4A    -11.355848     5A    -11.295123     6A    -11.276263
       7A    -11.262706     8A    -11.241543     9A    -11.239850
      10A    -11.235126    11A     -8.985580    12A     -6.666573
      13A     -6.666043    14A     -6.665209    15A     -1.376492
      16A     -1.252979    17A     -1.166129    18A     -1.018306
      19A     -0.993677    20A     -0.981152    21A     -0.941739
      22A     -0.802893    23A     -0.765024    24A     -0.717350
      25A     -0.686517    26A     -0.676912    27A     -0.644895
      28A     -0.622776    29A     -0.589342    30A     -0.577430
      31A     -0.565250    32A     -0.563693    33A     -0.553229
      34A     -0.541040    35A     -0.521131    36A     -0.505209
      37A     -0.483892    38A     -0.424660    39A     -0.386622
      40A     -0.348876    41A     -0.324816

  @DF-RHF Final Energy:  -797.29646154472937

   => Energetics <=

    Nuclear Repulsion Energy =            606.4818228378351250
    One-Electron Energy =               -2297.5012890426128251
    Two-Electron Energy =                 893.7230046600483320
    Total Energy =                       -797.2964615447293681
  Basis Set: (AUG-CC-PVTZ AUX)
    Blend: AUG-CC-PVTZ-RI
    Molecular point group: c1

    Geometry (in Angstrom), charge = 0, multiplicity = 1:

       Center              X                  Y                   Z               Mass
    ------------   -----------------  -----------------  -----------------  -----------------
         S           -1.283379938740    -0.331582671768    -1.136510069371    31.972071174400
         O            1.445127061260    -1.647975671768     0.522466930629    15.994914619570
         N            1.001919061260     0.556694328232     0.111588930629    14.003074004430
         C           -0.430578238740     0.295519428232     0.207281730629    12.000000000000
         C            1.403049061260     1.847449328232    -0.447581069371    12.000000000000
         C            1.862680061260    -0.529288671768     0.231639930629    12.000000000000
         C           -1.197860938740     0.548239328232     1.286791930629    12.000000000000
         C           -2.551981938740     0.221090328232     1.030592930629    12.000000000000
         C            3.335167061260    -0.247390671768     0.015278930629    12.000000000000
         C           -2.747816938740    -0.264622671768    -0.243701069371    12.000000000000
         H            0.689434061260     2.597431328232    -0.103839069371     1.007825032230
         H            1.405241061260     1.841276328232    -1.544898069371     1.007825032230
         H            2.394643061260     2.125580328232    -0.089534069371     1.007825032230
         H           -0.814106938740     0.935481328232     2.225024930629     1.007825032230
         H           -3.354801938740     0.329218328232     1.752283930629     1.007825032230
         H            3.715742061260     0.470354328232     0.747931930629     1.007825032230
         H            3.528936061260     0.152936328232    -0.983945069371     1.007825032230
         H            3.864120061260    -1.192539671768     0.133327930629     1.007825032230
         H           -3.674104938740    -0.598635671768    -0.694099069371     1.007825032230

  Basis Set: AUG-CC-PVTZ
    Blend: AUG-CC-PVTZ
  Basis Set: (AUG-CC-PVTZ AUX)
    Blend: AUG-CC-PVTZ-JKFIT
	 Reference Energy          =    -797.2964615447293681 [Eh]
	 Singles Energy            =      -0.0000000000000000 [Eh]
	 Same-Spin Energy          =      -0.4859469954232545 [Eh]
	 Opposite-Spin Energy      =      -1.5048330395837555 [Eh]
	 Correlation Energy        =      -1.9907800350070100 [Eh]
	 Total Energy              =    -799.2872415797363601 [Eh]

	 ================> DF-SCS-MP2 Energies <==================
	-----------------------------------------------------------
	 SCS Same-Spin Scale       =       0.3333333333333333 [-]
	 SCS Opposite-Spin Scale   =       1.2000000000000000 [-]
	 SCS Same-Spin Energy      =      -0.1619823318077515 [Eh]
	 SCS Opposite-Spin Energy  =      -1.8057996475005065 [Eh]
	 SCS Correlation Energy    =      -1.9677819793082580 [Eh]
	 SCS Total Energy          =    -799.2642435240376244 [Eh]
	-----------------------------------------------------------

  Dipole Moment: [D]
     X:     0.4970      Y:     3.4789      Z:    -0.6944     Total:     3.5822

*** Psi4 exiting successfully. Buy a developer a beer!
