                               Psi4 1.3.2 release

  ==> Input File <==

--------------------------------------------------------------------------
#psi4
#
memory 32 gb

molecule  {
0 1
  S       -1.3336960    -0.3724180    -1.1448160
  O        1.3948110    -1.6888110     0.5141610
  N        0.9516030     0.5158590     0.1032830
  C       -0.5299775     0.2457351     0.2022547
  C        1.3527330     1.8066140    -0.4558870
  C        1.8123640    -0.5701240     0.2233340
  C       -1.2481770     0.5074040     1.2784860
  C       -2.6022980     0.1802550     1.0222870
  C        3.2848510    -0.2882260     0.0069730
  C       -2.7981330    -0.3054580    -0.2520070
  H        0.6391180     2.5565960    -0.1121450
  H        1.3549250     1.8004410    -1.5532040
  H        2.3443270     2.0847450    -0.0978400
  H       -0.8644230     0.8946460     2.2167190
  H       -3.4051180     0.2883830     1.7439780
  H        3.6654260     0.4295190     0.7396260
  H        3.4786200     0.1121010    -0.9922510
  H        3.8138040    -1.2333750     0.1250220
  H       -3.7244210    -0.6394710    -0.7024050
units angstrom
no_reorient  #important for SAPT in psi4, default
symmetry c1  #important for SAPT in psi4, default
}

set PROPERTIES_ORIGIN ["COM"]
properties('MP2/aug-cc-pvtz', properties = ['dipole'])
--------------------------------------------------------------------------

    Molecular point group: c1
  Charge       = 0
  Multiplicity = 1
  Basis Set: AUG-CC-PVTZ
    Blend: AUG-CC-PVTZ
  Basis Set: (AUG-CC-PVTZ AUX)
    Blend: AUG-CC-PVTZ-JKFIT

    Orbital Energies [Eh]
    ---------------------

    Doubly Occupied:

       1A    -91.986458     2A    -20.517542     3A    -15.598878
       4A    -11.353549     5A    -11.294012     6A    -11.274452
       7A    -11.262528     8A    -11.240739     9A    -11.240065
      10A    -11.232522    11A     -8.987887    12A     -6.668924
      13A     -6.668313    14A     -6.667435    15A     -1.373067
      16A     -1.244785    17A     -1.173286    18A     -1.015257
      19A     -1.000381    20A     -0.980276    21A     -0.940480
      22A     -0.793341    23A     -0.767247    24A     -0.720659
      25A     -0.684906    26A     -0.673642    27A     -0.641878
      28A     -0.620704    29A     -0.587555    30A     -0.575399
      31A     -0.567175    32A     -0.562421    33A     -0.554294
      34A     -0.531095    35A     -0.527137    36A     -0.505205
      37A     -0.489659    38A     -0.422045    39A     -0.385157
      40A     -0.352208    41A     -0.328462

  @DF-RHF Final Energy:  -797.28916404452752

   => Energetics <=

    Nuclear Repulsion Energy =            606.5971259892710350
    One-Electron Energy =               -2297.7505326767013685
    Two-Electron Energy =                 893.8642426429028092
    Total Energy =                       -797.2891640445275243
  Basis Set: (AUG-CC-PVTZ AUX)
    Blend: AUG-CC-PVTZ-RI
    Molecular point group: c1

    Geometry (in Angstrom), charge = 0, multiplicity = 1:

       Center              X                  Y                   Z               Mass
    ------------   -----------------  -----------------  -----------------  -----------------
         S           -1.279580941338    -0.330890026876    -1.136763853406    31.972071174400
         O            1.448926058662    -1.647283026876     0.522213146594    15.994914619570
         N            1.005718058662     0.557386973124     0.111335146594    14.003074004430
         C           -0.475862441338     0.287263073124     0.210306846594    12.000000000000
         C            1.406848058662     1.848141973124    -0.447834853406    12.000000000000
         C            1.866479058662    -0.528596026876     0.231386146594    12.000000000000
         C           -1.194061941338     0.548931973124     1.286538146594    12.000000000000
         C           -2.548182941338     0.221782973124     1.030339146594    12.000000000000
         C            3.338966058662    -0.246698026876     0.015025146594    12.000000000000
         C           -2.744017941338    -0.263930026876    -0.243954853406    12.000000000000
         H            0.693233058662     2.598123973124    -0.104092853406     1.007825032230
         H            1.409040058662     1.841968973124    -1.545151853406     1.007825032230
         H            2.398442058662     2.126272973124    -0.089787853406     1.007825032230
         H           -0.810307941338     0.936173973124     2.224771146594     1.007825032230
         H           -3.351002941338     0.329910973124     1.752030146594     1.007825032230
         H            3.719541058662     0.471046973124     0.747678146594     1.007825032230
         H            3.532735058662     0.153628973124    -0.984198853406     1.007825032230
         H            3.867919058662    -1.191847026876     0.133074146594     1.007825032230
         H           -3.670305941338    -0.597943026876    -0.694352853406     1.007825032230

  Basis Set: AUG-CC-PVTZ
    Blend: AUG-CC-PVTZ
  Basis Set: (AUG-CC-PVTZ AUX)
    Blend: AUG-CC-PVTZ-JKFIT
	 Reference Energy          =    -797.2891640445275243 [Eh]
	 Singles Energy            =      -0.0000000000000000 [Eh]
	 Same-Spin Energy          =      -0.4855217482756443 [Eh]
	 Opposite-Spin Energy      =      -1.5044187969525660 [Eh]
	 Correlation Energy        =      -1.9899405452282104 [Eh]
	 Total Energy              =    -799.2791045897557751 [Eh]

	 ================> DF-SCS-MP2 Energies <==================
	-----------------------------------------------------------
	 SCS Same-Spin Scale       =       0.3333333333333333 [-]
	 SCS Opposite-Spin Scale   =       1.2000000000000000 [-]
	 SCS Same-Spin Energy      =      -0.1618405827585481 [Eh]
	 SCS Opposite-Spin Energy  =      -1.8053025563430791 [Eh]
	 SCS Correlation Energy    =      -1.9671431391016272 [Eh]
	 SCS Total Energy          =    -799.2563071836291329 [Eh]
	-----------------------------------------------------------

  Dipole Moment: [D]
     X:     0.3253      Y:     3.4729      Z:    -0.7281     Total:     3.5633

*** Psi4 exiting successfully. Buy a developer a beer!
