                               Psi4 1.3.2 release

  ==> Input File <==

--------------------------------------------------------------------------
#psi4
#
memory 32 gb

molecule  {
0 1
  S       -1.1775656    -0.3717635    -1.2378489
  O        1.3948110    -1.6888110     0.5141610
  N        0.9516030     0.5158590     0.1032830
  C       -0.4318110     0.2636330     0.1956970
  C        1.3527330     1.8066140    -0.4558870
  C        1.8123640    -0.5701240     0.2233340
  C       -1.2481770     0.5074040     1.2784860
  C       -2.6022980     0.1802550     1.0222870
  C        3.2848510    -0.2882260     0.0069730
  C       -2.7981330    -0.3054580    -0.2520070
  H        0.6391180     2.5565960    -0.1121450
  H        1.3549250     1.8004410    -1.5532040
  H        2.3443270     2.0847450    -0.0978400
  H       -0.8644230     0.8946460     2.2167190
  H       -3.4051180     0.2883830     1.7439780
  H        3.6654260     0.4295190     0.7396260
  H        3.4786200     0.1121010    -0.9922510
  H        3.8138040    -1.2333750     0.1250220
  H       -3.7244210    -0.6394710    -0.7024050
units angstrom
no_reorient  #important for SAPT in psi4, default
symmetry c1  #important for SAPT in psi4, default
}

set PROPERTIES_ORIGIN ["COM"]
properties('MP2/aug-cc-pvtz', properties = ['dipole'])
--------------------------------------------------------------------------

    Molecular point group: c1
  Charge       = 0
  Multiplicity = 1
  Basis Set: AUG-CC-PVTZ
    Blend: AUG-CC-PVTZ
  Basis Set: (AUG-CC-PVTZ AUX)
    Blend: AUG-CC-PVTZ-JKFIT

    Orbital Energies [Eh]
    ---------------------

    Doubly Occupied:

       1A    -91.986268     2A    -20.522024     3A    -15.599488
       4A    -11.357337     5A    -11.302086     6A    -11.277654
       7A    -11.277102     8A    -11.247962     9A    -11.242393
      10A    -11.239657    11A     -8.983933    12A     -6.664828
      13A     -6.663971    14A     -6.663402    15A     -1.379833
      16A     -1.263354    17A     -1.141430    18A     -1.021676
      19A     -0.986995    20A     -0.970165    21A     -0.942151
      22A     -0.814115    23A     -0.764545    24A     -0.709392
      25A     -0.687125    26A     -0.679657    27A     -0.648408
      28A     -0.619615    29A     -0.590767    30A     -0.578788
      31A     -0.565710    32A     -0.564075    33A     -0.559453
      34A     -0.538819    35A     -0.503790    36A     -0.499322
      37A     -0.471527    38A     -0.426169    39A     -0.385088
      40A     -0.353478    41A     -0.316070

  @DF-RHF Final Energy:  -797.28005114249231

   => Energetics <=

    Nuclear Repulsion Energy =            603.9956742585541178
    One-Electron Energy =               -2292.5322065421405568
    Two-Electron Energy =                 891.2564811410941275
    Total Energy =                       -797.2800511424923116
  Basis Set: (AUG-CC-PVTZ AUX)
    Blend: AUG-CC-PVTZ-RI
    Molecular point group: c1

    Geometry (in Angstrom), charge = 0, multiplicity = 1:

       Center              X                  Y                   Z               Mass
    ------------   -----------------  -----------------  -----------------  -----------------
         S           -1.163245374654    -0.331755778315    -1.210104175054    31.972071174400
         O            1.409131225346    -1.648803278315     0.541905724946    15.994914619570
         N            0.965923225346     0.555866721685     0.131027724946    14.003074004430
         C           -0.417490774654     0.303640721685     0.223441724946    12.000000000000
         C            1.367053225346     1.846621721685    -0.428142275054    12.000000000000
         C            1.826684225346    -0.530116278315     0.251078724946    12.000000000000
         C           -1.233856774654     0.547411721685     1.306230724946    12.000000000000
         C           -2.587977774654     0.220262721685     1.050031724946    12.000000000000
         C            3.299171225346    -0.248218278315     0.034717724946    12.000000000000
         C           -2.783812774654    -0.265450278315    -0.224262275054    12.000000000000
         H            0.653438225346     2.596603721685    -0.084400275054     1.007825032230
         H            1.369245225346     1.840448721685    -1.525459275054     1.007825032230
         H            2.358647225346     2.124752721685    -0.070095275054     1.007825032230
         H           -0.850102774654     0.934653721685     2.244463724946     1.007825032230
         H           -3.390797774654     0.328390721685     1.771722724946     1.007825032230
         H            3.679746225346     0.469526721685     0.767370724946     1.007825032230
         H            3.492940225346     0.152108721685    -0.964506275054     1.007825032230
         H            3.828124225346    -1.193367278315     0.152766724946     1.007825032230
         H           -3.710100774654    -0.599463278315    -0.674660275054     1.007825032230

  Basis Set: AUG-CC-PVTZ
    Blend: AUG-CC-PVTZ
  Basis Set: (AUG-CC-PVTZ AUX)
    Blend: AUG-CC-PVTZ-JKFIT
	 Reference Energy          =    -797.2800511424923116 [Eh]
	 Singles Energy            =      -0.0000000000000000 [Eh]
	 Same-Spin Energy          =      -0.4856728786865465 [Eh]
	 Opposite-Spin Energy      =      -1.5085082170018629 [Eh]
	 Correlation Energy        =      -1.9941810956884094 [Eh]
	 Total Energy              =    -799.2742322381807298 [Eh]

	 ================> DF-SCS-MP2 Energies <==================
	-----------------------------------------------------------
	 SCS Same-Spin Scale       =       0.3333333333333333 [-]
	 SCS Opposite-Spin Scale   =       1.2000000000000000 [-]
	 SCS Same-Spin Energy      =      -0.1618909595621822 [Eh]
	 SCS Opposite-Spin Energy  =      -1.8102098604022354 [Eh]
	 SCS Correlation Energy    =      -1.9721008199644177 [Eh]
	 SCS Total Energy          =    -799.2521519624567645 [Eh]
	-----------------------------------------------------------

  Dipole Moment: [D]
     X:     0.5553      Y:     3.5325      Z:    -0.4827     Total:     3.6083

*** Psi4 exiting successfully. Buy a developer a beer!
