                               Psi4 1.3.2 release

  ==> Input File <==

--------------------------------------------------------------------------
#psi4
#
memory 32 gb

molecule  {
0 1
  S       -1.3336960    -0.3724180    -1.1448160
  O        1.3948110    -1.6888110     0.5141610
  N        0.9516030     0.5158590     0.1032830
  C       -0.6281440     0.2278373     0.2088123
  C        1.3527330     1.8066140    -0.4558870
  C        1.8123640    -0.5701240     0.2233340
  C       -1.2481770     0.5074040     1.2784860
  C       -2.6022980     0.1802550     1.0222870
  C        3.2848510    -0.2882260     0.0069730
  C       -2.7981330    -0.3054580    -0.2520070
  H        0.6391180     2.5565960    -0.1121450
  H        1.3549250     1.8004410    -1.5532040
  H        2.3443270     2.0847450    -0.0978400
  H       -0.8644230     0.8946460     2.2167190
  H       -3.4051180     0.2883830     1.7439780
  H        3.6654260     0.4295190     0.7396260
  H        3.4786200     0.1121010    -0.9922510
  H        3.8138040    -1.2333750     0.1250220
  H       -3.7244210    -0.6394710    -0.7024050
units angstrom
no_reorient  #important for SAPT in psi4, default
symmetry c1  #important for SAPT in psi4, default
}

set PROPERTIES_ORIGIN ["COM"]
properties('MP2/aug-cc-pvtz', properties = ['dipole'])
--------------------------------------------------------------------------

    Molecular point group: c1
  Charge       = 0
  Multiplicity = 1
  Basis Set: AUG-CC-PVTZ
    Blend: AUG-CC-PVTZ
  Basis Set: (AUG-CC-PVTZ AUX)
    Blend: AUG-CC-PVTZ-JKFIT

    Orbital Energies [Eh]
    ---------------------

    Doubly Occupied:

       1A    -91.989945     2A    -20.512284     3A    -15.592657
       4A    -11.348566     5A    -11.293420     6A    -11.270492
       7A    -11.262667     8A    -11.243380     9A    -11.236805
      10A    -11.228316    11A     -8.992570    12A     -6.673711
      13A     -6.672888    14A     -6.671922    15A     -1.366699
      16A     -1.235698    17A     -1.184971    18A     -1.016842
      19A     -1.008820    20A     -0.979427    21A     -0.936191
      22A     -0.781504    23A     -0.766736    24A     -0.728136
      25A     -0.681383    26A     -0.667185    27A     -0.636008
      28A     -0.616459    29A     -0.583843    30A     -0.576109
      31A     -0.570578    32A     -0.561026    33A     -0.557781
      34A     -0.539535    35A     -0.509219    36A     -0.502764
      37A     -0.497727    38A     -0.416371    39A     -0.379854
      40A     -0.359728    41A     -0.334652

  @DF-RHF Final Energy:  -797.25840669923230

   => Energetics <=

    Nuclear Repulsion Energy =            606.9577201909884252
    One-Electron Energy =               -2298.4625125593333905
    Two-Electron Energy =                 894.2463856691127830
    Total Energy =                       -797.2584066992322960
  Basis Set: (AUG-CC-PVTZ AUX)
    Blend: AUG-CC-PVTZ-RI
    Molecular point group: c1

    Geometry (in Angstrom), charge = 0, multiplicity = 1:

       Center              X                  Y                   Z               Mass
    ------------   -----------------  -----------------  -----------------  -----------------
         S           -1.271982938795    -0.329504752572    -1.137271405998    31.972071174400
         O            1.456524061205    -1.645897752572     0.521705594002    15.994914619570
         N            1.013316061205     0.558772247428     0.110827594002    14.003074004430
         C           -0.566430938795     0.270750547428     0.216356894002    12.000000000000
         C            1.414446061205     1.849527247428    -0.448342405998    12.000000000000
         C            1.874077061205    -0.527210752572     0.230878594002    12.000000000000
         C           -1.186463938795     0.550317247428     1.286030594002    12.000000000000
         C           -2.540584938795     0.223168247428     1.029831594002    12.000000000000
         C            3.346564061205    -0.245312752572     0.014517594002    12.000000000000
         C           -2.736419938795    -0.262544752572    -0.244462405998    12.000000000000
         H            0.700831061205     2.599509247428    -0.104600405998     1.007825032230
         H            1.416638061205     1.843354247428    -1.545659405998     1.007825032230
         H            2.406040061205     2.127658247428    -0.090295405998     1.007825032230
         H           -0.802709938795     0.937559247428     2.224263594002     1.007825032230
         H           -3.343404938795     0.331296247428     1.751522594002     1.007825032230
         H            3.727139061205     0.472432247428     0.747170594002     1.007825032230
         H            3.540333061205     0.155014247428    -0.984706405998     1.007825032230
         H            3.875517061205    -1.190461752572     0.132566594002     1.007825032230
         H           -3.662707938795    -0.596557752572    -0.694860405998     1.007825032230

  Basis Set: AUG-CC-PVTZ
    Blend: AUG-CC-PVTZ
  Basis Set: (AUG-CC-PVTZ AUX)
    Blend: AUG-CC-PVTZ-JKFIT
	 Reference Energy          =    -797.2584066992322960 [Eh]
	 Singles Energy            =      -0.0000000000000000 [Eh]
	 Same-Spin Energy          =      -0.4855940640785777 [Eh]
	 Opposite-Spin Energy      =      -1.5049763740777704 [Eh]
	 Correlation Energy        =      -1.9905704381563480 [Eh]
	 Total Energy              =    -799.2489771373886924 [Eh]

	 ================> DF-SCS-MP2 Energies <==================
	-----------------------------------------------------------
	 SCS Same-Spin Scale       =       0.3333333333333333 [-]
	 SCS Opposite-Spin Scale   =       1.2000000000000000 [-]
	 SCS Same-Spin Energy      =      -0.1618646880261926 [Eh]
	 SCS Opposite-Spin Energy  =      -1.8059716488933244 [Eh]
	 SCS Correlation Energy    =      -1.9678363369195169 [Eh]
	 SCS Total Energy          =    -799.2262430361518000 [Eh]
	-----------------------------------------------------------

  Dipole Moment: [D]
     X:    -0.0190      Y:     3.4609      Z:    -0.7828     Total:     3.5484

*** Psi4 exiting successfully. Buy a developer a beer!
