                               Psi4 1.3.2 release

  ==> Input File <==

--------------------------------------------------------------------------
#psi4
#
memory 32 gb

molecule  {
0 1
  S       -1.3336960    -0.3724180    -1.1448160
  O        1.3948110    -1.6888110     0.5141610
  N        0.9516030     0.5158590     0.1032830
  C       -0.5096422     0.2331319     0.1481538
  C        1.3527330     1.8066140    -0.4558870
  C        1.8123640    -0.5701240     0.2233340
  C       -1.2481770     0.5074040     1.2784860
  C       -2.6022980     0.1802550     1.0222870
  C        3.2848510    -0.2882260     0.0069730
  C       -2.7981330    -0.3054580    -0.2520070
  H        0.6391180     2.5565960    -0.1121450
  H        1.3549250     1.8004410    -1.5532040
  H        2.3443270     2.0847450    -0.0978400
  H       -0.8644230     0.8946460     2.2167190
  H       -3.4051180     0.2883830     1.7439780
  H        3.6654260     0.4295190     0.7396260
  H        3.4786200     0.1121010    -0.9922510
  H        3.8138040    -1.2333750     0.1250220
  H       -3.7244210    -0.6394710    -0.7024050
units angstrom
no_reorient  #important for SAPT in psi4, default
symmetry c1  #important for SAPT in psi4, default
}

set PROPERTIES_ORIGIN ["COM"]
properties('MP2/aug-cc-pvtz', properties = ['dipole'])
--------------------------------------------------------------------------

    Molecular point group: c1
  Charge       = 0
  Multiplicity = 1
  Basis Set: AUG-CC-PVTZ
    Blend: AUG-CC-PVTZ
  Basis Set: (AUG-CC-PVTZ AUX)
    Blend: AUG-CC-PVTZ-JKFIT

    Orbital Energies [Eh]
    ---------------------

    Doubly Occupied:

       1A    -91.989145     2A    -20.518793     3A    -15.599790
       4A    -11.354379     5A    -11.296019     6A    -11.274965
       7A    -11.260586     8A    -11.240629     9A    -11.240543
      10A    -11.236683    11A     -8.991132    12A     -6.672252
      13A     -6.671577    14A     -6.670727    15A     -1.374622
      16A     -1.248216    17A     -1.171069    18A     -1.016316
      19A     -0.998994    20A     -0.978625    21A     -0.940085
      22A     -0.796822    23A     -0.764571    24A     -0.718021
      25A     -0.685574    26A     -0.675008    27A     -0.642896
      28A     -0.621929    29A     -0.588300    30A     -0.576145
      31A     -0.563850    32A     -0.562923    33A     -0.553509
      34A     -0.536200    35A     -0.525737    36A     -0.506171
      37A     -0.490057    38A     -0.423383    39A     -0.386515
      40A     -0.349838    41A     -0.322416

  @DF-RHF Final Energy:  -797.28885074666096

   => Energetics <=

    Nuclear Repulsion Energy =            606.9065023410596496
    One-Electron Energy =               -2298.3206800449356706
    Two-Electron Energy =                 894.1253269572150657
    Total Energy =                       -797.2888507466609553
  Basis Set: (AUG-CC-PVTZ AUX)
    Blend: AUG-CC-PVTZ-RI
    Molecular point group: c1

    Geometry (in Angstrom), charge = 0, multiplicity = 1:

       Center              X                  Y                   Z               Mass
    ------------   -----------------  -----------------  -----------------  -----------------
         S           -1.281154876042    -0.329914550052    -1.132576490347    31.972071174400
         O            1.447352123958    -1.646307550052     0.526400509653    15.994914619570
         N            1.004144123958     0.558362449948     0.115522509653    14.003074004430
         C           -0.457101076042     0.275635349948     0.160393309653    12.000000000000
         C            1.405274123958     1.849117449948    -0.443647490347    12.000000000000
         C            1.864905123958    -0.527620550052     0.235573509653    12.000000000000
         C           -1.195635876042     0.549907449948     1.290725509653    12.000000000000
         C           -2.549756876042     0.222758449948     1.034526509653    12.000000000000
         C            3.337392123958    -0.245722550052     0.019212509653    12.000000000000
         C           -2.745591876042    -0.262954550052    -0.239767490347    12.000000000000
         H            0.691659123958     2.599099449948    -0.099905490347     1.007825032230
         H            1.407466123958     1.842944449948    -1.540964490347     1.007825032230
         H            2.396868123958     2.127248449948    -0.085600490347     1.007825032230
         H           -0.811881876042     0.937149449948     2.228958509653     1.007825032230
         H           -3.352576876042     0.330886449948     1.756217509653     1.007825032230
         H            3.717967123958     0.472022449948     0.751865509653     1.007825032230
         H            3.531161123958     0.154604449948    -0.980011490347     1.007825032230
         H            3.866345123958    -1.190871550052     0.137261509653     1.007825032230
         H           -3.671879876042    -0.596967550052    -0.690165490347     1.007825032230

  Basis Set: AUG-CC-PVTZ
    Blend: AUG-CC-PVTZ
  Basis Set: (AUG-CC-PVTZ AUX)
    Blend: AUG-CC-PVTZ-JKFIT
	 Reference Energy          =    -797.2888507466609553 [Eh]
	 Singles Energy            =      -0.0000000000000000 [Eh]
	 Same-Spin Energy          =      -0.4869880948100938 [Eh]
	 Opposite-Spin Energy      =      -1.5056971214279045 [Eh]
	 Correlation Energy        =      -1.9926852162379982 [Eh]
	 Total Energy              =    -799.2815359628989427 [Eh]

	 ================> DF-SCS-MP2 Energies <==================
	-----------------------------------------------------------
	 SCS Same-Spin Scale       =       0.3333333333333333 [-]
	 SCS Opposite-Spin Scale   =       1.2000000000000000 [-]
	 SCS Same-Spin Energy      =      -0.1623293649366979 [Eh]
	 SCS Opposite-Spin Energy  =      -1.8068365457134852 [Eh]
	 SCS Correlation Energy    =      -1.9691659106501831 [Eh]
	 SCS Total Energy          =    -799.2580166573111455 [Eh]
	-----------------------------------------------------------

  Dipole Moment: [D]
     X:     0.3765      Y:     3.4302      Z:    -0.8219     Total:     3.5473

*** Psi4 exiting successfully. Buy a developer a beer!
