                               Psi4 1.3.2 release

  ==> Input File <==

--------------------------------------------------------------------------
#psi4
#
memory 32 gb

molecule  {
0 1
  S       -1.3336960    -0.3724180    -1.1448160
  O        1.3948110    -1.6888110     0.5141610
  N        0.9516030     0.5158590     0.1032830
  C       -0.3579570     0.2953217     0.2485155
  C        1.3527330     1.8066140    -0.4558870
  C        1.8123640    -0.5701240     0.2233340
  C       -1.2481770     0.5074040     1.2784860
  C       -2.6022980     0.1802550     1.0222870
  C        3.2848510    -0.2882260     0.0069730
  C       -2.7981330    -0.3054580    -0.2520070
  H        0.6391180     2.5565960    -0.1121450
  H        1.3549250     1.8004410    -1.5532040
  H        2.3443270     2.0847450    -0.0978400
  H       -0.8644230     0.8946460     2.2167190
  H       -3.4051180     0.2883830     1.7439780
  H        3.6654260     0.4295190     0.7396260
  H        3.4786200     0.1121010    -0.9922510
  H        3.8138040    -1.2333750     0.1250220
  H       -3.7244210    -0.6394710    -0.7024050
units angstrom
no_reorient  #important for SAPT in psi4, default
symmetry c1  #important for SAPT in psi4, default
}

set PROPERTIES_ORIGIN ["COM"]
properties('MP2/aug-cc-pvtz', properties = ['dipole'])
--------------------------------------------------------------------------

    Molecular point group: c1
  Charge       = 0
  Multiplicity = 1
  Basis Set: AUG-CC-PVTZ
    Blend: AUG-CC-PVTZ
  Basis Set: (AUG-CC-PVTZ AUX)
    Blend: AUG-CC-PVTZ-JKFIT

    Orbital Energies [Eh]
    ---------------------

    Doubly Occupied:

       1A    -91.973272     2A    -20.528034     3A    -15.605445
       4A    -11.362540     5A    -11.298301     6A    -11.281703
       7A    -11.264628     8A    -11.245908     9A    -11.240509
      10A    -11.237077    11A     -8.972873    12A     -6.653823
      13A     -6.653215    14A     -6.652580    15A     -1.387613
      16A     -1.281958    17A     -1.148301    18A     -1.028404
      19A     -0.989233    20A     -0.977600    21A     -0.942031
      22A     -0.830434    23A     -0.761373    24A     -0.712295
      25A     -0.689904    26A     -0.686125    27A     -0.654458
      28A     -0.627243    29A     -0.594556    30A     -0.583997
      31A     -0.574425    32A     -0.567881    33A     -0.561524
      34A     -0.543873    35A     -0.505979    36A     -0.501709
      37A     -0.466606    38A     -0.431899    39A     -0.382568
      40A     -0.343542    41A     -0.316303

  @DF-RHF Final Energy:  -797.28834519267866

   => Energetics <=

    Nuclear Repulsion Energy =            606.0581801736900616
    One-Electron Energy =               -2296.5695628469316034
    Two-Electron Energy =                 893.2230374805628799
    Total Energy =                       -797.2883451926786620
  Basis Set: (AUG-CC-PVTZ AUX)
    Blend: AUG-CC-PVTZ-RI
    Molecular point group: c1

    Geometry (in Angstrom), charge = 0, multiplicity = 1:

       Center              X                  Y                   Z               Mass
    ------------   -----------------  -----------------  -----------------  -----------------
         S           -1.292895179866    -0.334727987004    -1.140344399479    31.972071174400
         O            1.435611820134    -1.651120987004     0.518632600521    15.994914619570
         N            0.992403820134     0.553549012996     0.107754600521    14.003074004430
         C           -0.317156179866     0.333011712996     0.252987100521    12.000000000000
         C            1.393533820134     1.844304012996    -0.451415399479    12.000000000000
         C            1.853164820134    -0.532433987004     0.227805600521    12.000000000000
         C           -1.207376179866     0.545094012996     1.282957600521    12.000000000000
         C           -2.561497179866     0.217945012996     1.026758600521    12.000000000000
         C            3.325651820134    -0.250535987004     0.011444600521    12.000000000000
         C           -2.757332179866    -0.267767987004    -0.247535399479    12.000000000000
         H            0.679918820134     2.594286012996    -0.107673399479     1.007825032230
         H            1.395725820134     1.838131012996    -1.548732399479     1.007825032230
         H            2.385127820134     2.122435012996    -0.093368399479     1.007825032230
         H           -0.823622179866     0.932336012996     2.221190600521     1.007825032230
         H           -3.364317179866     0.326073012996     1.748449600521     1.007825032230
         H            3.706226820134     0.467209012996     0.744097600521     1.007825032230
         H            3.519420820134     0.149791012996    -0.987779399479     1.007825032230
         H            3.854604820134    -1.195684987004     0.129493600521     1.007825032230
         H           -3.683620179866    -0.601780987004    -0.697933399479     1.007825032230

  Basis Set: AUG-CC-PVTZ
    Blend: AUG-CC-PVTZ
  Basis Set: (AUG-CC-PVTZ AUX)
    Blend: AUG-CC-PVTZ-JKFIT
	 Reference Energy          =    -797.2883451926786620 [Eh]
	 Singles Energy            =      -0.0000000000000000 [Eh]
	 Same-Spin Energy          =      -0.4873089033870733 [Eh]
	 Opposite-Spin Energy      =      -1.5070857405104801 [Eh]
	 Correlation Energy        =      -1.9943946438975533 [Eh]
	 Total Energy              =    -799.2827398365761837 [Eh]

	 ================> DF-SCS-MP2 Energies <==================
	-----------------------------------------------------------
	 SCS Same-Spin Scale       =       0.3333333333333333 [-]
	 SCS Opposite-Spin Scale   =       1.2000000000000000 [-]
	 SCS Same-Spin Energy      =      -0.1624363011290244 [Eh]
	 SCS Opposite-Spin Energy  =      -1.8085028886125760 [Eh]
	 SCS Correlation Energy    =      -1.9709391897416004 [Eh]
	 SCS Total Energy          =    -799.2592843824202191 [Eh]
	-----------------------------------------------------------

  Dipole Moment: [D]
     X:     1.0928      Y:     3.5571      Z:    -0.4589     Total:     3.7494

*** Psi4 exiting successfully. Buy a developer a beer!
