                               Psi4 1.3.2 release

  ==> Input File <==

--------------------------------------------------------------------------
#psi4
#
memory 32 gb

molecule  {
0 1
  S       -1.3336960    -0.3724180    -1.1448160
  O        1.3948110    -1.6888110     0.5141610
  N        0.9516030     0.5158590     0.1032830
  C       -0.3279285     0.3368957     0.3501023
  C        1.3527330     1.8066140    -0.4558870
  C        1.8123640    -0.5701240     0.2233340
  C       -1.2481770     0.5074040     1.2784860
  C       -2.6022980     0.1802550     1.0222870
  C        3.2848510    -0.2882260     0.0069730
  C       -2.7981330    -0.3054580    -0.2520070
  H        0.6391180     2.5565960    -0.1121450
  H        1.3549250     1.8004410    -1.5532040
  H        2.3443270     2.0847450    -0.0978400
  H       -0.8644230     0.8946460     2.2167190
  H       -3.4051180     0.2883830     1.7439780
  H        3.6654260     0.4295190     0.7396260
  H        3.4786200     0.1121010    -0.9922510
  H        3.8138040    -1.2333750     0.1250220
  H       -3.7244210    -0.6394710    -0.7024050
units angstrom
no_reorient  #important for SAPT in psi4, default
symmetry c1  #important for SAPT in psi4, default
}

set PROPERTIES_ORIGIN ["COM"]
properties('MP2/aug-cc-pvtz', properties = ['dipole'])
--------------------------------------------------------------------------

    Molecular point group: c1
  Charge       = 0
  Multiplicity = 1
  Basis Set: AUG-CC-PVTZ
    Blend: AUG-CC-PVTZ
  Basis Set: (AUG-CC-PVTZ AUX)
    Blend: AUG-CC-PVTZ-JKFIT

    Orbital Energies [Eh]
    ---------------------

    Doubly Occupied:

       1A    -91.958434     2A    -20.532020     3A    -15.611073
       4A    -11.366216     5A    -11.300379     6A    -11.284837
       7A    -11.266667     8A    -11.248468     9A    -11.240271
      10A    -11.234770    11A     -8.958151    12A     -6.639130
      13A     -6.638264    14A     -6.637743    15A     -1.392063
      16A     -1.290570    17A     -1.146458    18A     -1.033178
      19A     -0.998079    20A     -0.977048    21A     -0.938552
      22A     -0.839376    23A     -0.765358    24A     -0.712178
      25A     -0.692125    26A     -0.689777    27A     -0.659213
      28A     -0.628342    29A     -0.597237    30A     -0.588530
      31A     -0.582153    32A     -0.571212    33A     -0.565141
      34A     -0.539882    35A     -0.502356    36A     -0.496645
      37A     -0.457137    38A     -0.435469    39A     -0.371694
      40A     -0.352163    41A     -0.312324

  @DF-RHF Final Energy:  -797.27128383253284

   => Energetics <=

    Nuclear Repulsion Energy =            605.3848329205072787
    One-Electron Energy =               -2295.2108666669619197
    Two-Electron Energy =                 892.5547499139217962
    Total Energy =                       -797.2712838325328448
  Basis Set: (AUG-CC-PVTZ AUX)
    Blend: AUG-CC-PVTZ-RI
    Molecular point group: c1

    Geometry (in Angstrom), charge = 0, multiplicity = 1:

       Center              X                  Y                   Z               Mass
    ------------   -----------------  -----------------  -----------------  -----------------
         S           -1.295219359901    -0.337945778794    -1.148207130296    31.972071174400
         O            1.433287640099    -1.654338778794     0.510769869704    15.994914619570
         N            0.990079640099     0.550331221206     0.099891869704    14.003074004430
         C           -0.289451859901     0.371367921206     0.346711169704    12.000000000000
         C            1.391209640099     1.841086221206    -0.459278130296    12.000000000000
         C            1.850840640099    -0.535651778794     0.219942869704    12.000000000000
         C           -1.209700359901     0.541876221206     1.275094869704    12.000000000000
         C           -2.563821359901     0.214727221206     1.018895869704    12.000000000000
         C            3.323327640099    -0.253753778794     0.003581869704    12.000000000000
         C           -2.759656359901    -0.270985778794    -0.255398130296    12.000000000000
         H            0.677594640099     2.591068221206    -0.115536130296     1.007825032230
         H            1.393401640099     1.834913221206    -1.556595130296     1.007825032230
         H            2.382803640099     2.119217221206    -0.101231130296     1.007825032230
         H           -0.825946359901     0.929118221206     2.213327869704     1.007825032230
         H           -3.366641359901     0.322855221206     1.740586869704     1.007825032230
         H            3.703902640099     0.463991221206     0.736234869704     1.007825032230
         H            3.517096640099     0.146573221206    -0.995642130296     1.007825032230
         H            3.852280640099    -1.198902778794     0.121630869704     1.007825032230
         H           -3.685944359901    -0.604998778794    -0.705796130296     1.007825032230

  Basis Set: AUG-CC-PVTZ
    Blend: AUG-CC-PVTZ
  Basis Set: (AUG-CC-PVTZ AUX)
    Blend: AUG-CC-PVTZ-JKFIT
	 Reference Energy          =    -797.2712838325328448 [Eh]
	 Singles Energy            =      -0.0000000000000000 [Eh]
	 Same-Spin Energy          =      -0.4866189421373532 [Eh]
	 Opposite-Spin Energy      =      -1.5069989638772314 [Eh]
	 Correlation Energy        =      -1.9936179060145847 [Eh]
	 Total Energy              =    -799.2649017385474508 [Eh]

	 ================> DF-SCS-MP2 Energies <==================
	-----------------------------------------------------------
	 SCS Same-Spin Scale       =       0.3333333333333333 [-]
	 SCS Opposite-Spin Scale   =       1.2000000000000000 [-]
	 SCS Same-Spin Energy      =      -0.1622063140457844 [Eh]
	 SCS Opposite-Spin Energy  =      -1.8083987566526776 [Eh]
	 SCS Correlation Energy    =      -1.9706050706984619 [Eh]
	 SCS Total Energy          =    -799.2418889032312563 [Eh]
	-----------------------------------------------------------

  Dipole Moment: [D]
     X:     1.4841      Y:     3.6845      Z:    -0.1514     Total:     3.9750

*** Psi4 exiting successfully. Buy a developer a beer!
