                               Psi4 1.3.2 release

  ==> Input File <==

--------------------------------------------------------------------------
#psi4
#
memory 32 gb

molecule  {
0 1
  S       -1.3336960    -0.3724180    -1.1448160
  O        1.3948110    -1.6888110     0.5141610
  N        0.9516030     0.5158590     0.1032830
  C       -0.3798698     0.3002644     0.2728997
  C        1.3527330     1.8066140    -0.4558870
  C        1.8123640    -0.5701240     0.2233340
  C       -1.2481770     0.5074040     1.2784860
  C       -2.6022980     0.1802550     1.0222870
  C        3.2848510    -0.2882260     0.0069730
  C       -2.7981330    -0.3054580    -0.2520070
  H        0.6391180     2.5565960    -0.1121450
  H        1.3549250     1.8004410    -1.5532040
  H        2.3443270     2.0847450    -0.0978400
  H       -0.8644230     0.8946460     2.2167190
  H       -3.4051180     0.2883830     1.7439780
  H        3.6654260     0.4295190     0.7396260
  H        3.4786200     0.1121010    -0.9922510
  H        3.8138040    -1.2333750     0.1250220
  H       -3.7244210    -0.6394710    -0.7024050
units angstrom
no_reorient  #important for SAPT in psi4, default
symmetry c1  #important for SAPT in psi4, default
}

set PROPERTIES_ORIGIN ["COM"]
properties('MP2/aug-cc-pvtz', properties = ['dipole'])
--------------------------------------------------------------------------

    Molecular point group: c1
  Charge       = 0
  Multiplicity = 1
  Basis Set: AUG-CC-PVTZ
    Blend: AUG-CC-PVTZ
  Basis Set: (AUG-CC-PVTZ AUX)
    Blend: AUG-CC-PVTZ-JKFIT

    Orbital Energies [Eh]
    ---------------------

    Doubly Occupied:

       1A    -91.972406     2A    -20.526756     3A    -15.605545
       4A    -11.361694     5A    -11.297268     6A    -11.281053
       7A    -11.265259     8A    -11.245360     9A    -11.238252
      10A    -11.237003    11A     -8.972057    12A     -6.653018
      13A     -6.652353    14A     -6.651716    15A     -1.385397
      16A     -1.275938    17A     -1.151853    18A     -1.027000
      19A     -0.991752    20A     -0.977509    21A     -0.942346
      22A     -0.825883    23A     -0.763704    24A     -0.712868
      25A     -0.689966    26A     -0.684672    27A     -0.653031
      28A     -0.626676    29A     -0.593789    30A     -0.583074
      31A     -0.573117    32A     -0.567356    33A     -0.562507
      34A     -0.541783    35A     -0.508240    36A     -0.501512
      37A     -0.466416    38A     -0.430698    39A     -0.382775
      40A     -0.347748    41A     -0.318374

  @DF-RHF Final Energy:  -797.29108396350205

   => Energetics <=

    Nuclear Repulsion Energy =            605.8820800292703552
    One-Electron Energy =               -2296.2548816187022567
    Two-Electron Energy =                 893.0817176259298549
    Total Energy =                       -797.2910839635020466
  Basis Set: (AUG-CC-PVTZ AUX)
    Blend: AUG-CC-PVTZ-RI
    Molecular point group: c1

    Geometry (in Angstrom), charge = 0, multiplicity = 1:

       Center              X                  Y                   Z               Mass
    ------------   -----------------  -----------------  -----------------  -----------------
         S           -1.291199148021    -0.335110547726    -1.142231715555    31.972071174400
         O            1.437307851979    -1.651503547726     0.516745284445    15.994914619570
         N            0.994099851979     0.553166452274     0.105867284445    14.003074004430
         C           -0.337372948021     0.337571852274     0.275483984445    12.000000000000
         C            1.395229851979     1.843921452274    -0.453302715555    12.000000000000
         C            1.854860851979    -0.532816547726     0.225918284445    12.000000000000
         C           -1.205680148021     0.544711452274     1.281070284445    12.000000000000
         C           -2.559801148021     0.217562452274     1.024871284445    12.000000000000
         C            3.327347851979    -0.250918547726     0.009557284445    12.000000000000
         C           -2.755636148021    -0.268150547726    -0.249422715555    12.000000000000
         H            0.681614851979     2.593903452274    -0.109560715555     1.007825032230
         H            1.397421851979     1.837748452274    -1.550619715555     1.007825032230
         H            2.386823851979     2.122052452274    -0.095255715555     1.007825032230
         H           -0.821926148021     0.931953452274     2.219303284445     1.007825032230
         H           -3.362621148021     0.325690452274     1.746562284445     1.007825032230
         H            3.707922851979     0.466826452274     0.742210284445     1.007825032230
         H            3.521116851979     0.149408452274    -0.989666715555     1.007825032230
         H            3.856300851979    -1.196067547726     0.127606284445     1.007825032230
         H           -3.681924148021    -0.602163547726    -0.699820715555     1.007825032230

  Basis Set: AUG-CC-PVTZ
    Blend: AUG-CC-PVTZ
  Basis Set: (AUG-CC-PVTZ AUX)
    Blend: AUG-CC-PVTZ-JKFIT
	 Reference Energy          =    -797.2910839635020466 [Eh]
	 Singles Energy            =      -0.0000000000000000 [Eh]
	 Same-Spin Energy          =      -0.4862701224651193 [Eh]
	 Opposite-Spin Energy      =      -1.5059682844422932 [Eh]
	 Correlation Energy        =      -1.9922384069074126 [Eh]
	 Total Energy              =    -799.2833223704094507 [Eh]

	 ================> DF-SCS-MP2 Energies <==================
	-----------------------------------------------------------
	 SCS Same-Spin Scale       =       0.3333333333333333 [-]
	 SCS Opposite-Spin Scale   =       1.2000000000000000 [-]
	 SCS Same-Spin Energy      =      -0.1620900408217064 [Eh]
	 SCS Opposite-Spin Energy  =      -1.8071619413307518 [Eh]
	 SCS Correlation Energy    =      -1.9692519821524583 [Eh]
	 SCS Total Energy          =    -799.2603359456545604 [Eh]
	-----------------------------------------------------------

  Dipole Moment: [D]
     X:     1.0224      Y:     3.5759      Z:    -0.4228     Total:     3.7431

*** Psi4 exiting successfully. Buy a developer a beer!
