                               Psi4 1.4a3.dev225

  ==> Input File <==

--------------------------------------------------------------------------
#psi4
#
memory 32 gb

molecule  {
0 1
  S       -1.3336960    -0.3724180    -1.1448160
  O        1.3948110    -1.6888110     0.5141610
  N        0.9516030     0.5158590     0.1032830
  C       -0.4214228     0.2709593     0.2111375
  C        1.3527330     1.8066140    -0.4558870
  C        1.8123640    -0.5701240     0.2233340
  C       -1.2481770     0.5074040     1.2784860
  C       -2.6022980     0.1802550     1.0222870
  C        3.2848510    -0.2882260     0.0069730
  C       -2.7981330    -0.3054580    -0.2520070
  H        0.6391180     2.5565960    -0.1121450
  H        1.3549250     1.8004410    -1.5532040
  H        2.3443270     2.0847450    -0.0978400
  H       -0.8644230     0.8946460     2.2167190
  H       -3.4051180     0.2883830     1.7439780
  H        3.6654260     0.4295190     0.7396260
  H        3.4786200     0.1121010    -0.9922510
  H        3.8138040    -1.2333750     0.1250220
  H       -3.7244210    -0.6394710    -0.7024050
units angstrom
no_reorient  #important for SAPT in psi4, default
symmetry c1  #important for SAPT in psi4, default
}

set PROPERTIES_ORIGIN ["COM"]
properties('MP2/aug-cc-pvtz', properties = ['dipole'])
--------------------------------------------------------------------------

    Molecular point group: c1
  Charge       = 0
  Multiplicity = 1
  Basis Set: AUG-CC-PVTZ
    Blend: AUG-CC-PVTZ
  Basis Set: (AUG-CC-PVTZ AUX)
    Blend: AUG-CC-PVTZ-JKFIT

    Orbital Energies [Eh]
    ---------------------

    Doubly Occupied:

       1A    -91.980929     2A    -20.523586     3A    -15.602847
       4A    -11.358791     5A    -11.296534     6A    -11.278615
       7A    -11.263455     8A    -11.243437     9A    -11.238956
      10A    -11.237580    11A     -8.981087    12A     -6.662038
      13A     -6.661539    14A     -6.660782    15A     -1.381220
      16A     -1.265520    17A     -1.157306    18A     -1.022673
      19A     -0.987428    20A     -0.982044    21A     -0.942517
      22A     -0.815738    23A     -0.762682    24A     -0.714192
      25A     -0.688280    26A     -0.681110    27A     -0.649003
      28A     -0.625121    29A     -0.591635    30A     -0.580191
      31A     -0.567053    32A     -0.564627    33A     -0.557248
      34A     -0.545426    35A     -0.513711    36A     -0.504302
      37A     -0.475746    38A     -0.427887    39A     -0.386567
      40A     -0.345732    41A     -0.320682

  @DF-RHF Final Energy:  -797.29766782327783

   => Energetics <=

    Nuclear Repulsion Energy =            606.3053077244828728
    One-Electron Energy =               -2297.1143179944660915
    Two-Electron Energy =                 893.5113424467053846
    Total Energy =                       -797.2976678232778340
  Basis Set: (AUG-CC-PVTZ AUX)
    Blend: AUG-CC-PVTZ-RI
    Molecular point group: c1

    Geometry (in Angstrom), charge = 0, multiplicity = 1:

       Center              X                  Y                   Z               Mass
    ------------   -----------------  -----------------  -----------------  -----------------
         S           -1.287982981613    -0.332842358229    -1.137451374475    31.972071174400
         O            1.440524018387    -1.649235358229     0.521525625525    15.994914619570
         N            0.997316018387     0.555434641771     0.110647625525    14.003074004430
         C           -0.375709781613     0.310534941771     0.218502125525    12.000000000000
         C            1.398446018387     1.846189641771    -0.448522374475    12.000000000000
         C            1.858077018387    -0.530548358229     0.230698625525    12.000000000000
         C           -1.202463981613     0.546979641771     1.285850625525    12.000000000000
         C           -2.556584981613     0.219830641771     1.029651625525    12.000000000000
         C            3.330564018387    -0.248650358229     0.014337625525    12.000000000000
         C           -2.752419981613    -0.265882358229    -0.244642374475    12.000000000000
         H            0.684831018387     2.596171641771    -0.104780374475     1.007825032230
         H            1.400638018387     1.840016641771    -1.545839374475     1.007825032230
         H            2.390040018387     2.124320641771    -0.090475374475     1.007825032230
         H           -0.818709981613     0.934221641771     2.224083625525     1.007825032230
         H           -3.359404981613     0.327958641771     1.751342625525     1.007825032230
         H            3.711139018387     0.469094641771     0.746990625525     1.007825032230
         H            3.524333018387     0.151676641771    -0.984886374475     1.007825032230
         H            3.859517018387    -1.193799358229     0.132386625525     1.007825032230
         H           -3.678707981613    -0.599895358229    -0.695040374475     1.007825032230

  Basis Set: AUG-CC-PVTZ
    Blend: AUG-CC-PVTZ
  Basis Set: (AUG-CC-PVTZ AUX)
    Blend: AUG-CC-PVTZ-JKFIT
	 Reference Energy          =    -797.2976678232778340 [Eh]
	 Singles Energy            =      -0.0000000000000000 [Eh]
	 Same-Spin Energy          =      -0.4865447150674845 [Eh]
	 Opposite-Spin Energy      =      -1.5057066509304433 [Eh]
	 Correlation Energy        =      -1.9922513659979280 [Eh]
	 Total Energy              =    -799.2899191892757926 [Eh]

	 ================> DF-SCS-MP2 Energies <==================
	-----------------------------------------------------------
	 SCS Same-Spin Scale       =       0.3333333333333333 [-]
	 SCS Opposite-Spin Scale   =       1.2000000000000000 [-]
	 SCS Same-Spin Energy      =      -0.1621815716891615 [Eh]
	 SCS Opposite-Spin Energy  =      -1.8068479811165319 [Eh]
	 SCS Correlation Energy    =      -1.9690295528056934 [Eh]
	 SCS Total Energy          =    -799.2666973760834708 [Eh]
	-----------------------------------------------------------

  Dipole Moment: [D]
     X:     0.7400      Y:     3.5024      Z:    -0.6123     Total:     3.6317

*** Psi4 exiting successfully. Buy a developer a beer!
