                               Psi4 1.3.2 release

  ==> Input File <==

--------------------------------------------------------------------------
#psi4
#
memory 32 gb

molecule  {
0 1
  S       -1.4799451    -0.3661038    -1.0370962
  O        1.3948110    -1.6888110     0.5141610
  N        0.9516030     0.5158590     0.1032830
  C       -0.4318110     0.2636330     0.1956970
  C        1.3527330     1.8066140    -0.4558870
  C        1.8123640    -0.5701240     0.2233340
  C       -1.2481770     0.5074040     1.2784860
  C       -2.6022980     0.1802550     1.0222870
  C        3.2848510    -0.2882260     0.0069730
  C       -2.7981330    -0.3054580    -0.2520070
  H        0.6391180     2.5565960    -0.1121450
  H        1.3549250     1.8004410    -1.5532040
  H        2.3443270     2.0847450    -0.0978400
  H       -0.8644230     0.8946460     2.2167190
  H       -3.4051180     0.2883830     1.7439780
  H        3.6654260     0.4295190     0.7396260
  H        3.4786200     0.1121010    -0.9922510
  H        3.8138040    -1.2333750     0.1250220
  H       -3.7244210    -0.6394710    -0.7024050
units angstrom
no_reorient  #important for SAPT in psi4, default
symmetry c1  #important for SAPT in psi4, default
}

set PROPERTIES_ORIGIN ["COM"]
properties('MP2/aug-cc-pvtz', properties = ['dipole'])
--------------------------------------------------------------------------

    Molecular point group: c1
  Charge       = 0
  Multiplicity = 1
  Basis Set: AUG-CC-PVTZ
    Blend: AUG-CC-PVTZ
  Basis Set: (AUG-CC-PVTZ AUX)
    Blend: AUG-CC-PVTZ-JKFIT

    Orbital Energies [Eh]
    ---------------------

    Doubly Occupied:

       1A    -91.975925     2A    -20.523286     3A    -15.604749
       4A    -11.358431     5A    -11.289492     6A    -11.278031
       7A    -11.247049     8A    -11.243280     9A    -11.236251
      10A    -11.229757    11A     -8.981823    12A     -6.663467
      13A     -6.662029    14A     -6.661313    15A     -1.380350
      16A     -1.263472    17A     -1.190308    18A     -1.027218
      19A     -1.003992    20A     -0.978006    21A     -0.940944
      22A     -0.812145    23A     -0.765925    24A     -0.715985
      25A     -0.689482    26A     -0.680615    27A     -0.647579
      28A     -0.634466    29A     -0.591172    30A     -0.580549
      31A     -0.569659    32A     -0.565846    33A     -0.554033
      34A     -0.549808    35A     -0.534894    36A     -0.509635
      37A     -0.468146    38A     -0.427770    39A     -0.386395
      40A     -0.350655    41A     -0.314652

  @DF-RHF Final Energy:  -797.27353368830700

   => Energetics <=

    Nuclear Repulsion Energy =            610.1569450018585030
    One-Electron Energy =               -2304.6837866176792886
    Two-Electron Energy =                 897.2533079275137879
    Total Energy =                       -797.2735336883069976
  Basis Set: (AUG-CC-PVTZ AUX)
    Blend: AUG-CC-PVTZ-RI
    Molecular point group: c1

    Geometry (in Angstrom), charge = 0, multiplicity = 1:

       Center              X                  Y                   Z               Mass
    ------------   -----------------  -----------------  -----------------  -----------------
         S           -1.403268910725    -0.327263207863    -1.050750207838    31.972071174400
         O            1.471487189275    -1.649970407863     0.500506992162    15.994914619570
         N            1.028279189275     0.554699592137     0.089628992162    14.003074004430
         C           -0.355134810725     0.302473592137     0.182042992162    12.000000000000
         C            1.429409189275     1.845454592137    -0.469541007838    12.000000000000
         C            1.889040189275    -0.531283407863     0.209679992162    12.000000000000
         C           -1.171500810725     0.546244592137     1.264831992162    12.000000000000
         C           -2.525621810725     0.219095592137     1.008632992162    12.000000000000
         C            3.361527189275    -0.249385407863    -0.006681007838    12.000000000000
         C           -2.721456810725    -0.266617407863    -0.265661007838    12.000000000000
         H            0.715794189275     2.595436592137    -0.125799007838     1.007825032230
         H            1.431601189275     1.839281592137    -1.566858007838     1.007825032230
         H            2.421003189275     2.123585592137    -0.111494007838     1.007825032230
         H           -0.787746810725     0.933486592137     2.203064992162     1.007825032230
         H           -3.328441810725     0.327223592137     1.730323992162     1.007825032230
         H            3.742102189275     0.468359592137     0.725971992162     1.007825032230
         H            3.555296189275     0.150941592137    -1.005905007838     1.007825032230
         H            3.890480189275    -1.194534407863     0.111367992162     1.007825032230
         H           -3.647744810725    -0.600630407863    -0.716059007838     1.007825032230

  Basis Set: AUG-CC-PVTZ
    Blend: AUG-CC-PVTZ
  Basis Set: (AUG-CC-PVTZ AUX)
    Blend: AUG-CC-PVTZ-JKFIT
	 Reference Energy          =    -797.2735336883069976 [Eh]
	 Singles Energy            =      -0.0000000000000000 [Eh]
	 Same-Spin Energy          =      -0.4889422350467251 [Eh]
	 Opposite-Spin Energy      =      -1.5049365619056156 [Eh]
	 Correlation Energy        =      -1.9938787969523406 [Eh]
	 Total Energy              =    -799.2674124852593422 [Eh]

	 ================> DF-SCS-MP2 Energies <==================
	-----------------------------------------------------------
	 SCS Same-Spin Scale       =       0.3333333333333333 [-]
	 SCS Opposite-Spin Scale   =       1.2000000000000000 [-]
	 SCS Same-Spin Energy      =      -0.1629807450155750 [Eh]
	 SCS Opposite-Spin Energy  =      -1.8059238742867387 [Eh]
	 SCS Correlation Energy    =      -1.9689046193023136 [Eh]
	 SCS Total Energy          =    -799.2424383076092909 [Eh]
	-----------------------------------------------------------

  Dipole Moment: [D]
     X:     0.6945      Y:     3.4304      Z:    -0.7941     Total:     3.5889

*** Psi4 exiting successfully. Buy a developer a beer!
