                               Psi4 1.3.2 release

  ==> Input File <==

--------------------------------------------------------------------------
#psi4
#
memory 32 gb

molecule  {
0 1
  S       -1.3336960    -0.3724180    -1.1448160
  O        1.3948110    -1.6888110     0.5141610
  N        0.9506357     0.5332263     0.1492946
  C       -0.4318110     0.2636330     0.1956970
  C        1.3527330     1.8066140    -0.4558870
  C        1.8123640    -0.5701240     0.2233340
  C       -1.2481770     0.5074040     1.2784860
  C       -2.6022980     0.1802550     1.0222870
  C        3.2848510    -0.2882260     0.0069730
  C       -2.7981330    -0.3054580    -0.2520070
  H        0.6391180     2.5565960    -0.1121450
  H        1.3549250     1.8004410    -1.5532040
  H        2.3443270     2.0847450    -0.0978400
  H       -0.8644230     0.8946460     2.2167190
  H       -3.4051180     0.2883830     1.7439780
  H        3.6654260     0.4295190     0.7396260
  H        3.4786200     0.1121010    -0.9922510
  H        3.8138040    -1.2333750     0.1250220
  H       -3.7244210    -0.6394710    -0.7024050
units angstrom
no_reorient  #important for SAPT in psi4, default
symmetry c1  #important for SAPT in psi4, default
}

set PROPERTIES_ORIGIN ["COM"]
properties('MP2/aug-cc-pvtz', properties = ['dipole'])
--------------------------------------------------------------------------

    Molecular point group: c1
  Charge       = 0
  Multiplicity = 1
  Basis Set: AUG-CC-PVTZ
    Blend: AUG-CC-PVTZ
  Basis Set: (AUG-CC-PVTZ AUX)
    Blend: AUG-CC-PVTZ-JKFIT

    Orbital Energies [Eh]
    ---------------------

    Doubly Occupied:

       1A    -91.983455     2A    -20.525896     3A    -15.602365
       4A    -11.359580     5A    -11.295497     6A    -11.277386
       7A    -11.262864     8A    -11.243651     9A    -11.238717
      10A    -11.236436    11A     -8.983750    12A     -6.664709
      13A     -6.664265    14A     -6.663460    15A     -1.381021
      16A     -1.261702    17A     -1.158290    18A     -1.021810
      19A     -0.987425    20A     -0.981645    21A     -0.940300
      22A     -0.811511    23A     -0.761443    24A     -0.714394
      25A     -0.688025    26A     -0.680099    27A     -0.645963
      28A     -0.624709    29A     -0.591968    30A     -0.578975
      31A     -0.566485    32A     -0.563966    33A     -0.552722
      34A     -0.547592    35A     -0.515057    36A     -0.504875
      37A     -0.478479    38A     -0.428758    39A     -0.388704
      40A     -0.345620    41A     -0.320186

  @DF-RHF Final Energy:  -797.29653811521348

   => Energetics <=

    Nuclear Repulsion Energy =            606.0637878906421747
    One-Electron Energy =               -2296.6331463226642882
    Two-Electron Energy =                 893.2728203168085201
    Total Energy =                       -797.2965381152134796
  Basis Set: (AUG-CC-PVTZ AUX)
    Blend: AUG-CC-PVTZ-RI
    Molecular point group: c1

    Geometry (in Angstrom), charge = 0, multiplicity = 1:

       Center              X                  Y                   Z               Mass
    ------------   -----------------  -----------------  -----------------  -----------------
         S           -1.287091578485    -0.333843903000    -1.140412006594    31.972071174400
         O            1.441415421515    -1.650236903000     0.518564993406    15.994914619570
         N            0.997240121515     0.571800397000     0.153698593406    14.003074004430
         C           -0.385206578485     0.302207097000     0.200100993406    12.000000000000
         C            1.399337421515     1.845188097000    -0.451483006594    12.000000000000
         C            1.858968421515    -0.531549903000     0.227737993406    12.000000000000
         C           -1.201572578485     0.545978097000     1.282889993406    12.000000000000
         C           -2.555693578485     0.218829097000     1.026690993406    12.000000000000
         C            3.331455421515    -0.249651903000     0.011376993406    12.000000000000
         C           -2.751528578485    -0.266883903000    -0.247603006594    12.000000000000
         H            0.685722421515     2.595170097000    -0.107741006594     1.007825032230
         H            1.401529421515     1.839015097000    -1.548800006594     1.007825032230
         H            2.390931421515     2.123319097000    -0.093436006594     1.007825032230
         H           -0.817818578485     0.933220097000     2.221122993406     1.007825032230
         H           -3.358513578485     0.326957097000     1.748381993406     1.007825032230
         H            3.712030421515     0.468093097000     0.744029993406     1.007825032230
         H            3.525224421515     0.150675097000    -0.987847006594     1.007825032230
         H            3.860408421515    -1.194800903000     0.129425993406     1.007825032230
         H           -3.677816578485    -0.600896903000    -0.698001006594     1.007825032230

  Basis Set: AUG-CC-PVTZ
    Blend: AUG-CC-PVTZ
  Basis Set: (AUG-CC-PVTZ AUX)
    Blend: AUG-CC-PVTZ-JKFIT
	 Reference Energy          =    -797.2965381152134796 [Eh]
	 Singles Energy            =      -0.0000000000000000 [Eh]
	 Same-Spin Energy          =      -0.4866853658618040 [Eh]
	 Opposite-Spin Energy      =      -1.5059330833024109 [Eh]
	 Correlation Energy        =      -1.9926184491642149 [Eh]
	 Total Energy              =    -799.2891565643776630 [Eh]

	 ================> DF-SCS-MP2 Energies <==================
	-----------------------------------------------------------
	 SCS Same-Spin Scale       =       0.3333333333333333 [-]
	 SCS Opposite-Spin Scale   =       1.2000000000000000 [-]
	 SCS Same-Spin Energy      =      -0.1622284552872680 [Eh]
	 SCS Opposite-Spin Energy  =      -1.8071196999628931 [Eh]
	 SCS Correlation Energy    =      -1.9693481552501610 [Eh]
	 SCS Total Energy          =    -799.2658862704636249 [Eh]
	-----------------------------------------------------------

  Dipole Moment: [D]
     X:     0.7220      Y:     3.3883      Z:    -0.7008     Total:     3.5345

*** Psi4 exiting successfully. Buy a developer a beer!
