                               Psi4 1.3.2 release

  ==> Input File <==

--------------------------------------------------------------------------
#psi4
#
memory 32 gb

molecule  {
0 1
  S       -1.3836251    -0.3710857    -1.1104862
  O        1.3948110    -1.6888110     0.5141610
  N        0.9516030     0.5158590     0.1032830
  C       -0.4318110     0.2636330     0.1956970
  C        1.3527330     1.8066140    -0.4558870
  C        1.8123640    -0.5701240     0.2233340
  C       -1.2481770     0.5074040     1.2784860
  C       -2.6022980     0.1802550     1.0222870
  C        3.2848510    -0.2882260     0.0069730
  C       -2.7981330    -0.3054580    -0.2520070
  H        0.6391180     2.5565960    -0.1121450
  H        1.3549250     1.8004410    -1.5532040
  H        2.3443270     2.0847450    -0.0978400
  H       -0.8644230     0.8946460     2.2167190
  H       -3.4051180     0.2883830     1.7439780
  H        3.6654260     0.4295190     0.7396260
  H        3.4786200     0.1121010    -0.9922510
  H        3.8138040    -1.2333750     0.1250220
  H       -3.7244210    -0.6394710    -0.7024050
units angstrom
no_reorient  #important for SAPT in psi4, default
symmetry c1  #important for SAPT in psi4, default
}

set PROPERTIES_ORIGIN ["COM"]
properties('MP2/aug-cc-pvtz', properties = ['dipole'])
--------------------------------------------------------------------------

    Molecular point group: c1
  Charge       = 0
  Multiplicity = 1
  Basis Set: AUG-CC-PVTZ
    Blend: AUG-CC-PVTZ
  Basis Set: (AUG-CC-PVTZ AUX)
    Blend: AUG-CC-PVTZ-JKFIT

    Orbital Energies [Eh]
    ---------------------

    Doubly Occupied:

       1A    -91.980893     2A    -20.523113     3A    -15.603235
       4A    -11.358320     5A    -11.294393     6A    -11.278127
       7A    -11.257787     8A    -11.243161     9A    -11.237547
      10A    -11.235757    11A     -8.982707    12A     -6.663775
      13A     -6.663236    14A     -6.662409    15A     -1.380390
      16A     -1.263138    17A     -1.167518    18A     -1.022568
      19A     -0.993497    20A     -0.981261    21A     -0.941989
      22A     -0.812955    23A     -0.762901    24A     -0.715624
      25A     -0.688317    26A     -0.680453    27A     -0.647949
      28A     -0.627448    29A     -0.591224    30A     -0.579882
      31A     -0.566784    32A     -0.564522    33A     -0.554065
      34A     -0.548818    35A     -0.520776    36A     -0.506873
      37A     -0.476149    38A     -0.427540    39A     -0.387114
      40A     -0.345587    41A     -0.320183

  @DF-RHF Final Energy:  -797.29598812703045

   => Energetics <=

    Nuclear Repulsion Energy =            607.5089846067710369
    One-Electron Energy =               -2299.4899769988160187
    Two-Electron Energy =                 894.6850042650145269
    Total Energy =                       -797.2959881270304550
  Basis Set: (AUG-CC-PVTZ AUX)
    Blend: AUG-CC-PVTZ-RI
    Molecular point group: c1

    Geometry (in Angstrom), charge = 0, multiplicity = 1:

       Center              X                  Y                   Z               Mass
    ------------   -----------------  -----------------  -----------------  -----------------
         S           -1.326811786501    -0.331217752580    -1.109005900807    31.972071174400
         O            1.451624313499    -1.648943052580     0.515641299193    15.994914619570
         N            1.008416313499     0.555726947420     0.104763299193    14.003074004430
         C           -0.374997686501     0.303500947420     0.197177299193    12.000000000000
         C            1.409546313499     1.846481947420    -0.454406700807    12.000000000000
         C            1.869177313499    -0.530256052580     0.224814299193    12.000000000000
         C           -1.191363686501     0.547271947420     1.279966299193    12.000000000000
         C           -2.545484686501     0.220122947420     1.023767299193    12.000000000000
         C            3.341664313499    -0.248358052580     0.008453299193    12.000000000000
         C           -2.741319686501    -0.265590052580    -0.250526700807    12.000000000000
         H            0.695931313499     2.596463947420    -0.110664700807     1.007825032230
         H            1.411738313499     1.840308947420    -1.551723700807     1.007825032230
         H            2.401140313499     2.124612947420    -0.096359700807     1.007825032230
         H           -0.807609686501     0.934513947420     2.218199299193     1.007825032230
         H           -3.348304686501     0.328250947420     1.745458299193     1.007825032230
         H            3.722239313499     0.469386947420     0.741106299193     1.007825032230
         H            3.535433313499     0.151968947420    -0.990770700807     1.007825032230
         H            3.870617313499    -1.193507052580     0.126502299193     1.007825032230
         H           -3.667607686501    -0.599603052580    -0.700924700807     1.007825032230

  Basis Set: AUG-CC-PVTZ
    Blend: AUG-CC-PVTZ
  Basis Set: (AUG-CC-PVTZ AUX)
    Blend: AUG-CC-PVTZ-JKFIT
	 Reference Energy          =    -797.2959881270304550 [Eh]
	 Singles Energy            =      -0.0000000000000000 [Eh]
	 Same-Spin Energy          =      -0.4873250021322248 [Eh]
	 Opposite-Spin Energy      =      -1.5052527561303195 [Eh]
	 Correlation Energy        =      -1.9925777582625444 [Eh]
	 Total Energy              =    -799.2885658852929964 [Eh]

	 ================> DF-SCS-MP2 Energies <==================
	-----------------------------------------------------------
	 SCS Same-Spin Scale       =       0.3333333333333333 [-]
	 SCS Opposite-Spin Scale   =       1.2000000000000000 [-]
	 SCS Same-Spin Energy      =      -0.1624416673774083 [Eh]
	 SCS Opposite-Spin Energy  =      -1.8063033073563832 [Eh]
	 SCS Correlation Energy    =      -1.9687449747337915 [Eh]
	 SCS Total Energy          =    -799.2647331017642500 [Eh]
	-----------------------------------------------------------

  Dipole Moment: [D]
     X:     0.7009      Y:     3.4684      Z:    -0.7071     Total:     3.6085

*** Psi4 exiting successfully. Buy a developer a beer!
