                               Psi4 1.4a3.dev225

  ==> Input File <==

--------------------------------------------------------------------------
#psi4
#
memory 32 gb

molecule  {
0 1
  S       -1.3336960    -0.3724180    -1.1448160
  O        1.3948110    -1.6888110     0.5141610
  N        0.9516030     0.5158590     0.1032830
  C       -0.4121777     0.2672126     0.1943855
  C        1.3527330     1.8066140    -0.4558870
  C        1.8123640    -0.5701240     0.2233340
  C       -1.2481770     0.5074040     1.2784860
  C       -2.6022980     0.1802550     1.0222870
  C        3.2848510    -0.2882260     0.0069730
  C       -2.7981330    -0.3054580    -0.2520070
  H        0.6391180     2.5565960    -0.1121450
  H        1.3549250     1.8004410    -1.5532040
  H        2.3443270     2.0847450    -0.0978400
  H       -0.8644230     0.8946460     2.2167190
  H       -3.4051180     0.2883830     1.7439780
  H        3.6654260     0.4295190     0.7396260
  H        3.4786200     0.1121010    -0.9922510
  H        3.8138040    -1.2333750     0.1250220
  H       -3.7244210    -0.6394710    -0.7024050
units angstrom
no_reorient  #important for SAPT in psi4, default
symmetry c1  #important for SAPT in psi4, default
}

set PROPERTIES_ORIGIN ["COM"]
properties('MP2/aug-cc-pvtz', properties = ['dipole'])
--------------------------------------------------------------------------

    Molecular point group: c1
  Charge       = 0
  Multiplicity = 1
  Basis Set: AUG-CC-PVTZ
    Blend: AUG-CC-PVTZ
  Basis Set: (AUG-CC-PVTZ AUX)
    Blend: AUG-CC-PVTZ-JKFIT

    Orbital Energies [Eh]
    ---------------------

    Doubly Occupied:

       1A    -91.981880     2A    -20.524084     3A    -15.602856
       4A    -11.359103     5A    -11.297153     6A    -11.278828
       7A    -11.262970     8A    -11.243636     9A    -11.239450
      10A    -11.238318    11A     -8.982068    12A     -6.663013
      13A     -6.662554    14A     -6.661789    15A     -1.382007
      16A     -1.267715    17A     -1.156001    18A     -1.023184
      19A     -0.985325    20A     -0.983235    21A     -0.942168
      22A     -0.817584    23A     -0.761515    24A     -0.713561
      25A     -0.688336    26A     -0.681699    27A     -0.649487
      28A     -0.625518    29A     -0.591927    30A     -0.580528
      31A     -0.567156    32A     -0.564350    33A     -0.556839
      34A     -0.547004    35A     -0.512921    36A     -0.504514
      37A     -0.475809    38A     -0.428385    39A     -0.386782
      40A     -0.344539    41A     -0.318839

  @DF-RHF Final Energy:  -797.29640573745496

   => Energetics <=

    Nuclear Repulsion Energy =            606.4096042438160339
    One-Electron Energy =               -2297.3027660123448186
    Two-Electron Energy =                 893.5967560310739373
    Total Energy =                       -797.2964057374549611
  Basis Set: (AUG-CC-PVTZ AUX)
    Blend: AUG-CC-PVTZ-RI
    Molecular point group: c1

    Geometry (in Angstrom), charge = 0, multiplicity = 1:

       Center              X                  Y                   Z               Mass
    ------------   -----------------  -----------------  -----------------  -----------------
         S           -1.288698544390    -0.332552366876    -1.136154784104    31.972071174400
         O            1.439808455610    -1.648945366876     0.522822215896    15.994914619570
         N            0.996600455610     0.555724633124     0.111944215896    14.003074004430
         C           -0.367180244390     0.307078233124     0.203046715896    12.000000000000
         C            1.397730455610     1.846479633124    -0.447225784104    12.000000000000
         C            1.857361455610    -0.530258366876     0.231995215896    12.000000000000
         C           -1.203179544390     0.547269633124     1.287147215896    12.000000000000
         C           -2.557300544390     0.220120633124     1.030948215896    12.000000000000
         C            3.329848455610    -0.248360366876     0.015634215896    12.000000000000
         C           -2.753135544390    -0.265592366876    -0.243345784104    12.000000000000
         H            0.684115455610     2.596461633124    -0.103483784104     1.007825032230
         H            1.399922455610     1.840306633124    -1.544542784104     1.007825032230
         H            2.389324455610     2.124610633124    -0.089178784104     1.007825032230
         H           -0.819425544390     0.934511633124     2.225380215896     1.007825032230
         H           -3.360120544390     0.328248633124     1.752639215896     1.007825032230
         H            3.710423455610     0.469384633124     0.748287215896     1.007825032230
         H            3.523617455610     0.151966633124    -0.983589784104     1.007825032230
         H            3.858801455610    -1.193509366876     0.133683215896     1.007825032230
         H           -3.679423544390    -0.599605366876    -0.693743784104     1.007825032230

  Basis Set: AUG-CC-PVTZ
    Blend: AUG-CC-PVTZ
  Basis Set: (AUG-CC-PVTZ AUX)
    Blend: AUG-CC-PVTZ-JKFIT
	 Reference Energy          =    -797.2964057374549611 [Eh]
	 Singles Energy            =      -0.0000000000000000 [Eh]
	 Same-Spin Energy          =      -0.4870937788292438 [Eh]
	 Opposite-Spin Energy      =      -1.5062609983225772 [Eh]
	 Correlation Energy        =      -1.9933547771518210 [Eh]
	 Total Energy              =    -799.2897605146067690 [Eh]

	 ================> DF-SCS-MP2 Energies <==================
	-----------------------------------------------------------
	 SCS Same-Spin Scale       =       0.3333333333333333 [-]
	 SCS Opposite-Spin Scale   =       1.2000000000000000 [-]
	 SCS Same-Spin Energy      =      -0.1623645929430813 [Eh]
	 SCS Opposite-Spin Energy  =      -1.8075131979870926 [Eh]
	 SCS Correlation Energy    =      -1.9698777909301739 [Eh]
	 SCS Total Energy          =    -799.2662835283850882 [Eh]
	-----------------------------------------------------------

  Dipole Moment: [D]
     X:     0.7601      Y:     3.4891      Z:    -0.6392     Total:     3.6276

*** Psi4 exiting successfully. Buy a developer a beer!
