                               Psi4 1.3.2 release

  ==> Input File <==

--------------------------------------------------------------------------
#psi4
#
memory 32 gb

molecule  {
0 1
  S       -1.3336960    -0.3724180    -1.1448160
  O        1.3948110    -1.6888110     0.5141610
  N        0.9514546     0.5070588     0.0803159
  C       -0.4318110     0.2636330     0.1956970
  C        1.3527330     1.8066140    -0.4558870
  C        1.8123640    -0.5701240     0.2233340
  C       -1.2481770     0.5074040     1.2784860
  C       -2.6022980     0.1802550     1.0222870
  C        3.2848510    -0.2882260     0.0069730
  C       -2.7981330    -0.3054580    -0.2520070
  H        0.6391180     2.5565960    -0.1121450
  H        1.3549250     1.8004410    -1.5532040
  H        2.3443270     2.0847450    -0.0978400
  H       -0.8644230     0.8946460     2.2167190
  H       -3.4051180     0.2883830     1.7439780
  H        3.6654260     0.4295190     0.7396260
  H        3.4786200     0.1121010    -0.9922510
  H        3.8138040    -1.2333750     0.1250220
  H       -3.7244210    -0.6394710    -0.7024050
units angstrom
no_reorient  #important for SAPT in psi4, default
symmetry c1  #important for SAPT in psi4, default
}

set PROPERTIES_ORIGIN ["COM"]
properties('MP2/aug-cc-pvtz', properties = ['dipole'])
--------------------------------------------------------------------------

    Molecular point group: c1
  Charge       = 0
  Multiplicity = 1
  Basis Set: AUG-CC-PVTZ
    Blend: AUG-CC-PVTZ
  Basis Set: (AUG-CC-PVTZ AUX)
    Blend: AUG-CC-PVTZ-JKFIT

    Orbital Energies [Eh]
    ---------------------

    Doubly Occupied:

       1A    -91.982372     2A    -20.521641     3A    -15.602420
       4A    -11.357529     5A    -11.297002     6A    -11.278397
       7A    -11.262876     8A    -11.242788     9A    -11.239489
      10A    -11.238287    11A     -8.982782    12A     -6.663738
      13A     -6.663247    14A     -6.662473    15A     -1.380050
      16A     -1.263651    17A     -1.159081    18A     -1.021684
      19A     -0.987589    20A     -0.982899    21A     -0.943027
      22A     -0.814045    23A     -0.762996    24A     -0.714547
      25A     -0.687849    26A     -0.680327    27A     -0.648987
      28A     -0.624770    29A     -0.590875    30A     -0.579784
      31A     -0.566013    32A     -0.564032    33A     -0.556357
      34A     -0.545826    35A     -0.515235    36A     -0.504734
      37A     -0.477795    38A     -0.426688    39A     -0.386316
      40A     -0.345790    41A     -0.320836

  @DF-RHF Final Energy:  -797.29783959006863

   => Energetics <=

    Nuclear Repulsion Energy =            606.5764107268682892
    One-Electron Energy =               -2297.6548480628071047
    Two-Electron Energy =                 893.7805977458701818
    Total Energy =                       -797.2978395900686337
  Basis Set: (AUG-CC-PVTZ AUX)
    Blend: AUG-CC-PVTZ-RI
    Molecular point group: c1

    Geometry (in Angstrom), charge = 0, multiplicity = 1:

       Center              X                  Y                   Z               Mass
    ------------   -----------------  -----------------  -----------------  -----------------
         S           -1.287165540568    -0.331480485220    -1.134181931654    31.972071174400
         O            1.441341459432    -1.647873485220     0.524795068346    15.994914619570
         N            0.997985059432     0.547996314780     0.090949968346    14.003074004430
         C           -0.385280540568     0.304570514780     0.206331068346    12.000000000000
         C            1.399263459432     1.847551514780    -0.445252931654    12.000000000000
         C            1.858894459432    -0.529186485220     0.233968068346    12.000000000000
         C           -1.201646540568     0.548341514780     1.289120068346    12.000000000000
         C           -2.555767540568     0.221192514780     1.032921068346    12.000000000000
         C            3.331381459432    -0.247288485220     0.017607068346    12.000000000000
         C           -2.751602540568    -0.264520485220    -0.241372931654    12.000000000000
         H            0.685648459432     2.597533514780    -0.101510931654     1.007825032230
         H            1.401455459432     1.841378514780    -1.542569931654     1.007825032230
         H            2.390857459432     2.125682514780    -0.087205931654     1.007825032230
         H           -0.817892540568     0.935583514780     2.227353068346     1.007825032230
         H           -3.358587540568     0.329320514780     1.754612068346     1.007825032230
         H            3.711956459432     0.470456514780     0.750260068346     1.007825032230
         H            3.525150459432     0.153038514780    -0.981616931654     1.007825032230
         H            3.860334459432    -1.192437485220     0.135656068346     1.007825032230
         H           -3.677890540568    -0.598533485220    -0.691770931654     1.007825032230

  Basis Set: AUG-CC-PVTZ
    Blend: AUG-CC-PVTZ
  Basis Set: (AUG-CC-PVTZ AUX)
    Blend: AUG-CC-PVTZ-JKFIT
	 Reference Energy          =    -797.2978395900686337 [Eh]
	 Singles Energy            =      -0.0000000000000000 [Eh]
	 Same-Spin Energy          =      -0.4867191631977723 [Eh]
	 Opposite-Spin Energy      =      -1.5057130647881580 [Eh]
	 Correlation Energy        =      -1.9924322279859303 [Eh]
	 Total Energy              =    -799.2902718180545207 [Eh]

	 ================> DF-SCS-MP2 Energies <==================
	-----------------------------------------------------------
	 SCS Same-Spin Scale       =       0.3333333333333333 [-]
	 SCS Opposite-Spin Scale   =       1.2000000000000000 [-]
	 SCS Same-Spin Energy      =      -0.1622397210659241 [Eh]
	 SCS Opposite-Spin Energy  =      -1.8068556777457896 [Eh]
	 SCS Correlation Energy    =      -1.9690953988117137 [Eh]
	 SCS Total Energy          =    -799.2669349888803936 [Eh]
	-----------------------------------------------------------

  Dipole Moment: [D]
     X:     0.6662      Y:     3.5289      Z:    -0.6336     Total:     3.6467

*** Psi4 exiting successfully. Buy a developer a beer!
