                               Psi4 1.3.2 release

  ==> Input File <==

--------------------------------------------------------------------------
#psi4
#
memory 32 gb

molecule  {
0 1
  S       -1.3336960    -0.3724180    -1.1448160
  O        1.3948110    -1.6888110     0.5141610
  N        0.9516030     0.5158590     0.1032830
  C       -0.5356680     0.2680219     0.2580100
  C        1.3527330     1.8066140    -0.4558870
  C        1.8123640    -0.5701240     0.2233340
  C       -1.2481770     0.5074040     1.2784860
  C       -2.6022980     0.1802550     1.0222870
  C        3.2848510    -0.2882260     0.0069730
  C       -2.7981330    -0.3054580    -0.2520070
  H        0.6391180     2.5565960    -0.1121450
  H        1.3549250     1.8004410    -1.5532040
  H        2.3443270     2.0847450    -0.0978400
  H       -0.8644230     0.8946460     2.2167190
  H       -3.4051180     0.2883830     1.7439780
  H        3.6654260     0.4295190     0.7396260
  H        3.4786200     0.1121010    -0.9922510
  H        3.8138040    -1.2333750     0.1250220
  H       -3.7244210    -0.6394710    -0.7024050
units angstrom
no_reorient  #important for SAPT in psi4, default
symmetry c1  #important for SAPT in psi4, default
}

set PROPERTIES_ORIGIN ["COM"]
properties('MP2/aug-cc-pvtz', properties = ['dipole'])
--------------------------------------------------------------------------

    Molecular point group: c1
  Charge       = 0
  Multiplicity = 1
  Basis Set: AUG-CC-PVTZ
    Blend: AUG-CC-PVTZ
  Basis Set: (AUG-CC-PVTZ AUX)
    Blend: AUG-CC-PVTZ-JKFIT

    Orbital Energies [Eh]
    ---------------------

    Doubly Occupied:

       1A    -91.982933     2A    -20.517262     3A    -15.598971
       4A    -11.353669     5A    -11.291887     6A    -11.274530
       7A    -11.264468     8A    -11.240684     9A    -11.240114
      10A    -11.228017    11A     -8.983665    12A     -6.664658
      13A     -6.664015    14A     -6.663175    15A     -1.372639
      16A     -1.244005    17A     -1.174797    18A     -1.017389
      19A     -1.003514    20A     -0.977604    21A     -0.940669
      22A     -0.792789    23A     -0.769838    24A     -0.721937
      25A     -0.684550    26A     -0.673328    27A     -0.641885
      28A     -0.620826    29A     -0.587463    30A     -0.575704
      31A     -0.569586    32A     -0.562589    33A     -0.555899
      34A     -0.529128    35A     -0.527232    36A     -0.502714
      37A     -0.485272    38A     -0.421635    39A     -0.383957
      40A     -0.359389    41A     -0.328965

  @DF-RHF Final Energy:  -797.28278441474515

   => Energetics <=

    Nuclear Repulsion Energy =            606.2376393911573587
    One-Electron Energy =               -2297.0541408076387597
    Two-Electron Energy =                 893.5337170017363633
    Total Energy =                       -797.2827844147451515
  Basis Set: (AUG-CC-PVTZ AUX)
    Blend: AUG-CC-PVTZ-RI
    Molecular point group: c1

    Geometry (in Angstrom), charge = 0, multiplicity = 1:

       Center              X                  Y                   Z               Mass
    ------------   -----------------  -----------------  -----------------  -----------------
         S           -1.279140501540    -0.332615005999    -1.141079265601    31.972071174400
         O            1.449366498460    -1.649008005999     0.517897734399    15.994914619570
         N            1.006158498460     0.555661994001     0.107019734399    14.003074004430
         C           -0.481112501540     0.307824894001     0.261746734399    12.000000000000
         C            1.407288498460     1.846416994001    -0.452150265601    12.000000000000
         C            1.866919498460    -0.530321005999     0.227070734399    12.000000000000
         C           -1.193621501540     0.547206994001     1.282222734399    12.000000000000
         C           -2.547742501540     0.220057994001     1.026023734399    12.000000000000
         C            3.339406498460    -0.248423005999     0.010709734399    12.000000000000
         C           -2.743577501540    -0.265655005999    -0.248270265601    12.000000000000
         H            0.693673498460     2.596398994001    -0.108408265601     1.007825032230
         H            1.409480498460     1.840243994001    -1.549467265601     1.007825032230
         H            2.398882498460     2.124547994001    -0.094103265601     1.007825032230
         H           -0.809867501540     0.934448994001     2.220455734399     1.007825032230
         H           -3.350562501540     0.328185994001     1.747714734399     1.007825032230
         H            3.719981498460     0.469321994001     0.743362734399     1.007825032230
         H            3.533175498460     0.151903994001    -0.988514265601     1.007825032230
         H            3.868359498460    -1.193572005999     0.128758734399     1.007825032230
         H           -3.669865501540    -0.599668005999    -0.698668265601     1.007825032230

  Basis Set: AUG-CC-PVTZ
    Blend: AUG-CC-PVTZ
  Basis Set: (AUG-CC-PVTZ AUX)
    Blend: AUG-CC-PVTZ-JKFIT
	 Reference Energy          =    -797.2827844147451515 [Eh]
	 Singles Energy            =      -0.0000000000000000 [Eh]
	 Same-Spin Energy          =      -0.4842177655236420 [Eh]
	 Opposite-Spin Energy      =      -1.5034403147465099 [Eh]
	 Correlation Energy        =      -1.9876580802701520 [Eh]
	 Total Energy              =    -799.2704424950153452 [Eh]

	 ================> DF-SCS-MP2 Energies <==================
	-----------------------------------------------------------
	 SCS Same-Spin Scale       =       0.3333333333333333 [-]
	 SCS Opposite-Spin Scale   =       1.2000000000000000 [-]
	 SCS Same-Spin Energy      =      -0.1614059218412140 [Eh]
	 SCS Opposite-Spin Energy  =      -1.8041283776958117 [Eh]
	 SCS Correlation Energy    =      -1.9655342995370257 [Eh]
	 SCS Total Energy          =    -799.2483187142821635 [Eh]
	-----------------------------------------------------------

  Dipole Moment: [D]
     X:     0.3356      Y:     3.5236      Z:    -0.5941     Total:     3.5890

*** Psi4 exiting successfully. Buy a developer a beer!
