                               Psi4 1.3.2 release

  ==> Input File <==

--------------------------------------------------------------------------
#psi4
#
memory 32 gb

molecule  {
0 1
  S       -1.3336960    -0.3724180    -1.1448160
  O        1.3948110    -1.6888110     0.5141610
  N        0.9516030     0.5158590     0.1032830
  C       -0.4318110     0.2636330     0.1956970
  C        1.3527330     1.8066140    -0.4558870
  C        1.8123640    -0.5701240     0.2233340
  C       -1.1889252     0.4897111     1.1998973
  C       -2.6022980     0.1802550     1.0222870
  C        3.2848510    -0.2882260     0.0069730
  C       -2.7981330    -0.3054580    -0.2520070
  H        0.6391180     2.5565960    -0.1121450
  H        1.3549250     1.8004410    -1.5532040
  H        2.3443270     2.0847450    -0.0978400
  H       -0.8644230     0.8946460     2.2167190
  H       -3.4051180     0.2883830     1.7439780
  H        3.6654260     0.4295190     0.7396260
  H        3.4786200     0.1121010    -0.9922510
  H        3.8138040    -1.2333750     0.1250220
  H       -3.7244210    -0.6394710    -0.7024050
units angstrom
no_reorient  #important for SAPT in psi4, default
symmetry c1  #important for SAPT in psi4, default
}

set PROPERTIES_ORIGIN ["COM"]
properties('MP2/aug-cc-pvtz', properties = ['dipole'])
--------------------------------------------------------------------------

    Molecular point group: c1
  Charge       = 0
  Multiplicity = 1
  Basis Set: AUG-CC-PVTZ
    Blend: AUG-CC-PVTZ
  Basis Set: (AUG-CC-PVTZ AUX)
    Blend: AUG-CC-PVTZ-JKFIT

    Orbital Energies [Eh]
    ---------------------

    Doubly Occupied:

       1A    -91.976739     2A    -20.522855     3A    -15.601494
       4A    -11.358049     5A    -11.284017     6A    -11.278167
       7A    -11.264972     8A    -11.242842     9A    -11.241706
      10A    -11.234113    11A     -8.977849    12A     -6.658850
      13A     -6.658370    14A     -6.657441    15A     -1.380390
      16A     -1.265509    17A     -1.165645    18A     -1.024401
      19A     -0.993458    20A     -0.977757    21A     -0.946983
      22A     -0.811668    23A     -0.767917    24A     -0.709711
      25A     -0.686795    26A     -0.680696    27A     -0.647764
      28A     -0.630018    29A     -0.591202    30A     -0.579889
      31A     -0.568469    32A     -0.565914    33A     -0.556765
      34A     -0.528446    35A     -0.520111    36A     -0.506849
      37A     -0.471710    38A     -0.427156    39A     -0.387899
      40A     -0.349786    41A     -0.330091

  @DF-RHF Final Energy:  -797.28936488478121

   => Energetics <=

    Nuclear Repulsion Energy =            608.4924893096035703
    One-Electron Energy =               -2301.5027843962279803
    Two-Electron Energy =                 895.7209302018432027
    Total Energy =                       -797.2893648847812074
  Basis Set: (AUG-CC-PVTZ AUX)
    Blend: AUG-CC-PVTZ-RI
    Molecular point group: c1

    Geometry (in Angstrom), charge = 0, multiplicity = 1:

       Center              X                  Y                   Z               Mass
    ------------   -----------------  -----------------  -----------------  -----------------
         S           -1.291764982164    -0.330905893699    -1.130173595388    31.972071174400
         O            1.436742017836    -1.647298893699     0.528803404612    15.994914619570
         N            0.993534017836     0.557371106301     0.117925404612    14.003074004430
         C           -0.389879982164     0.305145106301     0.210339404612    12.000000000000
         C            1.394664017836     1.848126106301    -0.441244595388    12.000000000000
         C            1.854295017836    -0.528611893699     0.237976404612    12.000000000000
         C           -1.146994182164     0.531223206301     1.214539704612    12.000000000000
         C           -2.560366982164     0.221767106301     1.036929404612    12.000000000000
         C            3.326782017836    -0.246713893699     0.021615404612    12.000000000000
         C           -2.756201982164    -0.263945893699    -0.237364595388    12.000000000000
         H            0.681049017836     2.598108106301    -0.097502595388     1.007825032230
         H            1.396856017836     1.841953106301    -1.538561595388     1.007825032230
         H            2.386258017836     2.126257106301    -0.083197595388     1.007825032230
         H           -0.822491982164     0.936158106301     2.231361404612     1.007825032230
         H           -3.363186982164     0.329895106301     1.758620404612     1.007825032230
         H            3.707357017836     0.471031106301     0.754268404612     1.007825032230
         H            3.520551017836     0.153613106301    -0.977608595388     1.007825032230
         H            3.855735017836    -1.191862893699     0.139664404612     1.007825032230
         H           -3.682489982164    -0.597958893699    -0.687762595388     1.007825032230

  Basis Set: AUG-CC-PVTZ
    Blend: AUG-CC-PVTZ
  Basis Set: (AUG-CC-PVTZ AUX)
    Blend: AUG-CC-PVTZ-JKFIT
	 Reference Energy          =    -797.2893648847812074 [Eh]
	 Singles Energy            =      -0.0000000000000000 [Eh]
	 Same-Spin Energy          =      -0.4843153410874589 [Eh]
	 Opposite-Spin Energy      =      -1.5029576970883354 [Eh]
	 Correlation Energy        =      -1.9872730381757944 [Eh]
	 Total Energy              =    -799.2766379229569793 [Eh]

	 ================> DF-SCS-MP2 Energies <==================
	-----------------------------------------------------------
	 SCS Same-Spin Scale       =       0.3333333333333333 [-]
	 SCS Opposite-Spin Scale   =       1.2000000000000000 [-]
	 SCS Same-Spin Energy      =      -0.1614384470291530 [Eh]
	 SCS Opposite-Spin Energy  =      -1.8035492365060024 [Eh]
	 SCS Correlation Energy    =      -1.9649876835351554 [Eh]
	 SCS Total Energy          =    -799.2543525683163352 [Eh]
	-----------------------------------------------------------

  Dipole Moment: [D]
     X:     0.6336      Y:     3.5266      Z:    -0.5495     Total:     3.6250

*** Psi4 exiting successfully. Buy a developer a beer!
