                               Psi4 1.3.2 release

  ==> Input File <==

--------------------------------------------------------------------------
#psi4
#
memory 32 gb

molecule  {
0 1
  S       -1.3336960    -0.3724180    -1.1448160
  O        1.3948110    -1.6888110     0.5141610
  N        0.9516030     0.5158590     0.1032830
  C       -0.4270182     0.2397246     0.1989170
  C        1.3527330     1.8066140    -0.4558870
  C        1.8123640    -0.5701240     0.2233340
  C       -1.2481770     0.5074040     1.2784860
  C       -2.6022980     0.1802550     1.0222870
  C        3.2848510    -0.2882260     0.0069730
  C       -2.7981330    -0.3054580    -0.2520070
  H        0.6391180     2.5565960    -0.1121450
  H        1.3549250     1.8004410    -1.5532040
  H        2.3443270     2.0847450    -0.0978400
  H       -0.8644230     0.8946460     2.2167190
  H       -3.4051180     0.2883830     1.7439780
  H        3.6654260     0.4295190     0.7396260
  H        3.4786200     0.1121010    -0.9922510
  H        3.8138040    -1.2333750     0.1250220
  H       -3.7244210    -0.6394710    -0.7024050
units angstrom
no_reorient  #important for SAPT in psi4, default
symmetry c1  #important for SAPT in psi4, default
}

set PROPERTIES_ORIGIN ["COM"]
properties('MP2/aug-cc-pvtz', properties = ['dipole'])
--------------------------------------------------------------------------

    Molecular point group: c1
  Charge       = 0
  Multiplicity = 1
  Basis Set: AUG-CC-PVTZ
    Blend: AUG-CC-PVTZ
  Basis Set: (AUG-CC-PVTZ AUX)
    Blend: AUG-CC-PVTZ-JKFIT

    Orbital Energies [Eh]
    ---------------------

    Doubly Occupied:

       1A    -91.982976     2A    -20.522885     3A    -15.602416
       4A    -11.357800     5A    -11.296874     6A    -11.278616
       7A    -11.262626     8A    -11.242823     9A    -11.239214
      10A    -11.237789    11A     -8.983389    12A     -6.664348
      13A     -6.663882    14A     -6.663093    15A     -1.380555
      16A     -1.262997    17A     -1.158696    18A     -1.021499
      19A     -0.987249    20A     -0.983141    21A     -0.942087
      22A     -0.812246    23A     -0.762121    24A     -0.714390
      25A     -0.688298    26A     -0.680481    27A     -0.648179
      28A     -0.624827    29A     -0.591149    30A     -0.579731
      31A     -0.565896    32A     -0.563753    33A     -0.554936
      34A     -0.547066    35A     -0.515111    36A     -0.504790
      37A     -0.478123    38A     -0.427219    39A     -0.387198
      40A     -0.345537    41A     -0.320062

  @DF-RHF Final Energy:  -797.29719161248818

   => Energetics <=

    Nuclear Repulsion Energy =            606.4942761706170131
    One-Electron Energy =               -2297.4907963764244414
    Two-Electron Energy =                 893.6993285933192510
    Total Energy =                       -797.2971916124881773
  Basis Set: (AUG-CC-PVTZ AUX)
    Blend: AUG-CC-PVTZ-RI
    Molecular point group: c1

    Geometry (in Angstrom), charge = 0, multiplicity = 1:

       Center              X                  Y                   Z               Mass
    ------------   -----------------  -----------------  -----------------  -----------------
         S           -1.287549902473    -0.330424819353    -1.136505518301    31.972071174400
         O            1.440957097527    -1.646817819353     0.522471481699    15.994914619570
         N            0.997749097527     0.557852180647     0.111593481699    14.003074004430
         C           -0.380872102473     0.281717780647     0.207227481699    12.000000000000
         C            1.398879097527     1.848607180647    -0.447576518301    12.000000000000
         C            1.858510097527    -0.528130819353     0.231644481699    12.000000000000
         C           -1.202030902473     0.549397180647     1.286796481699    12.000000000000
         C           -2.556151902473     0.222248180647     1.030597481699    12.000000000000
         C            3.330997097527    -0.246232819353     0.015283481699    12.000000000000
         C           -2.751986902473    -0.263464819353    -0.243696518301    12.000000000000
         H            0.685264097527     2.598589180647    -0.103834518301     1.007825032230
         H            1.401071097527     1.842434180647    -1.544893518301     1.007825032230
         H            2.390473097527     2.126738180647    -0.089529518301     1.007825032230
         H           -0.818276902473     0.936639180647     2.225029481699     1.007825032230
         H           -3.358971902473     0.330376180647     1.752288481699     1.007825032230
         H            3.711572097527     0.471512180647     0.747936481699     1.007825032230
         H            3.524766097527     0.154094180647    -0.983940518301     1.007825032230
         H            3.859950097527    -1.191381819353     0.133332481699     1.007825032230
         H           -3.678274902473    -0.597477819353    -0.694094518301     1.007825032230

  Basis Set: AUG-CC-PVTZ
    Blend: AUG-CC-PVTZ
  Basis Set: (AUG-CC-PVTZ AUX)
    Blend: AUG-CC-PVTZ-JKFIT
	 Reference Energy          =    -797.2971916124881773 [Eh]
	 Singles Energy            =      -0.0000000000000000 [Eh]
	 Same-Spin Energy          =      -0.4868402873897506 [Eh]
	 Opposite-Spin Energy      =      -1.5058923887902904 [Eh]
	 Correlation Energy        =      -1.9927326761800410 [Eh]
	 Total Energy              =    -799.2899242886682032 [Eh]

	 ================> DF-SCS-MP2 Energies <==================
	-----------------------------------------------------------
	 SCS Same-Spin Scale       =       0.3333333333333333 [-]
	 SCS Opposite-Spin Scale   =       1.2000000000000000 [-]
	 SCS Same-Spin Energy      =      -0.1622800957965835 [Eh]
	 SCS Opposite-Spin Energy  =      -1.8070708665483484 [Eh]
	 SCS Correlation Energy    =      -1.9693509623449319 [Eh]
	 SCS Total Energy          =    -799.2665425748331245 [Eh]
	-----------------------------------------------------------

  Dipole Moment: [D]
     X:     0.6791      Y:     3.5037      Z:    -0.6707     Total:     3.6314

*** Psi4 exiting successfully. Buy a developer a beer!
