                               Psi4 1.3.2 release

  ==> Input File <==

--------------------------------------------------------------------------
#psi4
#
memory 32 gb

molecule  {
0 1
  S       -1.3336960    -0.3724180    -1.1448160
  O        1.3948110    -1.6888110     0.5141610
  N        0.9516030     0.5158590     0.1032830
  C       -0.4467554     0.3599619     0.1825455
  C        1.3527330     1.8066140    -0.4558870
  C        1.8123640    -0.5701240     0.2233340
  C       -1.2481770     0.5074040     1.2784860
  C       -2.6022980     0.1802550     1.0222870
  C        3.2848510    -0.2882260     0.0069730
  C       -2.7981330    -0.3054580    -0.2520070
  H        0.6391180     2.5565960    -0.1121450
  H        1.3549250     1.8004410    -1.5532040
  H        2.3443270     2.0847450    -0.0978400
  H       -0.8644230     0.8946460     2.2167190
  H       -3.4051180     0.2883830     1.7439780
  H        3.6654260     0.4295190     0.7396260
  H        3.4786200     0.1121010    -0.9922510
  H        3.8138040    -1.2333750     0.1250220
  H       -3.7244210    -0.6394710    -0.7024050
units angstrom
no_reorient  #important for SAPT in psi4, default
symmetry c1  #important for SAPT in psi4, default
}

set PROPERTIES_ORIGIN ["COM"]
properties('MP2/aug-cc-pvtz', properties = ['dipole'])
--------------------------------------------------------------------------

    Molecular point group: c1
  Charge       = 0
  Multiplicity = 1
  Basis Set: AUG-CC-PVTZ
    Blend: AUG-CC-PVTZ
  Basis Set: (AUG-CC-PVTZ AUX)
    Blend: AUG-CC-PVTZ-JKFIT

    Orbital Energies [Eh]
    ---------------------

    Doubly Occupied:

       1A    -91.981815     2A    -20.523046     3A    -15.601930
       4A    -11.359523     5A    -11.296065     6A    -11.275821
       7A    -11.264755     8A    -11.243728     9A    -11.239772
      10A    -11.238707    11A     -8.981940    12A     -6.662879
      13A     -6.662366    14A     -6.661607    15A     -1.379460
      16A     -1.263524    17A     -1.158743    18A     -1.022562
      19A     -0.988573    20A     -0.979640    21A     -0.942274
      22A     -0.817269    23A     -0.763485    24A     -0.714882
      25A     -0.686702    26A     -0.678829    27A     -0.647834
      28A     -0.624743    29A     -0.591183    30A     -0.579009
      31A     -0.567279    32A     -0.564925    33A     -0.556141
      34A     -0.544118    35A     -0.514134    36A     -0.504418
      37A     -0.476784    38A     -0.427627    39A     -0.385855
      40A     -0.346206    41A     -0.322584

  @DF-RHF Final Energy:  -797.29521438326583

   => Energetics <=

    Nuclear Repulsion Energy =            605.9566047293357087
    One-Electron Energy =               -2296.4181637914680323
    Two-Electron Energy =                 893.1663446788666079
    Total Energy =                       -797.2952143832658294
  Basis Set: (AUG-CC-PVTZ AUX)
    Blend: AUG-CC-PVTZ-RI
    Molecular point group: c1

    Geometry (in Angstrom), charge = 0, multiplicity = 1:

       Center              X                  Y                   Z               Mass
    ------------   -----------------  -----------------  -----------------  -----------------
         S           -1.286022260194    -0.339731082805    -1.135238378303    31.972071174400
         O            1.442484739806    -1.656124082805     0.523738621697    15.994914619570
         N            0.999276739806     0.548545917195     0.112860621697    14.003074004430
         C           -0.399081660194     0.392648817195     0.192123121697    12.000000000000
         C            1.400406739806     1.839300917195    -0.446309378303    12.000000000000
         C            1.860037739806    -0.537437082805     0.232911621697    12.000000000000
         C           -1.200503260194     0.540090917195     1.288063621697    12.000000000000
         C           -2.554624260194     0.212941917195     1.031864621697    12.000000000000
         C            3.332524739806    -0.255539082805     0.016550621697    12.000000000000
         C           -2.750459260194    -0.272771082805    -0.242429378303    12.000000000000
         H            0.686791739806     2.589282917195    -0.102567378303     1.007825032230
         H            1.402598739806     1.833127917195    -1.543626378303     1.007825032230
         H            2.392000739806     2.117431917195    -0.088262378303     1.007825032230
         H           -0.816749260194     0.927332917195     2.226296621697     1.007825032230
         H           -3.357444260194     0.321069917195     1.753555621697     1.007825032230
         H            3.713099739806     0.462205917195     0.749203621697     1.007825032230
         H            3.526293739806     0.144787917195    -0.982673378303     1.007825032230
         H            3.861477739806    -1.200688082805     0.134599621697     1.007825032230
         H           -3.676747260194    -0.606784082805    -0.692827378303     1.007825032230

  Basis Set: AUG-CC-PVTZ
    Blend: AUG-CC-PVTZ
  Basis Set: (AUG-CC-PVTZ AUX)
    Blend: AUG-CC-PVTZ-JKFIT
	 Reference Energy          =    -797.2952143832658294 [Eh]
	 Singles Energy            =      -0.0000000000000000 [Eh]
	 Same-Spin Energy          =      -0.4865095991268326 [Eh]
	 Opposite-Spin Energy      =      -1.5059308513259815 [Eh]
	 Correlation Energy        =      -1.9924404504528141 [Eh]
	 Total Energy              =    -799.2876548337186478 [Eh]

	 ================> DF-SCS-MP2 Energies <==================
	-----------------------------------------------------------
	 SCS Same-Spin Scale       =       0.3333333333333333 [-]
	 SCS Opposite-Spin Scale   =       1.2000000000000000 [-]
	 SCS Same-Spin Energy      =      -0.1621698663756109 [Eh]
	 SCS Opposite-Spin Energy  =      -1.8071170215911776 [Eh]
	 SCS Correlation Energy    =      -1.9692868879667884 [Eh]
	 SCS Total Energy          =    -799.2645012712325752 [Eh]
	-----------------------------------------------------------

  Dipole Moment: [D]
     X:     0.6768      Y:     3.4120      Z:    -0.5840     Total:     3.5271

*** Psi4 exiting successfully. Buy a developer a beer!
