                               Psi4 1.3.2 release

  ==> Input File <==

--------------------------------------------------------------------------
#psi4
#
memory 32 gb

molecule  {
0 1
  S       -1.3336960    -0.3724180    -1.1448160
  O        1.3948110    -1.6888110     0.5141610
  N        0.9479841     0.5502651     0.1953627
  C       -0.4318110     0.2636330     0.1956970
  C        1.3527330     1.8066140    -0.4558870
  C        1.8123640    -0.5701240     0.2233340
  C       -1.2481770     0.5074040     1.2784860
  C       -2.6022980     0.1802550     1.0222870
  C        3.2848510    -0.2882260     0.0069730
  C       -2.7981330    -0.3054580    -0.2520070
  H        0.6391180     2.5565960    -0.1121450
  H        1.3549250     1.8004410    -1.5532040
  H        2.3443270     2.0847450    -0.0978400
  H       -0.8644230     0.8946460     2.2167190
  H       -3.4051180     0.2883830     1.7439780
  H        3.6654260     0.4295190     0.7396260
  H        3.4786200     0.1121010    -0.9922510
  H        3.8138040    -1.2333750     0.1250220
  H       -3.7244210    -0.6394710    -0.7024050
units angstrom
no_reorient  #important for SAPT in psi4, default
symmetry c1  #important for SAPT in psi4, default
}

set PROPERTIES_ORIGIN ["COM"]
properties('MP2/aug-cc-pvtz', properties = ['dipole'])
--------------------------------------------------------------------------

    Molecular point group: c1
  Charge       = 0
  Multiplicity = 1
  Basis Set: AUG-CC-PVTZ
    Blend: AUG-CC-PVTZ
  Basis Set: (AUG-CC-PVTZ AUX)
    Blend: AUG-CC-PVTZ-JKFIT

    Orbital Energies [Eh]
    ---------------------

    Doubly Occupied:

       1A    -91.984101     2A    -20.529321     3A    -15.602578
       4A    -11.361180     5A    -11.294326     6A    -11.276642
       7A    -11.262703     8A    -11.244455     9A    -11.238184
      10A    -11.234977    11A     -8.984316    12A     -6.665277
      13A     -6.664861    14A     -6.664037    15A     -1.381938
      16A     -1.259791    17A     -1.157491    18A     -1.021980
      19A     -0.987241    20A     -0.980498    21A     -0.937990
      22A     -0.809412    23A     -0.760174    24A     -0.714299
      25A     -0.688206    26A     -0.679626    27A     -0.643385
      28A     -0.624610    29A     -0.592965    30A     -0.578079
      31A     -0.566881    32A     -0.563952    33A     -0.550080
      34A     -0.548289    35A     -0.514809    36A     -0.504802
      37A     -0.478830    38A     -0.430484    39A     -0.390756
      40A     -0.345429    41A     -0.319554

  @DF-RHF Final Energy:  -797.29402612075330

   => Energetics <=

    Nuclear Repulsion Energy =            605.6588079115567780
    One-Electron Energy =               -2295.8286517304036352
    Two-Electron Energy =                 892.8758176980935559
    Total Energy =                       -797.2940261207533013
  Basis Set: (AUG-CC-PVTZ AUX)
    Blend: AUG-CC-PVTZ-RI
    Molecular point group: c1

    Geometry (in Angstrom), charge = 0, multiplicity = 1:

       Center              X                  Y                   Z               Mass
    ------------   -----------------  -----------------  -----------------  -----------------
         S           -1.286852089096    -0.335382827347    -1.144572823126    31.972071174400
         O            1.441654910904    -1.651775827347     0.514404176874    15.994914619570
         N            0.994828010904     0.587300272653     0.195605876874    14.003074004430
         C           -0.384967089096     0.300668172653     0.195940176874    12.000000000000
         C            1.399576910904     1.843649172653    -0.455643823126    12.000000000000
         C            1.859207910904    -0.533088827347     0.223577176874    12.000000000000
         C           -1.201333089096     0.544439172653     1.278729176874    12.000000000000
         C           -2.555454089096     0.217290172653     1.022530176874    12.000000000000
         C            3.331694910904    -0.251190827347     0.007216176874    12.000000000000
         C           -2.751289089096    -0.268422827347    -0.251763823126    12.000000000000
         H            0.685961910904     2.593631172653    -0.111901823126     1.007825032230
         H            1.401768910904     1.837476172653    -1.552960823126     1.007825032230
         H            2.391170910904     2.121780172653    -0.097596823126     1.007825032230
         H           -0.817579089096     0.931681172653     2.216962176874     1.007825032230
         H           -3.358274089096     0.325418172653     1.744221176874     1.007825032230
         H            3.712269910904     0.466554172653     0.739869176874     1.007825032230
         H            3.525463910904     0.149136172653    -0.992007823126     1.007825032230
         H            3.860647910904    -1.196339827347     0.125265176874     1.007825032230
         H           -3.677577089096    -0.602435827347    -0.702161823126     1.007825032230

  Basis Set: AUG-CC-PVTZ
    Blend: AUG-CC-PVTZ
  Basis Set: (AUG-CC-PVTZ AUX)
    Blend: AUG-CC-PVTZ-JKFIT
	 Reference Energy          =    -797.2940261207533013 [Eh]
	 Singles Energy            =      -0.0000000000000000 [Eh]
	 Same-Spin Energy          =      -0.4867118610594720 [Eh]
	 Opposite-Spin Energy      =      -1.5062768967344846 [Eh]
	 Correlation Energy        =      -1.9929887577939565 [Eh]
	 Total Energy              =    -799.2870148785472111 [Eh]

	 ================> DF-SCS-MP2 Energies <==================
	-----------------------------------------------------------
	 SCS Same-Spin Scale       =       0.3333333333333333 [-]
	 SCS Opposite-Spin Scale   =       1.2000000000000000 [-]
	 SCS Same-Spin Energy      =      -0.1622372870198240 [Eh]
	 SCS Opposite-Spin Energy  =      -1.8075322760813815 [Eh]
	 SCS Correlation Energy    =      -1.9697695631012055 [Eh]
	 SCS Total Energy          =    -799.2637956838544824 [Eh]
	-----------------------------------------------------------

  Dipole Moment: [D]
     X:     0.7765      Y:     3.2778      Z:    -0.7460     Total:     3.4501

*** Psi4 exiting successfully. Buy a developer a beer!
