                               Psi4 1.3.2 release

  ==> Input File <==

--------------------------------------------------------------------------
#psi4
#
memory 32 gb

molecule  {
0 1
  S       -1.3336960    -0.3724180    -1.1448160
  O        1.3948110    -1.6888110     0.5141610
  N        0.9516030     0.5158590     0.1032830
  C       -0.4318110     0.2636330     0.1956970
  C        1.3527330     1.8066140    -0.4558870
  C        1.8123640    -0.5701240     0.2233340
  C       -1.1296734     0.4720182     1.1213085
  C       -2.6022980     0.1802550     1.0222870
  C        3.2848510    -0.2882260     0.0069730
  C       -2.7981330    -0.3054580    -0.2520070
  H        0.6391180     2.5565960    -0.1121450
  H        1.3549250     1.8004410    -1.5532040
  H        2.3443270     2.0847450    -0.0978400
  H       -0.8644230     0.8946460     2.2167190
  H       -3.4051180     0.2883830     1.7439780
  H        3.6654260     0.4295190     0.7396260
  H        3.4786200     0.1121010    -0.9922510
  H        3.8138040    -1.2333750     0.1250220
  H       -3.7244210    -0.6394710    -0.7024050
units angstrom
no_reorient  #important for SAPT in psi4, default
symmetry c1  #important for SAPT in psi4, default
}

set PROPERTIES_ORIGIN ["COM"]
properties('MP2/aug-cc-pvtz', properties = ['dipole'])
--------------------------------------------------------------------------

    Molecular point group: c1
  Charge       = 0
  Multiplicity = 1
  Basis Set: AUG-CC-PVTZ
    Blend: AUG-CC-PVTZ
  Basis Set: (AUG-CC-PVTZ AUX)
    Blend: AUG-CC-PVTZ-JKFIT

    Orbital Energies [Eh]
    ---------------------

    Doubly Occupied:

       1A    -91.971782     2A    -20.522941     3A    -15.600795
       4A    -11.358089     5A    -11.278452     6A    -11.269766
       7A    -11.266867     8A    -11.245085     9A    -11.242759
      10A    -11.229333    11A     -8.973563    12A     -6.654584
      13A     -6.654108    14A     -6.653037    15A     -1.380699
      16A     -1.269647    17A     -1.174722    18A     -1.031453
      19A     -1.002349    20A     -0.971024    21A     -0.949441
      22A     -0.810903    23A     -0.774021    24A     -0.703304
      25A     -0.684801    26A     -0.681469    27A     -0.647143
      28A     -0.635799    29A     -0.591331    30A     -0.580580
      31A     -0.572978    32A     -0.567691    33A     -0.559015
      34A     -0.527813    35A     -0.510690    36A     -0.507802
      37A     -0.458664    38A     -0.426800    39A     -0.388452
      40A     -0.366784    41A     -0.329435

  @DF-RHF Final Energy:  -797.24289423310233

   => Energetics <=

    Nuclear Repulsion Energy =            610.7732823251650416
    One-Electron Energy =               -2305.9804144274148712
    Two-Electron Energy =                 897.9642378691476097
    Total Energy =                       -797.2428942331023336
  Basis Set: (AUG-CC-PVTZ AUX)
    Blend: AUG-CC-PVTZ-RI
    Molecular point group: c1

    Geometry (in Angstrom), charge = 0, multiplicity = 1:

       Center              X                  Y                   Z               Mass
    ------------   -----------------  -----------------  -----------------  -----------------
         S           -1.296351020447    -0.329536478479    -1.124090889961    31.972071174400
         O            1.432155979553    -1.645929478479     0.534886110039    15.994914619570
         N            0.988947979553     0.558740521521     0.124008110039    14.003074004430
         C           -0.394466020447     0.306514521521     0.216422110039    12.000000000000
         C            1.390077979553     1.849495521521    -0.435161889961    12.000000000000
         C            1.849708979553    -0.527242478479     0.244059110039    12.000000000000
         C           -1.092328420447     0.514899721521     1.142033610039    12.000000000000
         C           -2.564953020447     0.223136521521     1.043012110039    12.000000000000
         C            3.322195979553    -0.245344478479     0.027698110039    12.000000000000
         C           -2.760788020447    -0.262576478479    -0.231281889961    12.000000000000
         H            0.676462979553     2.599477521521    -0.091419889961     1.007825032230
         H            1.392269979553     1.843322521521    -1.532478889961     1.007825032230
         H            2.381671979553     2.127626521521    -0.077114889961     1.007825032230
         H           -0.827078020447     0.937527521521     2.237444110039     1.007825032230
         H           -3.367773020447     0.331264521521     1.764703110039     1.007825032230
         H            3.702770979553     0.472400521521     0.760351110039     1.007825032230
         H            3.515964979553     0.154982521521    -0.971525889961     1.007825032230
         H            3.851148979553    -1.190493478479     0.145747110039     1.007825032230
         H           -3.687076020447    -0.596589478479    -0.681679889961     1.007825032230

  Basis Set: AUG-CC-PVTZ
    Blend: AUG-CC-PVTZ
  Basis Set: (AUG-CC-PVTZ AUX)
    Blend: AUG-CC-PVTZ-JKFIT
	 Reference Energy          =    -797.2428942331023336 [Eh]
	 Singles Energy            =      -0.0000000000000000 [Eh]
	 Same-Spin Energy          =      -0.4827386799186858 [Eh]
	 Opposite-Spin Energy      =      -1.5015691409778313 [Eh]
	 Correlation Energy        =      -1.9843078208965172 [Eh]
	 Total Energy              =    -799.2272020539988944 [Eh]

	 ================> DF-SCS-MP2 Energies <==================
	-----------------------------------------------------------
	 SCS Same-Spin Scale       =       0.3333333333333333 [-]
	 SCS Opposite-Spin Scale   =       1.2000000000000000 [-]
	 SCS Same-Spin Energy      =      -0.1609128933062286 [Eh]
	 SCS Opposite-Spin Energy  =      -1.8018829691733975 [Eh]
	 SCS Correlation Energy    =      -1.9627958624796262 [Eh]
	 SCS Total Energy          =    -799.2056900955819856 [Eh]
	-----------------------------------------------------------

  Dipole Moment: [D]
     X:     0.5742      Y:     3.5683      Z:    -0.4408     Total:     3.6410

*** Psi4 exiting successfully. Buy a developer a beer!
