                               Psi4 1.3.2 release

  ==> Input File <==

--------------------------------------------------------------------------
#psi4
#
memory 32 gb

molecule  {
0 1
  S       -1.3589817    -0.3709003    -1.1281815
  O        1.3948110    -1.6888110     0.5141610
  N        0.9516030     0.5158590     0.1032830
  C       -0.4318110     0.2636330     0.1956970
  C        1.3527330     1.8066140    -0.4558870
  C        1.8123640    -0.5701240     0.2233340
  C       -1.2481770     0.5074040     1.2784860
  C       -2.6022980     0.1802550     1.0222870
  C        3.2848510    -0.2882260     0.0069730
  C       -2.7981330    -0.3054580    -0.2520070
  H        0.6391180     2.5565960    -0.1121450
  H        1.3549250     1.8004410    -1.5532040
  H        2.3443270     2.0847450    -0.0978400
  H       -0.8644230     0.8946460     2.2167190
  H       -3.4051180     0.2883830     1.7439780
  H        3.6654260     0.4295190     0.7396260
  H        3.4786200     0.1121010    -0.9922510
  H        3.8138040    -1.2333750     0.1250220
  H       -3.7244210    -0.6394710    -0.7024050
units angstrom
no_reorient  #important for SAPT in psi4, default
symmetry c1  #important for SAPT in psi4, default
}

set PROPERTIES_ORIGIN ["COM"]
properties('MP2/aug-cc-pvtz', properties = ['dipole'])
--------------------------------------------------------------------------

    Molecular point group: c1
  Charge       = 0
  Multiplicity = 1
  Basis Set: AUG-CC-PVTZ
    Blend: AUG-CC-PVTZ
  Basis Set: (AUG-CC-PVTZ AUX)
    Blend: AUG-CC-PVTZ-JKFIT

    Orbital Energies [Eh]
    ---------------------

    Doubly Occupied:

       1A    -91.981872     2A    -20.523022     3A    -15.602807
       4A    -11.358244     5A    -11.295492     6A    -11.278112
       7A    -11.260371     8A    -11.243098     9A    -11.238111
      10A    -11.237027    11A     -8.982925    12A     -6.663921
      13A     -6.663448    14A     -6.662631    15A     -1.380356
      16A     -1.263126    17A     -1.162989    18A     -1.022056
      19A     -0.990483    20A     -0.981977    21A     -0.942132
      22A     -0.813127    23A     -0.762631    24A     -0.715130
      25A     -0.688097    26A     -0.680380    27A     -0.648037
      28A     -0.626039    29A     -0.591203    30A     -0.579739
      31A     -0.566410    32A     -0.564227    33A     -0.554607
      34A     -0.547735    35A     -0.517878    36A     -0.505887
      37A     -0.477304    38A     -0.427425    39A     -0.387091
      40A     -0.345435    41A     -0.320635

  @DF-RHF Final Energy:  -797.29748704473809

   => Energetics <=

    Nuclear Repulsion Energy =            606.9422672057764885
    One-Electron Energy =               -2298.3730707369363699
    Two-Electron Energy =                 894.1333164864217906
    Total Energy =                       -797.2974870447380908
  Basis Set: (AUG-CC-PVTZ AUX)
    Blend: AUG-CC-PVTZ-RI
    Molecular point group: c1

    Geometry (in Angstrom), charge = 0, multiplicity = 1:

       Center              X                  Y                   Z               Mass
    ------------   -----------------  -----------------  -----------------  -----------------
         S           -1.307250288420    -0.331070585316    -1.123052119145    31.972071174400
         O            1.446542411580    -1.648981285316     0.519290380855    15.994914619570
         N            1.003334411580     0.555688714684     0.108412380855    14.003074004430
         C           -0.380079588420     0.303462714684     0.200826380855    12.000000000000
         C            1.404464411580     1.846443714684    -0.450757619145    12.000000000000
         C            1.864095411580    -0.530294285316     0.228463380855    12.000000000000
         C           -1.196445588420     0.547233714684     1.283615380855    12.000000000000
         C           -2.550566588420     0.220084714684     1.027416380855    12.000000000000
         C            3.336582411580    -0.248396285316     0.012102380855    12.000000000000
         C           -2.746401588420    -0.265628285316    -0.246877619145    12.000000000000
         H            0.690849411580     2.596425714684    -0.107015619145     1.007825032230
         H            1.406656411580     1.840270714684    -1.548074619145     1.007825032230
         H            2.396058411580     2.124574714684    -0.092710619145     1.007825032230
         H           -0.812691588420     0.934475714684     2.221848380855     1.007825032230
         H           -3.353386588420     0.328212714684     1.749107380855     1.007825032230
         H            3.717157411580     0.469348714684     0.744755380855     1.007825032230
         H            3.530351411580     0.151930714684    -0.987121619145     1.007825032230
         H            3.865535411580    -1.193545285316     0.130151380855     1.007825032230
         H           -3.672689588420    -0.599641285316    -0.697275619145     1.007825032230

  Basis Set: AUG-CC-PVTZ
    Blend: AUG-CC-PVTZ
  Basis Set: (AUG-CC-PVTZ AUX)
    Blend: AUG-CC-PVTZ-JKFIT
	 Reference Energy          =    -797.2974870447380908 [Eh]
	 Singles Energy            =      -0.0000000000000000 [Eh]
	 Same-Spin Energy          =      -0.4869947921210680 [Eh]
	 Opposite-Spin Energy      =      -1.5054730070322282 [Eh]
	 Correlation Energy        =      -1.9924677991532962 [Eh]
	 Total Energy              =    -799.2899548438913371 [Eh]

	 ================> DF-SCS-MP2 Energies <==================
	-----------------------------------------------------------
	 SCS Same-Spin Scale       =       0.3333333333333333 [-]
	 SCS Opposite-Spin Scale   =       1.2000000000000000 [-]
	 SCS Same-Spin Energy      =      -0.1623315973736893 [Eh]
	 SCS Opposite-Spin Energy  =      -1.8065676084386737 [Eh]
	 SCS Correlation Energy    =      -1.9688992058123631 [Eh]
	 SCS Total Energy          =    -799.2663862505504540 [Eh]
	-----------------------------------------------------------

  Dipole Moment: [D]
     X:     0.6924      Y:     3.4779      Z:    -0.6823     Total:     3.6112

*** Psi4 exiting successfully. Buy a developer a beer!
