                               Psi4 1.3.2 release

  ==> Input File <==

--------------------------------------------------------------------------
#psi4
#
memory 32 gb

molecule  {
0 1
  S       -1.3336960    -0.3724180    -1.1448160
  O        1.3948110    -1.6888110     0.5141610
  N        0.9516030     0.5158590     0.1032830
  C       -0.5499315     0.2183734     0.1264338
  C        1.3527330     1.8066140    -0.4558870
  C        1.8123640    -0.5701240     0.2233340
  C       -1.2481770     0.5074040     1.2784860
  C       -2.6022980     0.1802550     1.0222870
  C        3.2848510    -0.2882260     0.0069730
  C       -2.7981330    -0.3054580    -0.2520070
  H        0.6391180     2.5565960    -0.1121450
  H        1.3549250     1.8004410    -1.5532040
  H        2.3443270     2.0847450    -0.0978400
  H       -0.8644230     0.8946460     2.2167190
  H       -3.4051180     0.2883830     1.7439780
  H        3.6654260     0.4295190     0.7396260
  H        3.4786200     0.1121010    -0.9922510
  H        3.8138040    -1.2333750     0.1250220
  H       -3.7244210    -0.6394710    -0.7024050
units angstrom
no_reorient  #important for SAPT in psi4, default
symmetry c1  #important for SAPT in psi4, default
}

set PROPERTIES_ORIGIN ["COM"]
properties('MP2/aug-cc-pvtz', properties = ['dipole'])
--------------------------------------------------------------------------

    Molecular point group: c1
  Charge       = 0
  Multiplicity = 1
  Basis Set: AUG-CC-PVTZ
    Blend: AUG-CC-PVTZ
  Basis Set: (AUG-CC-PVTZ AUX)
    Blend: AUG-CC-PVTZ-JKFIT

    Orbital Energies [Eh]
    ---------------------

    Doubly Occupied:

       1A    -91.991536     2A    -20.516942     3A    -15.598287
       4A    -11.352592     5A    -11.296229     6A    -11.273492
       7A    -11.259327     8A    -11.241258     9A    -11.239509
      10A    -11.236464    11A     -8.994663    12A     -6.675942
      13A     -6.674999    14A     -6.674155    15A     -1.372149
      16A     -1.242786    17A     -1.177467    18A     -1.014872
      19A     -1.005201    20A     -0.976346    21A     -0.938535
      22A     -0.789212    23A     -0.765721    24A     -0.720018
      25A     -0.684390    26A     -0.672525    27A     -0.640551
      28A     -0.620539    29A     -0.586960    30A     -0.574580
      31A     -0.565838    32A     -0.562032    33A     -0.554723
      34A     -0.532005    35A     -0.526301    36A     -0.506322
      37A     -0.494894    38A     -0.421469    39A     -0.385235
      40A     -0.352657    41A     -0.322398

  @DF-RHF Final Energy:  -797.27701921055939

   => Energetics <=

    Nuclear Repulsion Energy =            607.2070116815932579
    One-Electron Energy =               -2298.9058120039926507
    Two-Electron Energy =                 894.4217811118400050
    Total Energy =                       -797.2770192105593878
  Basis Set: (AUG-CC-PVTZ AUX)
    Blend: AUG-CC-PVTZ-RI
    Molecular point group: c1

    Geometry (in Angstrom), charge = 0, multiplicity = 1:

       Center              X                  Y                   Z               Mass
    ------------   -----------------  -----------------  -----------------  -----------------
         S           -1.278036518926    -0.328772254864    -1.130895381055    31.972071174400
         O            1.450470481074    -1.645165254864     0.528081618945    15.994914619570
         N            1.007262481074     0.559504745136     0.117203618945    14.003074004430
         C           -0.494272018926     0.262019145136     0.140354418945    12.000000000000
         C            1.408392481074     1.850259745136    -0.441966381055    12.000000000000
         C            1.868023481074    -0.526478254864     0.237254618945    12.000000000000
         C           -1.192517518926     0.551049745136     1.292406618945    12.000000000000
         C           -2.546638518926     0.223900745136     1.036207618945    12.000000000000
         C            3.340510481074    -0.244580254864     0.020893618945    12.000000000000
         C           -2.742473518926    -0.261812254864    -0.238086381055    12.000000000000
         H            0.694777481074     2.600241745136    -0.098224381055     1.007825032230
         H            1.410584481074     1.844086745136    -1.539283381055     1.007825032230
         H            2.399986481074     2.128390745136    -0.083919381055     1.007825032230
         H           -0.808763518926     0.938291745136     2.230639618945     1.007825032230
         H           -3.349458518926     0.332028745136     1.757898618945     1.007825032230
         H            3.721085481074     0.473164745136     0.753546618945     1.007825032230
         H            3.534279481074     0.155746745136    -0.978330381055     1.007825032230
         H            3.869463481074    -1.189729254864     0.138942618945     1.007825032230
         H           -3.668761518926    -0.595825254864    -0.688484381055     1.007825032230

  Basis Set: AUG-CC-PVTZ
    Blend: AUG-CC-PVTZ
  Basis Set: (AUG-CC-PVTZ AUX)
    Blend: AUG-CC-PVTZ-JKFIT
	 Reference Energy          =    -797.2770192105593878 [Eh]
	 Singles Energy            =      -0.0000000000000000 [Eh]
	 Same-Spin Energy          =      -0.4874785649599939 [Eh]
	 Opposite-Spin Energy      =      -1.5062052812756095 [Eh]
	 Correlation Energy        =      -1.9936838462356032 [Eh]
	 Total Energy              =    -799.2707030567950142 [Eh]

	 ================> DF-SCS-MP2 Energies <==================
	-----------------------------------------------------------
	 SCS Same-Spin Scale       =       0.3333333333333333 [-]
	 SCS Opposite-Spin Scale   =       1.2000000000000000 [-]
	 SCS Same-Spin Energy      =      -0.1624928549866646 [Eh]
	 SCS Opposite-Spin Energy  =      -1.8074463375307313 [Eh]
	 SCS Correlation Energy    =      -1.9699391925173959 [Eh]
	 SCS Total Energy          =    -799.2469584030767464 [Eh]
	-----------------------------------------------------------

  Dipole Moment: [D]
     X:     0.2516      Y:     3.4062      Z:    -0.8971     Total:     3.5313

*** Psi4 exiting successfully. Buy a developer a beer!
