                               Psi4 1.3.2 release

  ==> Input File <==

--------------------------------------------------------------------------
#psi4
#
memory 32 gb

molecule  {
0 1
  S       -1.3336960    -0.3724180    -1.1448160
  O        1.3948110    -1.6888110     0.5141610
  N        0.9516030     0.5158590     0.1032830
  C       -0.3967890     0.1215887     0.2145607
  C        1.3527330     1.8066140    -0.4558870
  C        1.8123640    -0.5701240     0.2233340
  C       -1.2481770     0.5074040     1.2784860
  C       -2.6022980     0.1802550     1.0222870
  C        3.2848510    -0.2882260     0.0069730
  C       -2.7981330    -0.3054580    -0.2520070
  H        0.6391180     2.5565960    -0.1121450
  H        1.3549250     1.8004410    -1.5532040
  H        2.3443270     2.0847450    -0.0978400
  H       -0.8644230     0.8946460     2.2167190
  H       -3.4051180     0.2883830     1.7439780
  H        3.6654260     0.4295190     0.7396260
  H        3.4786200     0.1121010    -0.9922510
  H        3.8138040    -1.2333750     0.1250220
  H       -3.7244210    -0.6394710    -0.7024050
units angstrom
no_reorient  #important for SAPT in psi4, default
symmetry c1  #important for SAPT in psi4, default
}

set PROPERTIES_ORIGIN ["COM"]
properties('MP2/aug-cc-pvtz', properties = ['dipole'])
--------------------------------------------------------------------------

    Molecular point group: c1
  Charge       = 0
  Multiplicity = 1
  Basis Set: AUG-CC-PVTZ
    Blend: AUG-CC-PVTZ
  Basis Set: (AUG-CC-PVTZ AUX)
    Blend: AUG-CC-PVTZ-JKFIT

    Orbital Energies [Eh]
    ---------------------

    Doubly Occupied:

       1A    -91.983998     2A    -20.522758     3A    -15.602371
       4A    -11.356034     5A    -11.299765     6A    -11.281118
       7A    -11.262298     8A    -11.241703     9A    -11.240550
      10A    -11.238934    11A     -8.984451    12A     -6.665407
      13A     -6.664974    14A     -6.664182    15A     -1.382015
      16A     -1.262191    17A     -1.156548    18A     -1.020527
      19A     -0.987253    20A     -0.983581    21A     -0.940476
      22A     -0.806832    23A     -0.759173    24A     -0.713902
      25A     -0.690283    26A     -0.680630    27A     -0.648460
      28A     -0.625498    29A     -0.590994    30A     -0.580309
      31A     -0.564984    32A     -0.562731    33A     -0.553378
      34A     -0.549424    35A     -0.512341    36A     -0.503982
      37A     -0.477035    38A     -0.426971    39A     -0.387568
      40A     -0.344040    41A     -0.316203

  @DF-RHF Final Energy:  -797.28728445083925

   => Energetics <=

    Nuclear Repulsion Energy =            606.6381238410077685
    One-Electron Energy =               -2297.7790650766987710
    Two-Electron Energy =                 893.8536567848518644
    Total Energy =                       -797.2872844508392518
  Basis Set: (AUG-CC-PVTZ AUX)
    Blend: AUG-CC-PVTZ-RI
    Molecular point group: c1

    Geometry (in Angstrom), charge = 0, multiplicity = 1:

       Center              X                  Y                   Z               Mass
    ------------   -----------------  -----------------  -----------------  -----------------
         S           -1.289889616515    -0.321281202451    -1.137716327206    31.972071174400
         O            1.438617383485    -1.637674202451     0.521260672794    15.994914619570
         N            0.995409383485     0.566995797549     0.110382672794    14.003074004430
         C           -0.352982616515     0.172725497549     0.221660372794    12.000000000000
         C            1.396539383485     1.857750797549    -0.448787327206    12.000000000000
         C            1.856170383485    -0.518987202451     0.230433672794    12.000000000000
         C           -1.204370616515     0.558540797549     1.285585672794    12.000000000000
         C           -2.558491616515     0.231391797549     1.029386672794    12.000000000000
         C            3.328657383485    -0.237089202451     0.014072672794    12.000000000000
         C           -2.754326616515    -0.254321202451    -0.244907327206    12.000000000000
         H            0.682924383485     2.607732797549    -0.105045327206     1.007825032230
         H            1.398731383485     1.851577797549    -1.546104327206     1.007825032230
         H            2.388133383485     2.135881797549    -0.090740327206     1.007825032230
         H           -0.820616616515     0.945782797549     2.223818672794     1.007825032230
         H           -3.361311616515     0.339519797549     1.751077672794     1.007825032230
         H            3.709232383485     0.480655797549     0.746725672794     1.007825032230
         H            3.522426383485     0.163237797549    -0.985151327206     1.007825032230
         H            3.857610383485    -1.182238202451     0.132121672794     1.007825032230
         H           -3.680614616515    -0.588334202451    -0.695305327206     1.007825032230

  Basis Set: AUG-CC-PVTZ
    Blend: AUG-CC-PVTZ
  Basis Set: (AUG-CC-PVTZ AUX)
    Blend: AUG-CC-PVTZ-JKFIT
	 Reference Energy          =    -797.2872844508392518 [Eh]
	 Singles Energy            =      -0.0000000000000000 [Eh]
	 Same-Spin Energy          =      -0.4881174655783865 [Eh]
	 Opposite-Spin Energy      =      -1.5077816618010154 [Eh]
	 Correlation Energy        =      -1.9958991273794018 [Eh]
	 Total Energy              =    -799.2831835782186545 [Eh]

	 ================> DF-SCS-MP2 Energies <==================
	-----------------------------------------------------------
	 SCS Same-Spin Scale       =       0.3333333333333333 [-]
	 SCS Opposite-Spin Scale   =       1.2000000000000000 [-]
	 SCS Same-Spin Energy      =      -0.1627058218594621 [Eh]
	 SCS Opposite-Spin Energy  =      -1.8093379941612184 [Eh]
	 SCS Correlation Energy    =      -1.9720438160206806 [Eh]
	 SCS Total Energy          =    -799.2593282668599386 [Eh]
	-----------------------------------------------------------

  Dipole Moment: [D]
     X:     0.6584      Y:     3.5865      Z:    -0.7223     Total:     3.7173

*** Psi4 exiting successfully. Buy a developer a beer!
