                               Psi4 1.4a3.dev225

  ==> Input File <==

--------------------------------------------------------------------------
#psi4
#
memory 32 gb

molecule  {
0 1
  S       -1.3336960    -0.3724180    -1.1448160
  O        1.3948110    -1.6888110     0.5141610
  N        0.9516030     0.5158590     0.1032830
  C       -0.4318110     0.2636330     0.1956970
  C        1.3527330     1.8066140    -0.4558870
  C        1.8123640    -0.5701240     0.2233340
  C       -1.2600274     0.5109426     1.2942037
  C       -2.6022980     0.1802550     1.0222870
  C        3.2848510    -0.2882260     0.0069730
  C       -2.7981330    -0.3054580    -0.2520070
  H        0.6391180     2.5565960    -0.1121450
  H        1.3549250     1.8004410    -1.5532040
  H        2.3443270     2.0847450    -0.0978400
  H       -0.8644230     0.8946460     2.2167190
  H       -3.4051180     0.2883830     1.7439780
  H        3.6654260     0.4295190     0.7396260
  H        3.4786200     0.1121010    -0.9922510
  H        3.8138040    -1.2333750     0.1250220
  H       -3.7244210    -0.6394710    -0.7024050
units angstrom
no_reorient  #important for SAPT in psi4, default
symmetry c1  #important for SAPT in psi4, default
}

set PROPERTIES_ORIGIN ["COM"]
properties('MP2/aug-cc-pvtz', properties = ['dipole'])
--------------------------------------------------------------------------

    Molecular point group: c1
  Charge       = 0
  Multiplicity = 1
  Basis Set: AUG-CC-PVTZ
    Blend: AUG-CC-PVTZ
  Basis Set: (AUG-CC-PVTZ AUX)
    Blend: AUG-CC-PVTZ-JKFIT

    Orbital Energies [Eh]
    ---------------------

    Doubly Occupied:

       1A    -91.984039     2A    -20.522953     3A    -15.602551
       4A    -11.358196     5A    -11.298791     6A    -11.278090
       7A    -11.262455     8A    -11.243074     9A    -11.239148
      10A    -11.238041    11A     -8.984260    12A     -6.665205
      13A     -6.664734    14A     -6.663977    15A     -1.380328
      16A     -1.262804    17A     -1.157759    18A     -1.021462
      19A     -0.988457    20A     -0.981820    21A     -0.941095
      22A     -0.813691    23A     -0.761839    24A     -0.715052
      25A     -0.688047    26A     -0.680261    27A     -0.648188
      28A     -0.623925    29A     -0.591179    30A     -0.579583
      31A     -0.566626    32A     -0.564921    33A     -0.555025
      34A     -0.547400    35A     -0.514460    36A     -0.504248
      37A     -0.478886    38A     -0.427329    39A     -0.386755
      40A     -0.346287    41A     -0.317841

  @DF-RHF Final Energy:  -797.29598330663771

   => Energetics <=

    Nuclear Repulsion Energy =            606.0238535462260643
    One-Electron Energy =               -2296.5381120146907961
    Two-Electron Energy =                 893.2182751618270231
    Total Energy =                       -797.2959833066377087
  Basis Set: (AUG-CC-PVTZ AUX)
    Blend: AUG-CC-PVTZ-RI
    Molecular point group: c1

    Geometry (in Angstrom), charge = 0, multiplicity = 1:

       Center              X                  Y                   Z               Mass
    ------------   -----------------  -----------------  -----------------  -----------------
         S           -1.286261733129    -0.332549193511    -1.137472829516    31.972071174400
         O            1.442245266871    -1.648942193511     0.521504170484    15.994914619570
         N            0.999037266871     0.555727806489     0.110626170484    14.003074004430
         C           -0.384376733129     0.303501806489     0.203040170484    12.000000000000
         C            1.400167266871     1.846482806489    -0.448543829516    12.000000000000
         C            1.859798266871    -0.530255193511     0.230677170484    12.000000000000
         C           -1.212593133129     0.550811406489     1.301546870484    12.000000000000
         C           -2.554863733129     0.220123806489     1.029630170484    12.000000000000
         C            3.332285266871    -0.248357193511     0.014316170484    12.000000000000
         C           -2.750698733129    -0.265589193511    -0.244663829516    12.000000000000
         H            0.686552266871     2.596464806489    -0.104801829516     1.007825032230
         H            1.402359266871     1.840309806489    -1.545860829516     1.007825032230
         H            2.391761266871     2.124613806489    -0.090496829516     1.007825032230
         H           -0.816988733129     0.934514806489     2.224062170484     1.007825032230
         H           -3.357683733129     0.328251806489     1.751321170484     1.007825032230
         H            3.712860266871     0.469387806489     0.746969170484     1.007825032230
         H            3.526054266871     0.151969806489    -0.984907829516     1.007825032230
         H            3.861238266871    -1.193506193511     0.132365170484     1.007825032230
         H           -3.676986733129    -0.599602193511    -0.695061829516     1.007825032230

  Basis Set: AUG-CC-PVTZ
    Blend: AUG-CC-PVTZ
  Basis Set: (AUG-CC-PVTZ AUX)
    Blend: AUG-CC-PVTZ-JKFIT
	 Reference Energy          =    -797.2959833066377087 [Eh]
	 Singles Energy            =      -0.0000000000000000 [Eh]
	 Same-Spin Energy          =      -0.4872423130055170 [Eh]
	 Opposite-Spin Energy      =      -1.5064609841145169 [Eh]
	 Correlation Energy        =      -1.9937032971200339 [Eh]
	 Total Energy              =    -799.2896866037577865 [Eh]

	 ================> DF-SCS-MP2 Energies <==================
	-----------------------------------------------------------
	 SCS Same-Spin Scale       =       0.3333333333333333 [-]
	 SCS Opposite-Spin Scale   =       1.2000000000000000 [-]
	 SCS Same-Spin Energy      =      -0.1624141043351723 [Eh]
	 SCS Opposite-Spin Energy  =      -1.8077531809374201 [Eh]
	 SCS Correlation Energy    =      -1.9701672852725924 [Eh]
	 SCS Total Energy          =    -799.2661505919103320 [Eh]
	-----------------------------------------------------------

  Dipole Moment: [D]
     X:     0.6881      Y:     3.4783      Z:    -0.6754     Total:     3.6095

*** Psi4 exiting successfully. Buy a developer a beer!
