                               Psi4 1.4a3.dev225

  ==> Input File <==

--------------------------------------------------------------------------
#psi4
#
memory 32 gb

molecule  {
0 1
  S       -1.3336960    -0.3724180    -1.1448160
  O        1.3948110    -1.6888110     0.5141610
  N        0.9516030     0.5158590     0.1032830
  C       -0.4318110     0.2636330     0.1956970
  C        1.3527330     1.8066140    -0.4558870
  C        1.8123640    -0.5701240     0.2233340
  C       -1.2778029     0.5162504     1.3177804
  C       -2.6022980     0.1802550     1.0222870
  C        3.2848510    -0.2882260     0.0069730
  C       -2.7981330    -0.3054580    -0.2520070
  H        0.6391180     2.5565960    -0.1121450
  H        1.3549250     1.8004410    -1.5532040
  H        2.3443270     2.0847450    -0.0978400
  H       -0.8644230     0.8946460     2.2167190
  H       -3.4051180     0.2883830     1.7439780
  H        3.6654260     0.4295190     0.7396260
  H        3.4786200     0.1121010    -0.9922510
  H        3.8138040    -1.2333750     0.1250220
  H       -3.7244210    -0.6394710    -0.7024050
units angstrom
no_reorient  #important for SAPT in psi4, default
symmetry c1  #important for SAPT in psi4, default
}

set PROPERTIES_ORIGIN ["COM"]
properties('MP2/aug-cc-pvtz', properties = ['dipole'])
--------------------------------------------------------------------------

    Molecular point group: c1
  Charge       = 0
  Multiplicity = 1
  Basis Set: AUG-CC-PVTZ
    Blend: AUG-CC-PVTZ
  Basis Set: (AUG-CC-PVTZ AUX)
    Blend: AUG-CC-PVTZ-JKFIT

    Orbital Energies [Eh]
    ---------------------

    Doubly Occupied:

       1A    -91.986004     2A    -20.523016     3A    -15.602843
       4A    -11.358269     5A    -11.302005     6A    -11.278125
       7A    -11.261746     8A    -11.243156     9A    -11.239768
      10A    -11.237799    11A     -8.985996    12A     -6.666923
      13A     -6.666458    14A     -6.665744    15A     -1.380365
      16A     -1.262400    17A     -1.156210    18A     -1.021211
      19A     -0.990422    20A     -0.980364    21A     -0.939364
      22A     -0.814326    23A     -0.761184    24A     -0.715552
      25A     -0.688226    26A     -0.680224    27A     -0.648305
      28A     -0.622870    29A     -0.591208    30A     -0.579578
      31A     -0.570281    32A     -0.565377    33A     -0.554798
      34A     -0.546358    35A     -0.513451    36A     -0.503251
      37A     -0.479965    38A     -0.427384    39A     -0.386309
      40A     -0.347434    41A     -0.313534

  @DF-RHF Final Energy:  -797.29162864298792

   => Energetics <=

    Nuclear Repulsion Energy =            605.4420774624644537
    One-Electron Energy =               -2295.3518053850884826
    Two-Electron Energy =                 892.6180992796359988
    Total Energy =                       -797.2916286429879165
  Basis Set: (AUG-CC-PVTZ AUX)
    Blend: AUG-CC-PVTZ-RI
    Molecular point group: c1

    Geometry (in Angstrom), charge = 0, multiplicity = 1:

       Center              X                  Y                   Z               Mass
    ------------   -----------------  -----------------  -----------------  -----------------
         S           -1.284885924740    -0.332960012659    -1.139297645788    31.972071174400
         O            1.443621075260    -1.649353012659     0.519679354212    15.994914619570
         N            1.000413075260     0.555316987341     0.108801354212    14.003074004430
         C           -0.383000924740     0.303090987341     0.201215354212    12.000000000000
         C            1.401543075260     1.846071987341    -0.450368645788    12.000000000000
         C            1.861174075260    -0.530666012659     0.228852354212    12.000000000000
         C           -1.228992824740     0.555708387341     1.323298754212    12.000000000000
         C           -2.553487924740     0.219712987341     1.027805354212    12.000000000000
         C            3.333661075260    -0.248768012659     0.012491354212    12.000000000000
         C           -2.749322924740    -0.266000012659    -0.246488645788    12.000000000000
         H            0.687928075260     2.596053987341    -0.106626645788     1.007825032230
         H            1.403735075260     1.839898987341    -1.547685645788     1.007825032230
         H            2.393137075260     2.124202987341    -0.092321645788     1.007825032230
         H           -0.815612924740     0.934103987341     2.222237354212     1.007825032230
         H           -3.356307924740     0.327840987341     1.749496354212     1.007825032230
         H            3.714236075260     0.468976987341     0.745144354212     1.007825032230
         H            3.527430075260     0.151558987341    -0.986732645788     1.007825032230
         H            3.862614075260    -1.193917012659     0.130540354212     1.007825032230
         H           -3.675610924740    -0.600013012659    -0.696886645788     1.007825032230

  Basis Set: AUG-CC-PVTZ
    Blend: AUG-CC-PVTZ
  Basis Set: (AUG-CC-PVTZ AUX)
    Blend: AUG-CC-PVTZ-JKFIT
	 Reference Energy          =    -797.2916286429879165 [Eh]
	 Singles Energy            =      -0.0000000000000000 [Eh]
	 Same-Spin Energy          =      -0.4880863962687933 [Eh]
	 Opposite-Spin Energy      =      -1.5076121687894921 [Eh]
	 Correlation Energy        =      -1.9956985650582855 [Eh]
	 Total Energy              =    -799.2873272080462357 [Eh]

	 ================> DF-SCS-MP2 Energies <==================
	-----------------------------------------------------------
	 SCS Same-Spin Scale       =       0.3333333333333333 [-]
	 SCS Opposite-Spin Scale   =       1.2000000000000000 [-]
	 SCS Same-Spin Energy      =      -0.1626954654229311 [Eh]
	 SCS Opposite-Spin Energy  =      -1.8091346025473904 [Eh]
	 SCS Correlation Energy    =      -1.9718300679703216 [Eh]
	 SCS Total Energy          =    -799.2634587109582753 [Eh]
	-----------------------------------------------------------

  Dipole Moment: [D]
     X:     0.6967      Y:     3.4675      Z:    -0.7027     Total:     3.6059

*** Psi4 exiting successfully. Buy a developer a beer!
