                               Psi4 1.3.2 release

  ==> Input File <==

--------------------------------------------------------------------------
#psi4
#
memory 32 gb

molecule  {
0 1
  S       -1.1764877    -0.3774432    -1.2358792
  O        1.3948110    -1.6888110     0.5141610
  N        0.9516030     0.5158590     0.1032830
  C       -0.4318110     0.2636330     0.1956970
  C        1.3527330     1.8066140    -0.4558870
  C        1.8123640    -0.5701240     0.2233340
  C       -1.2481770     0.5074040     1.2784860
  C       -2.6022980     0.1802550     1.0222870
  C        3.2848510    -0.2882260     0.0069730
  C       -2.7981330    -0.3054580    -0.2520070
  H        0.6391180     2.5565960    -0.1121450
  H        1.3549250     1.8004410    -1.5532040
  H        2.3443270     2.0847450    -0.0978400
  H       -0.8644230     0.8946460     2.2167190
  H       -3.4051180     0.2883830     1.7439780
  H        3.6654260     0.4295190     0.7396260
  H        3.4786200     0.1121010    -0.9922510
  H        3.8138040    -1.2333750     0.1250220
  H       -3.7244210    -0.6394710    -0.7024050
units angstrom
no_reorient  #important for SAPT in psi4, default
symmetry c1  #important for SAPT in psi4, default
}

set PROPERTIES_ORIGIN ["COM"]
properties('MP2/aug-cc-pvtz', properties = ['dipole'])
--------------------------------------------------------------------------

    Molecular point group: c1
  Charge       = 0
  Multiplicity = 1
  Basis Set: AUG-CC-PVTZ
    Blend: AUG-CC-PVTZ
  Basis Set: (AUG-CC-PVTZ AUX)
    Blend: AUG-CC-PVTZ-JKFIT

    Orbital Energies [Eh]
    ---------------------

    Doubly Occupied:

       1A    -91.986243     2A    -20.522039     3A    -15.599491
       4A    -11.357346     5A    -11.302065     6A    -11.277644
       7A    -11.277089     8A    -11.247948     9A    -11.242399
      10A    -11.239652    11A     -8.983905    12A     -6.664799
      13A     -6.663941    14A     -6.663372    15A     -1.379855
      16A     -1.263348    17A     -1.141409    18A     -1.021678
      19A     -0.987010    20A     -0.970119    21A     -0.942129
      22A     -0.814129    23A     -0.764519    24A     -0.709383
      25A     -0.687125    26A     -0.679669    27A     -0.648406
      28A     -0.619607    29A     -0.590768    30A     -0.578791
      31A     -0.565705    32A     -0.564066    33A     -0.559437
      34A     -0.538813    35A     -0.503792    36A     -0.499307
      37A     -0.471478    38A     -0.426187    39A     -0.385118
      40A     -0.353429    41A     -0.316044

  @DF-RHF Final Energy:  -797.28002819503627

   => Energetics <=

    Nuclear Repulsion Energy =            604.0158571409895103
    One-Electron Energy =               -2292.5732657040825870
    Two-Electron Energy =                 891.2773803680568108
    Total Energy =                       -797.2800281950362660
  Basis Set: (AUG-CC-PVTZ AUX)
    Blend: AUG-CC-PVTZ-RI
    Molecular point group: c1

    Geometry (in Angstrom), charge = 0, multiplicity = 1:

       Center              X                  Y                   Z               Mass
    ------------   -----------------  -----------------  -----------------  -----------------
         S           -1.162389756566    -0.336264224416    -1.208540661790    31.972071174400
         O            1.408908943434    -1.647632024416     0.541499538210    15.994914619570
         N            0.965700943434     0.557037975584     0.130621538210    14.003074004430
         C           -0.417713056566     0.304811975584     0.223035538210    12.000000000000
         C            1.366830943434     1.847792975584    -0.428548461790    12.000000000000
         C            1.826461943434    -0.528945024416     0.250672538210    12.000000000000
         C           -1.234079056566     0.548582975584     1.305824538210    12.000000000000
         C           -2.588200056566     0.221433975584     1.049625538210    12.000000000000
         C            3.298948943434    -0.247047024416     0.034311538210    12.000000000000
         C           -2.784035056566    -0.264279024416    -0.224668461790    12.000000000000
         H            0.653215943434     2.597774975584    -0.084806461790     1.007825032230
         H            1.369022943434     1.841619975584    -1.525865461790     1.007825032230
         H            2.358424943434     2.125923975584    -0.070501461790     1.007825032230
         H           -0.850325056566     0.935824975584     2.244057538210     1.007825032230
         H           -3.391020056566     0.329561975584     1.771316538210     1.007825032230
         H            3.679523943434     0.470697975584     0.766964538210     1.007825032230
         H            3.492717943434     0.153279975584    -0.964912461790     1.007825032230
         H            3.827901943434    -1.192196024416     0.152360538210     1.007825032230
         H           -3.710323056566    -0.598292024416    -0.675066461790     1.007825032230

  Basis Set: AUG-CC-PVTZ
    Blend: AUG-CC-PVTZ
  Basis Set: (AUG-CC-PVTZ AUX)
    Blend: AUG-CC-PVTZ-JKFIT
	 Reference Energy          =    -797.2800281950362660 [Eh]
	 Singles Energy            =      -0.0000000000000000 [Eh]
	 Same-Spin Energy          =      -0.4856773030754713 [Eh]
	 Opposite-Spin Energy      =      -1.5085142560608240 [Eh]
	 Correlation Energy        =      -1.9941915591362953 [Eh]
	 Total Energy              =    -799.2742197541725773 [Eh]

	 ================> DF-SCS-MP2 Energies <==================
	-----------------------------------------------------------
	 SCS Same-Spin Scale       =       0.3333333333333333 [-]
	 SCS Opposite-Spin Scale   =       1.2000000000000000 [-]
	 SCS Same-Spin Energy      =      -0.1618924343584904 [Eh]
	 SCS Opposite-Spin Energy  =      -1.8102171072729887 [Eh]
	 SCS Correlation Energy    =      -1.9721095416314791 [Eh]
	 SCS Total Energy          =    -799.2521377366676916 [Eh]
	-----------------------------------------------------------

  Dipole Moment: [D]
     X:     0.5568      Y:     3.5289      Z:    -0.4819     Total:     3.6049

*** Psi4 exiting successfully. Buy a developer a beer!
