                               Psi4 1.3.2 release

  ==> Input File <==

--------------------------------------------------------------------------
#psi4
#
memory 32 gb

molecule  {
0 1
  S       -1.4323947    -0.3689801    -1.0745650
  O        1.3948110    -1.6888110     0.5141610
  N        0.9516030     0.5158590     0.1032830
  C       -0.4318110     0.2636330     0.1956970
  C        1.3527330     1.8066140    -0.4558870
  C        1.8123640    -0.5701240     0.2233340
  C       -1.2481770     0.5074040     1.2784860
  C       -2.6022980     0.1802550     1.0222870
  C        3.2848510    -0.2882260     0.0069730
  C       -2.7981330    -0.3054580    -0.2520070
  H        0.6391180     2.5565960    -0.1121450
  H        1.3549250     1.8004410    -1.5532040
  H        2.3443270     2.0847450    -0.0978400
  H       -0.8644230     0.8946460     2.2167190
  H       -3.4051180     0.2883830     1.7439780
  H        3.6654260     0.4295190     0.7396260
  H        3.4786200     0.1121010    -0.9922510
  H        3.8138040    -1.2333750     0.1250220
  H       -3.7244210    -0.6394710    -0.7024050
units angstrom
no_reorient  #important for SAPT in psi4, default
symmetry c1  #important for SAPT in psi4, default
}

set PROPERTIES_ORIGIN ["COM"]
properties('MP2/aug-cc-pvtz', properties = ['dipole'])
--------------------------------------------------------------------------

    Molecular point group: c1
  Charge       = 0
  Multiplicity = 1
  Basis Set: AUG-CC-PVTZ
    Blend: AUG-CC-PVTZ
  Basis Set: (AUG-CC-PVTZ AUX)
    Blend: AUG-CC-PVTZ-JKFIT

    Orbital Energies [Eh]
    ---------------------

    Doubly Occupied:

       1A    -91.978636     2A    -20.523238     3A    -15.604035
       4A    -11.358414     5A    -11.292051     6A    -11.278112
       7A    -11.252488     8A    -11.243248     9A    -11.236852
      10A    -11.232782    11A     -8.982263    12A     -6.663568
      13A     -6.662695    14A     -6.661904    15A     -1.380405
      16A     -1.263228    17A     -1.177955    18A     -1.024271
      19A     -0.999250    20A     -0.979676    21A     -0.941571
      22A     -0.812573    23A     -0.764021    24A     -0.716149
      25A     -0.688835    26A     -0.680561    27A     -0.647754
      28A     -0.630694    29A     -0.591227    30A     -0.580188
      31A     -0.567953    32A     -0.565192    33A     -0.553498
      34A     -0.550116    35A     -0.527318    36A     -0.508511
      37A     -0.472772    38A     -0.427701    39A     -0.386926
      40A     -0.347336    41A     -0.318055

  @DF-RHF Final Energy:  -797.28848201812070

   => Energetics <=

    Nuclear Repulsion Energy =            608.7523505338645009
    One-Electron Energy =               -2301.9336200409065896
    Two-Electron Energy =                 895.8927874889213854
    Total Energy =                       -797.2884820181207033
  Basis Set: (AUG-CC-PVTZ AUX)
    Blend: AUG-CC-PVTZ-RI
    Molecular point group: c1

    Geometry (in Angstrom), charge = 0, multiplicity = 1:

       Center              X                  Y                   Z               Mass
    ------------   -----------------  -----------------  -----------------  -----------------
         S           -1.365524238386    -0.329546364283    -1.080492283172    31.972071174400
         O            1.461681461614    -1.649377264283     0.508233716828    15.994914619570
         N            1.018473461614     0.555292735717     0.097355716828    14.003074004430
         C           -0.364940538386     0.303066735717     0.189769716828    12.000000000000
         C            1.419603461614     1.846047735717    -0.461814283172    12.000000000000
         C            1.879234461614    -0.530690264283     0.217406716828    12.000000000000
         C           -1.181306538386     0.546837735717     1.272558716828    12.000000000000
         C           -2.535427538386     0.219688735717     1.016359716828    12.000000000000
         C            3.351721461614    -0.248792264283     0.001045716828    12.000000000000
         C           -2.731262538386    -0.266024264283    -0.257934283172    12.000000000000
         H            0.705988461614     2.596029735717    -0.118072283172     1.007825032230
         H            1.421795461614     1.839874735717    -1.559131283172     1.007825032230
         H            2.411197461614     2.124178735717    -0.103767283172     1.007825032230
         H           -0.797552538386     0.934079735717     2.210791716828     1.007825032230
         H           -3.338247538386     0.327816735717     1.738050716828     1.007825032230
         H            3.732296461614     0.468952735717     0.733698716828     1.007825032230
         H            3.545490461614     0.151534735717    -0.998178283172     1.007825032230
         H            3.880674461614    -1.193941264283     0.119094716828     1.007825032230
         H           -3.657550538386    -0.600037264283    -0.708332283172     1.007825032230

  Basis Set: AUG-CC-PVTZ
    Blend: AUG-CC-PVTZ
  Basis Set: (AUG-CC-PVTZ AUX)
    Blend: AUG-CC-PVTZ-JKFIT
	 Reference Energy          =    -797.2884820181207033 [Eh]
	 Singles Energy            =      -0.0000000000000000 [Eh]
	 Same-Spin Energy          =      -0.4880787271780154 [Eh]
	 Opposite-Spin Energy      =      -1.5049800870420864 [Eh]
	 Correlation Energy        =      -1.9930588142201018 [Eh]
	 Total Energy              =    -799.2815408323408519 [Eh]

	 ================> DF-SCS-MP2 Energies <==================
	-----------------------------------------------------------
	 SCS Same-Spin Scale       =       0.3333333333333333 [-]
	 SCS Opposite-Spin Scale   =       1.2000000000000000 [-]
	 SCS Same-Spin Energy      =      -0.1626929090593384 [Eh]
	 SCS Opposite-Spin Energy  =      -1.8059761044505036 [Eh]
	 SCS Correlation Energy    =      -1.9686690135098421 [Eh]
	 SCS Total Energy          =    -799.2571510316305421 [Eh]
	-----------------------------------------------------------

  Dipole Moment: [D]
     X:     0.7060      Y:     3.4499      Z:    -0.7534     Total:     3.6011

*** Psi4 exiting successfully. Buy a developer a beer!
