                               Psi4 1.4a3.dev225

  ==> Input File <==

--------------------------------------------------------------------------
#psi4
#
memory 32 gb

molecule  {
0 1
  S       -1.3336960    -0.3724180    -1.1448160
  O        1.3948110    -1.6888110     0.5141610
  N        0.9516030     0.5158590     0.1032830
  C       -0.4318110     0.2636330     0.1956970
  C        1.3527330     1.8066140    -0.4558870
  C        1.8123640    -0.5701240     0.2233340
  C       -1.2363266     0.5038654     1.2627683
  C       -2.6022980     0.1802550     1.0222870
  C        3.2848510    -0.2882260     0.0069730
  C       -2.7981330    -0.3054580    -0.2520070
  H        0.6391180     2.5565960    -0.1121450
  H        1.3549250     1.8004410    -1.5532040
  H        2.3443270     2.0847450    -0.0978400
  H       -0.8644230     0.8946460     2.2167190
  H       -3.4051180     0.2883830     1.7439780
  H        3.6654260     0.4295190     0.7396260
  H        3.4786200     0.1121010    -0.9922510
  H        3.8138040    -1.2333750     0.1250220
  H       -3.7244210    -0.6394710    -0.7024050
units angstrom
no_reorient  #important for SAPT in psi4, default
symmetry c1  #important for SAPT in psi4, default
}

set PROPERTIES_ORIGIN ["COM"]
properties('MP2/aug-cc-pvtz', properties = ['dipole'])
--------------------------------------------------------------------------

    Molecular point group: c1
  Charge       = 0
  Multiplicity = 1
  Basis Set: AUG-CC-PVTZ
    Blend: AUG-CC-PVTZ
  Basis Set: (AUG-CC-PVTZ AUX)
    Blend: AUG-CC-PVTZ-JKFIT

    Orbital Energies [Eh]
    ---------------------

    Doubly Occupied:

       1A    -91.981487     2A    -20.522894     3A    -15.602178
       4A    -11.358121     5A    -11.294201     6A    -11.278080
       7A    -11.263342     8A    -11.242980     9A    -11.239580
      10A    -11.237154    11A     -8.982010    12A     -6.662978
      13A     -6.662501    14A     -6.661687    15A     -1.380311
      16A     -1.263494    17A     -1.160061    18A     -1.022032
      19A     -0.987490    20A     -0.982586    21A     -0.943310
      22A     -0.812914    23A     -0.763388    24A     -0.713793
      25A     -0.687727    26A     -0.680352    27A     -0.648049
      28A     -0.625692    29A     -0.591165    30A     -0.579632
      31A     -0.566181    32A     -0.563762    33A     -0.555464
      34A     -0.544145    35A     -0.516019    36A     -0.505314
      37A     -0.477097    38A     -0.427267    39A     -0.387231
      40A     -0.345493    41A     -0.323344

  @DF-RHF Final Energy:  -797.29843672608683

   => Energetics <=

    Nuclear Repulsion Energy =            606.8196477361505004
    One-Electron Energy =               -2298.1511552390634279
    Two-Electron Energy =                 894.0330707768260936
    Total Energy =                       -797.2984367260868339
  Basis Set: (AUG-CC-PVTZ AUX)
    Blend: AUG-CC-PVTZ-RI
    Molecular point group: c1

    Geometry (in Angstrom), charge = 0, multiplicity = 1:

       Center              X                  Y                   Z               Mass
    ------------   -----------------  -----------------  -----------------  -----------------
         S           -1.288096154634    -0.332001424327    -1.135039756633    31.972071174400
         O            1.440410845366    -1.648394424327     0.523937243367    15.994914619570
         N            0.997202845366     0.556275575673     0.113059243367    14.003074004430
         C           -0.386211154634     0.304049575673     0.205473243367    12.000000000000
         C            1.398332845366     1.847030575673    -0.446110756633    12.000000000000
         C            1.857963845366    -0.529707424327     0.233110243367    12.000000000000
         C           -1.190726754634     0.544281975673     1.272544543367    12.000000000000
         C           -2.556698154634     0.220671575673     1.032063243367    12.000000000000
         C            3.330450845366    -0.247809424327     0.016749243367    12.000000000000
         C           -2.752533154634    -0.265041424327    -0.242230756633    12.000000000000
         H            0.684717845366     2.597012575673    -0.102368756633     1.007825032230
         H            1.400524845366     1.840857575673    -1.543427756633     1.007825032230
         H            2.389926845366     2.125161575673    -0.088063756633     1.007825032230
         H           -0.818823154634     0.935062575673     2.226495243367     1.007825032230
         H           -3.359518154634     0.328799575673     1.753754243367     1.007825032230
         H            3.711025845366     0.469935575673     0.749402243367     1.007825032230
         H            3.524219845366     0.152517575673    -0.982474756633     1.007825032230
         H            3.859403845366    -1.192958424327     0.134798243367     1.007825032230
         H           -3.678821154634    -0.599054424327    -0.692628756633     1.007825032230

  Basis Set: AUG-CC-PVTZ
    Blend: AUG-CC-PVTZ
  Basis Set: (AUG-CC-PVTZ AUX)
    Blend: AUG-CC-PVTZ-JKFIT
	 Reference Energy          =    -797.2984367260868339 [Eh]
	 Singles Energy            =      -0.0000000000000000 [Eh]
	 Same-Spin Energy          =      -0.4861742978803345 [Eh]
	 Opposite-Spin Energy      =      -1.5050870477316889 [Eh]
	 Correlation Energy        =      -1.9912613456120234 [Eh]
	 Total Energy              =    -799.2896980716988082 [Eh]

	 ================> DF-SCS-MP2 Energies <==================
	-----------------------------------------------------------
	 SCS Same-Spin Scale       =       0.3333333333333333 [-]
	 SCS Opposite-Spin Scale   =       1.2000000000000000 [-]
	 SCS Same-Spin Energy      =      -0.1620580992934448 [Eh]
	 SCS Opposite-Spin Energy  =      -1.8061044572780265 [Eh]
	 SCS Correlation Energy    =      -1.9681625565714713 [Eh]
	 SCS Total Energy          =    -799.2665992826582624 [Eh]
	-----------------------------------------------------------

  Dipole Moment: [D]
     X:     0.6730      Y:     3.4937      Z:    -0.6358     Total:     3.6143

*** Psi4 exiting successfully. Buy a developer a beer!
