                               Psi4 1.3.2 release

  ==> Input File <==

--------------------------------------------------------------------------
#psi4
#
memory 32 gb

molecule  {
0 1
  S       -1.3336960    -0.3724180    -1.1448160
  O        1.3948110    -1.6888110     0.5141610
  N        0.9516030     0.5158590     0.1032830
  C       -0.4216115     0.2195909     0.2150850
  C        1.3527330     1.8066140    -0.4558870
  C        1.8123640    -0.5701240     0.2233340
  C       -1.2481770     0.5074040     1.2784860
  C       -2.6022980     0.1802550     1.0222870
  C        3.2848510    -0.2882260     0.0069730
  C       -2.7981330    -0.3054580    -0.2520070
  H        0.6391180     2.5565960    -0.1121450
  H        1.3549250     1.8004410    -1.5532040
  H        2.3443270     2.0847450    -0.0978400
  H       -0.8644230     0.8946460     2.2167190
  H       -3.4051180     0.2883830     1.7439780
  H        3.6654260     0.4295190     0.7396260
  H        3.4786200     0.1121010    -0.9922510
  H        3.8138040    -1.2333750     0.1250220
  H       -3.7244210    -0.6394710    -0.7024050
units angstrom
no_reorient  #important for SAPT in psi4, default
symmetry c1  #important for SAPT in psi4, default
}

set PROPERTIES_ORIGIN ["COM"]
properties('MP2/aug-cc-pvtz', properties = ['dipole'])
--------------------------------------------------------------------------

    Molecular point group: c1
  Charge       = 0
  Multiplicity = 1
  Basis Set: AUG-CC-PVTZ
    Blend: AUG-CC-PVTZ
  Basis Set: (AUG-CC-PVTZ AUX)
    Blend: AUG-CC-PVTZ-JKFIT

    Orbital Energies [Eh]
    ---------------------

    Doubly Occupied:

       1A    -91.982149     2A    -20.522882     3A    -15.602584
       4A    -11.357525     5A    -11.297019     6A    -11.279258
       7A    -11.262845     8A    -11.242668     9A    -11.239082
      10A    -11.237470    11A     -8.982484    12A     -6.663442
      13A     -6.662962    14A     -6.662183    15A     -1.380826
      16A     -1.262862    17A     -1.158330    18A     -1.021419
      19A     -0.987212    20A     -0.983469    21A     -0.942187
      22A     -0.811299    23A     -0.762146    24A     -0.714452
      25A     -0.688847    26A     -0.680649    27A     -0.648364
      28A     -0.624860    29A     -0.591169    30A     -0.579929
      31A     -0.565949    32A     -0.563920    33A     -0.555624
      34A     -0.546468    35A     -0.514590    36A     -0.504472
      37A     -0.477273    38A     -0.427143    39A     -0.387109
      40A     -0.345623    41A     -0.320314

  @DF-RHF Final Energy:  -797.29682698678880

   => Energetics <=

    Nuclear Repulsion Energy =            606.4682026301574069
    One-Electron Energy =               -2297.4479463337347624
    Two-Electron Energy =                 893.6829167167884407
    Total Energy =                       -797.2968269867888012
  Basis Set: (AUG-CC-PVTZ AUX)
    Blend: AUG-CC-PVTZ-RI
    Molecular point group: c1

    Geometry (in Angstrom), charge = 0, multiplicity = 1:

       Center              X                  Y                   Z               Mass
    ------------   -----------------  -----------------  -----------------  -----------------
         S           -1.287968376396    -0.328866488316    -1.137756907575    31.972071174400
         O            1.440538623604    -1.645259488316     0.521220092425    15.994914619570
         N            0.997330623604     0.559410511684     0.110342092425    14.003074004430
         C           -0.375883876396     0.263142411684     0.222144092425    12.000000000000
         C            1.398460623604     1.850165511684    -0.448827907575    12.000000000000
         C            1.858091623604    -0.526572488316     0.230393092425    12.000000000000
         C           -1.202449376396     0.550955511684     1.285545092425    12.000000000000
         C           -2.556570376396     0.223806511684     1.029346092425    12.000000000000
         C            3.330578623604    -0.244674488316     0.014032092425    12.000000000000
         C           -2.752405376396    -0.261906488316    -0.244947907575    12.000000000000
         H            0.684845623604     2.600147511684    -0.105085907575     1.007825032230
         H            1.400652623604     1.843992511684    -1.546144907575     1.007825032230
         H            2.390054623604     2.128296511684    -0.090780907575     1.007825032230
         H           -0.818695376396     0.938197511684     2.223778092425     1.007825032230
         H           -3.359390376396     0.331934511684     1.751037092425     1.007825032230
         H            3.711153623604     0.473070511684     0.746685092425     1.007825032230
         H            3.524347623604     0.155652511684    -0.985191907575     1.007825032230
         H            3.859531623604    -1.189823488316     0.132081092425     1.007825032230
         H           -3.678693376396    -0.595919488316    -0.695345907575     1.007825032230

  Basis Set: AUG-CC-PVTZ
    Blend: AUG-CC-PVTZ
  Basis Set: (AUG-CC-PVTZ AUX)
    Blend: AUG-CC-PVTZ-JKFIT
	 Reference Energy          =    -797.2968269867888012 [Eh]
	 Singles Energy            =      -0.0000000000000000 [Eh]
	 Same-Spin Energy          =      -0.4867314253279073 [Eh]
	 Opposite-Spin Energy      =      -1.5058631104938609 [Eh]
	 Correlation Energy        =      -1.9925945358217683 [Eh]
	 Total Energy              =    -799.2894215226106098 [Eh]

	 ================> DF-SCS-MP2 Energies <==================
	-----------------------------------------------------------
	 SCS Same-Spin Scale       =       0.3333333333333333 [-]
	 SCS Opposite-Spin Scale   =       1.2000000000000000 [-]
	 SCS Same-Spin Energy      =      -0.1622438084426358 [Eh]
	 SCS Opposite-Spin Energy  =      -1.8070357325926329 [Eh]
	 SCS Correlation Energy    =      -1.9692795410352688 [Eh]
	 SCS Total Energy          =    -799.2661065278240358 [Eh]
	-----------------------------------------------------------

  Dipole Moment: [D]
     X:     0.6888      Y:     3.5331      Z:    -0.6571     Total:     3.6591

*** Psi4 exiting successfully. Buy a developer a beer!
