                               Psi4 1.3.2 release

  ==> Input File <==

--------------------------------------------------------------------------
#psi4
#
memory 32 gb

molecule  {
0 1
  S       -1.3336960    -0.3724180    -1.1448160
  O        1.3948110    -1.6888110     0.5141610
  N        0.9516030     0.5158590     0.1032830
  C       -0.4361824     0.2876183     0.1924489
  C        1.3527330     1.8066140    -0.4558870
  C        1.8123640    -0.5701240     0.2233340
  C       -1.2481770     0.5074040     1.2784860
  C       -2.6022980     0.1802550     1.0222870
  C        3.2848510    -0.2882260     0.0069730
  C       -2.7981330    -0.3054580    -0.2520070
  H        0.6391180     2.5565960    -0.1121450
  H        1.3549250     1.8004410    -1.5532040
  H        2.3443270     2.0847450    -0.0978400
  H       -0.8644230     0.8946460     2.2167190
  H       -3.4051180     0.2883830     1.7439780
  H        3.6654260     0.4295190     0.7396260
  H        3.4786200     0.1121010    -0.9922510
  H        3.8138040    -1.2333750     0.1250220
  H       -3.7244210    -0.6394710    -0.7024050
units angstrom
no_reorient  #important for SAPT in psi4, default
symmetry c1  #important for SAPT in psi4, default
}

set PROPERTIES_ORIGIN ["COM"]
properties('MP2/aug-cc-pvtz', properties = ['dipole'])
--------------------------------------------------------------------------

    Molecular point group: c1
  Charge       = 0
  Multiplicity = 1
  Basis Set: AUG-CC-PVTZ
    Blend: AUG-CC-PVTZ
  Basis Set: (AUG-CC-PVTZ AUX)
    Blend: AUG-CC-PVTZ-JKFIT

    Orbital Energies [Eh]
    ---------------------

    Doubly Occupied:

       1A    -91.982522     2A    -20.522954     3A    -15.602288
       4A    -11.358506     5A    -11.296291     6A    -11.277532
       7A    -11.263258     8A    -11.243217     9A    -11.239268
      10A    -11.237810    11A     -8.982845    12A     -6.663799
      13A     -6.663317    14A     -6.662536    15A     -1.380087
      16A     -1.263243    17A     -1.158966    18A     -1.021921
      19A     -0.987846    20A     -0.981903    21A     -0.942305
      22A     -0.814319    23A     -0.762868    24A     -0.714611
      25A     -0.687530    26A     -0.680049    27A     -0.648051
      28A     -0.624724    29A     -0.591182    30A     -0.579464
      31A     -0.566388    32A     -0.564248    33A     -0.555475
      34A     -0.545913    35A     -0.515147    36A     -0.504789
      37A     -0.477875    38A     -0.427379    39A     -0.386780
      40A     -0.345929    41A     -0.321208

  @DF-RHF Final Energy:  -797.29778020010031

   => Energetics <=

    Nuclear Repulsion Energy =            606.3271598995655722
    One-Electron Energy =               -2297.1571923334468011
    Two-Electron Energy =                 893.5322522337808095
    Total Energy =                       -797.2977802001003056
  Basis Set: (AUG-CC-PVTZ AUX)
    Blend: AUG-CC-PVTZ-RI
    Molecular point group: c1

    Geometry (in Angstrom), charge = 0, multiplicity = 1:

       Center              X                  Y                   Z               Mass
    ------------   -----------------  -----------------  -----------------  -----------------
         S           -1.286840601287    -0.334131750479    -1.136004892933    31.972071174400
         O            1.441666398713    -1.650524750479     0.522972107067    15.994914619570
         N            0.998458398713     0.554145249521     0.112094107067    14.003074004430
         C           -0.389327001287     0.325904549521     0.201260007067    12.000000000000
         C            1.399588398713     1.844900249521    -0.447075892933    12.000000000000
         C            1.859219398713    -0.531837750479     0.232145107067    12.000000000000
         C           -1.201321601287     0.545690249521     1.287297107067    12.000000000000
         C           -2.555442601287     0.218541249521     1.031098107067    12.000000000000
         C            3.331706398713    -0.249939750479     0.015784107067    12.000000000000
         C           -2.751277601287    -0.267171750479    -0.243195892933    12.000000000000
         H            0.685973398713     2.594882249521    -0.103333892933     1.007825032230
         H            1.401780398713     1.838727249521    -1.544392892933     1.007825032230
         H            2.391182398713     2.123031249521    -0.089028892933     1.007825032230
         H           -0.817567601287     0.932932249521     2.225530107067     1.007825032230
         H           -3.358262601287     0.326669249521     1.752789107067     1.007825032230
         H            3.712281398713     0.467805249521     0.748437107067     1.007825032230
         H            3.525475398713     0.150387249521    -0.983439892933     1.007825032230
         H            3.860659398713    -1.195088750479     0.133833107067     1.007825032230
         H           -3.677565601287    -0.601184750479    -0.693593892933     1.007825032230

  Basis Set: AUG-CC-PVTZ
    Blend: AUG-CC-PVTZ
  Basis Set: (AUG-CC-PVTZ AUX)
    Blend: AUG-CC-PVTZ-JKFIT
	 Reference Energy          =    -797.2977802001003056 [Eh]
	 Singles Energy            =      -0.0000000000000000 [Eh]
	 Same-Spin Energy          =      -0.4865955657614544 [Eh]
	 Opposite-Spin Energy      =      -1.5056835777390694 [Eh]
	 Correlation Energy        =      -1.9922791435005238 [Eh]
	 Total Energy              =    -799.2900593436007739 [Eh]

	 ================> DF-SCS-MP2 Energies <==================
	-----------------------------------------------------------
	 SCS Same-Spin Scale       =       0.3333333333333333 [-]
	 SCS Opposite-Spin Scale   =       1.2000000000000000 [-]
	 SCS Same-Spin Energy      =      -0.1621985219204848 [Eh]
	 SCS Opposite-Spin Energy  =      -1.8068202932868831 [Eh]
	 SCS Correlation Energy    =      -1.9690188152073680 [Eh]
	 SCS Total Energy          =    -799.2667990153076971 [Eh]
	-----------------------------------------------------------

  Dipole Moment: [D]
     X:     0.6818      Y:     3.4677      Z:    -0.6399     Total:     3.5916

*** Psi4 exiting successfully. Buy a developer a beer!
