                               Psi4 1.3.2 release

  ==> Input File <==

--------------------------------------------------------------------------
#psi4
#
memory 32 gb

molecule  {
0 1
  S       -1.3336960    -0.3724180    -1.1448160
  O        1.3948110    -1.6888110     0.5141610
  N        0.9516030     0.5158590     0.1032830
  C       -0.4101268     0.1685329     0.2083983
  C        1.3527330     1.8066140    -0.4558870
  C        1.8123640    -0.5701240     0.2233340
  C       -1.2481770     0.5074040     1.2784860
  C       -2.6022980     0.1802550     1.0222870
  C        3.2848510    -0.2882260     0.0069730
  C       -2.7981330    -0.3054580    -0.2520070
  H        0.6391180     2.5565960    -0.1121450
  H        1.3549250     1.8004410    -1.5532040
  H        2.3443270     2.0847450    -0.0978400
  H       -0.8644230     0.8946460     2.2167190
  H       -3.4051180     0.2883830     1.7439780
  H        3.6654260     0.4295190     0.7396260
  H        3.4786200     0.1121010    -0.9922510
  H        3.8138040    -1.2333750     0.1250220
  H       -3.7244210    -0.6394710    -0.7024050
units angstrom
no_reorient  #important for SAPT in psi4, default
symmetry c1  #important for SAPT in psi4, default
}

set PROPERTIES_ORIGIN ["COM"]
properties('MP2/aug-cc-pvtz', properties = ['dipole'])
--------------------------------------------------------------------------

    Molecular point group: c1
  Charge       = 0
  Multiplicity = 1
  Basis Set: AUG-CC-PVTZ
    Blend: AUG-CC-PVTZ
  Basis Set: (AUG-CC-PVTZ AUX)
    Blend: AUG-CC-PVTZ-JKFIT

    Orbital Energies [Eh]
    ---------------------

    Doubly Occupied:

       1A    -91.983617     2A    -20.522792     3A    -15.602449
       4A    -11.356730     5A    -11.298375     6A    -11.280153
       7A    -11.262216     8A    -11.242169     9A    -11.239570
      10A    -11.238502    11A     -8.984087    12A     -6.665048
      13A     -6.664602    14A     -6.663808    15A     -1.381370
      16A     -1.262543    17A     -1.157655    18A     -1.020896
      19A     -0.986783    20A     -0.984051    21A     -0.941322
      22A     -0.809025    23A     -0.760522    24A     -0.714062
      25A     -0.689549    26A     -0.680686    27A     -0.648352
      28A     -0.625162    29A     -0.591064    30A     -0.580089
      31A     -0.565294    32A     -0.563080    33A     -0.553995
      34A     -0.548646    35A     -0.513890    36A     -0.504446
      37A     -0.477771    38A     -0.427031    39A     -0.387537
      40A     -0.344711    41A     -0.317929

  @DF-RHF Final Energy:  -797.29272468921101

   => Energetics <=

    Nuclear Repulsion Energy =            606.6263649110095457
    One-Electron Energy =               -2297.7550178253131890
    Two-Electron Energy =                 893.8359282250925162
    Total Energy =                       -797.2927246892110134
  Basis Set: (AUG-CC-PVTZ AUX)
    Blend: AUG-CC-PVTZ-RI
    Molecular point group: c1

    Geometry (in Angstrom), charge = 0, multiplicity = 1:

       Center              X                  Y                   Z               Mass
    ------------   -----------------  -----------------  -----------------  -----------------
         S           -1.288857282283    -0.324914643095    -1.137239362754    31.972071174400
         O            1.439649717717    -1.641307643095     0.521737637246    15.994914619570
         N            0.996441717717     0.563362356905     0.110859637246    14.003074004430
         C           -0.365288082283     0.216036256905     0.215974937246    12.000000000000
         C            1.397571717717     1.854117356905    -0.448310362754    12.000000000000
         C            1.857202717717    -0.522620643095     0.230910637246    12.000000000000
         C           -1.203338282283     0.554907356905     1.286062637246    12.000000000000
         C           -2.557459282283     0.227758356905     1.029863637246    12.000000000000
         C            3.329689717717    -0.240722643095     0.014549637246    12.000000000000
         C           -2.753294282283    -0.257954643095    -0.244430362754    12.000000000000
         H            0.683956717717     2.604099356905    -0.104568362754     1.007825032230
         H            1.399763717717     1.847944356905    -1.545627362754     1.007825032230
         H            2.389165717717     2.132248356905    -0.090263362754     1.007825032230
         H           -0.819584282283     0.942149356905     2.224295637246     1.007825032230
         H           -3.360279282283     0.335886356905     1.751554637246     1.007825032230
         H            3.710264717717     0.477022356905     0.747202637246     1.007825032230
         H            3.523458717717     0.159604356905    -0.984674362754     1.007825032230
         H            3.858642717717    -1.185871643095     0.132598637246     1.007825032230
         H           -3.679582282283    -0.591967643095    -0.694828362754     1.007825032230

  Basis Set: AUG-CC-PVTZ
    Blend: AUG-CC-PVTZ
  Basis Set: (AUG-CC-PVTZ AUX)
    Blend: AUG-CC-PVTZ-JKFIT
	 Reference Energy          =    -797.2927246892110134 [Eh]
	 Singles Energy            =      -0.0000000000000000 [Eh]
	 Same-Spin Energy          =      -0.4874922192589255 [Eh]
	 Opposite-Spin Energy      =      -1.5067864455501048 [Eh]
	 Correlation Energy        =      -1.9942786648090303 [Eh]
	 Total Energy              =    -799.2870033540200438 [Eh]

	 ================> DF-SCS-MP2 Energies <==================
	-----------------------------------------------------------
	 SCS Same-Spin Scale       =       0.3333333333333333 [-]
	 SCS Opposite-Spin Scale   =       1.2000000000000000 [-]
	 SCS Same-Spin Energy      =      -0.1624974064196418 [Eh]
	 SCS Opposite-Spin Energy  =      -1.8081437346601257 [Eh]
	 SCS Correlation Energy    =      -1.9706411410797675 [Eh]
	 SCS Total Energy          =    -799.2633658302908088 [Eh]
	-----------------------------------------------------------

  Dipole Moment: [D]
     X:     0.6680      Y:     3.5549      Z:    -0.7062     Total:     3.6854

*** Psi4 exiting successfully. Buy a developer a beer!
