                               Psi4 1.3.2 release

  ==> Input File <==

--------------------------------------------------------------------------
#psi4
#
memory 32 gb

molecule  {
0 1
  S       -1.3336960    -0.3724180    -1.1448160
  O        1.3948110    -1.6888110     0.5141610
  N        0.9516030     0.5158590     0.1032830
  C       -0.4318110     0.2636330     0.1956970
  C        1.3527330     1.8066140    -0.4558870
  C        1.8123640    -0.5701240     0.2233340
  C       -1.3666806     0.5427898     1.4356635
  C       -2.6022980     0.1802550     1.0222870
  C        3.2848510    -0.2882260     0.0069730
  C       -2.7981330    -0.3054580    -0.2520070
  H        0.6391180     2.5565960    -0.1121450
  H        1.3549250     1.8004410    -1.5532040
  H        2.3443270     2.0847450    -0.0978400
  H       -0.8644230     0.8946460     2.2167190
  H       -3.4051180     0.2883830     1.7439780
  H        3.6654260     0.4295190     0.7396260
  H        3.4786200     0.1121010    -0.9922510
  H        3.8138040    -1.2333750     0.1250220
  H       -3.7244210    -0.6394710    -0.7024050
units angstrom
no_reorient  #important for SAPT in psi4, default
symmetry c1  #important for SAPT in psi4, default
}

set PROPERTIES_ORIGIN ["COM"]
properties('MP2/aug-cc-pvtz', properties = ['dipole'])
--------------------------------------------------------------------------

    Molecular point group: c1
  Charge       = 0
  Multiplicity = 1
  Basis Set: AUG-CC-PVTZ
    Blend: AUG-CC-PVTZ
  Basis Set: (AUG-CC-PVTZ AUX)
    Blend: AUG-CC-PVTZ-JKFIT

    Orbital Energies [Eh]
    ---------------------

    Doubly Occupied:

       1A    -91.995930     2A    -20.523581     3A    -15.604419
       4A    -11.358884     5A    -11.315217     6A    -11.278674
       7A    -11.257414     8A    -11.244245     9A    -11.243714
      10A    -11.236709    11A     -8.994811    12A     -6.675624
      13A     -6.675203    14A     -6.674694    15A     -1.380866
      16A     -1.261515    17A     -1.150084    18A     -1.021515
      19A     -1.000999    20A     -0.975415    21A     -0.931427
      22A     -0.817953    23A     -0.765540    24A     -0.713017
      25A     -0.688085    26A     -0.680412    27A     -0.649427
      28A     -0.623000    29A     -0.594198    30A     -0.591457
      31A     -0.579882    32A     -0.565436    33A     -0.553921
      34A     -0.531136    35A     -0.509758    36A     -0.494351
      37A     -0.481737    38A     -0.427815    39A     -0.382224
      40A     -0.355833    41A     -0.294000

  @DF-RHF Final Energy:  -797.24562723057738

   => Energetics <=

    Nuclear Repulsion Energy =            602.6806075505091940
    One-Electron Energy =               -2289.6522235881343477
    Two-Electron Energy =                 889.7259888070477700
    Total Energy =                       -797.2456272305773837
  Basis Set: (AUG-CC-PVTZ AUX)
    Blend: AUG-CC-PVTZ-RI
    Molecular point group: c1

    Geometry (in Angstrom), charge = 0, multiplicity = 1:

       Center              X                  Y                   Z               Mass
    ------------   -----------------  -----------------  -----------------  -----------------
         S           -1.278006867316    -0.335014139359    -1.148421696188    31.972071174400
         O            1.450500132684    -1.651407139359     0.510555303812    15.994914619570
         N            1.007292132684     0.553262860641     0.099677303812    14.003074004430
         C           -0.376121867316     0.301036860641     0.192091303812    12.000000000000
         C            1.408422132684     1.844017860641    -0.459492696188    12.000000000000
         C            1.868053132684    -0.532720139359     0.219728303812    12.000000000000
         C           -1.310991467316     0.580193660641     1.432057803812    12.000000000000
         C           -2.546608867316     0.217658860641     1.018681303812    12.000000000000
         C            3.340540132684    -0.250822139359     0.003367303812    12.000000000000
         C           -2.742443867316    -0.268054139359    -0.255612696188    12.000000000000
         H            0.694807132684     2.593999860641    -0.115750696188     1.007825032230
         H            1.410614132684     1.837844860641    -1.556809696188     1.007825032230
         H            2.400016132684     2.122148860641    -0.101445696188     1.007825032230
         H           -0.808733867316     0.932049860641     2.213113303812     1.007825032230
         H           -3.349428867316     0.325786860641     1.740372303812     1.007825032230
         H            3.721115132684     0.466922860641     0.736020303812     1.007825032230
         H            3.534309132684     0.149504860641    -0.995856696188     1.007825032230
         H            3.869493132684    -1.195971139359     0.121416303812     1.007825032230
         H           -3.668731867316    -0.602067139359    -0.706010696188     1.007825032230

  Basis Set: AUG-CC-PVTZ
    Blend: AUG-CC-PVTZ
  Basis Set: (AUG-CC-PVTZ AUX)
    Blend: AUG-CC-PVTZ-JKFIT
	 Reference Energy          =    -797.2456272305773837 [Eh]
	 Singles Energy            =      -0.0000000000000000 [Eh]
	 Same-Spin Energy          =      -0.4925745291895345 [Eh]
	 Opposite-Spin Energy      =      -1.5145300421027899 [Eh]
	 Correlation Energy        =      -2.0071045712923246 [Eh]
	 Total Energy              =    -799.2527318018696860 [Eh]

	 ================> DF-SCS-MP2 Energies <==================
	-----------------------------------------------------------
	 SCS Same-Spin Scale       =       0.3333333333333333 [-]
	 SCS Opposite-Spin Scale   =       1.2000000000000000 [-]
	 SCS Same-Spin Energy      =      -0.1641915097298448 [Eh]
	 SCS Opposite-Spin Energy  =      -1.8174360505233478 [Eh]
	 SCS Correlation Energy    =      -1.9816275602531925 [Eh]
	 SCS Total Energy          =    -799.2272547908305569 [Eh]
	-----------------------------------------------------------

  Dipole Moment: [D]
     X:     0.6848      Y:     3.4217      Z:    -0.7994     Total:     3.5800

*** Psi4 exiting successfully. Buy a developer a beer!
