                               Psi4 1.3.2 release

  ==> Input File <==

--------------------------------------------------------------------------
#psi4
#
memory 32 gb

molecule  {
-1 1
  O        2.6974490    -0.8132830     0.2843680
  O        1.8995890     1.2895000    -0.0586210
  C       -2.1006760    -0.3536310    -0.4965290
  C       -3.0314955     0.2115921     0.5814366
  C       -0.7106698     0.1880683    -0.3451700
  C        0.3877260    -0.5533690    -0.1060630
  C        1.7796780     0.0321620     0.0520040
  H       -2.0809940    -1.4488000    -0.4417420
  H       -2.4997730    -0.0929160    -1.4864860
  H       -2.6911530    -0.0723110     1.5749530
  H       -3.0846210     1.2967820     0.5254720
  H       -4.0585250    -0.1801320     0.4514200
  H       -0.5779450     1.2609590    -0.4430690
  H        0.3072680    -1.6376370    -0.0077220
units angstrom
no_reorient  #important for SAPT in psi4, default
symmetry c1  #important for SAPT in psi4, default
}

set PROPERTIES_ORIGIN ["COM"]
properties('MP2/aug-cc-pvtz', properties = ['dipole'])
--------------------------------------------------------------------------

    Molecular point group: c1
  Charge       = -1
  Multiplicity = 1
  Basis Set: AUG-CC-PVTZ
    Blend: AUG-CC-PVTZ
  Basis Set: (AUG-CC-PVTZ AUX)
    Blend: AUG-CC-PVTZ-JKFIT

    Orbital Energies [Eh]
    ---------------------

    Doubly Occupied:

       1A    -20.295266     2A    -20.291558     3A    -11.141863
       4A    -11.115615     5A    -11.114053     6A    -11.085533
       7A    -11.070615     8A     -1.161721     9A     -1.060954
      10A     -0.954338    11A     -0.861169    12A     -0.743383
      13A     -0.634060    14A     -0.549011    15A     -0.495161
      16A     -0.485222    17A     -0.445943    18A     -0.417670
      19A     -0.410001    20A     -0.384255    21A     -0.374449
      22A     -0.357856    23A     -0.350489    24A     -0.211068
      25A     -0.208935    26A     -0.203384    27A     -0.191113

  @DF-RHF Final Energy:  -343.28521365429413

   => Energetics <=

    Nuclear Repulsion Energy =            270.8815295180355065
    One-Electron Energy =               -1015.1041168013898641
    Two-Electron Energy =                 400.9373736290602892
    Total Energy =                       -343.2852136542941253
  Basis Set: (AUG-CC-PVTZ AUX)
    Blend: AUG-CC-PVTZ-RI
    Molecular point group: c1

    Geometry (in Angstrom), charge = -1, multiplicity = 1:

       Center              X                  Y                   Z               Mass
    ------------   -----------------  -----------------  -----------------  -----------------
         O            2.549805184573    -0.823722988654     0.284235478297    15.994914619570
         O            1.751945184573     1.279060011346    -0.058753521703    15.994914619570
         C           -2.248319815427    -0.364070988654    -0.496661521703    12.000000000000
         C           -3.179139315427     0.201152111346     0.581304078297    12.000000000000
         C           -0.858313615427     0.177628311346    -0.345302521703    12.000000000000
         C            0.240082184573    -0.563808988654    -0.106195521703    12.000000000000
         C            1.632034184573     0.021722011346     0.051871478297    12.000000000000
         H           -2.228637815427    -1.459239988654    -0.441874521703     1.007825032230
         H           -2.647416815427    -0.103355988654    -1.486618521703     1.007825032230
         H           -2.838796815427    -0.082750988654     1.574820478297     1.007825032230
         H           -3.232264815427     1.286342011346     0.525339478297     1.007825032230
         H           -4.206168815427    -0.190571988654     0.451287478297     1.007825032230
         H           -0.725588815427     1.250519011346    -0.443201521703     1.007825032230
         H            0.159624184573    -1.648076988654    -0.007854521703     1.007825032230

  Basis Set: AUG-CC-PVTZ
    Blend: AUG-CC-PVTZ
  Basis Set: (AUG-CC-PVTZ AUX)
    Blend: AUG-CC-PVTZ-JKFIT
	 Reference Energy          =    -343.2852136542941253 [Eh]
	 Singles Energy            =      -0.0000000000000000 [Eh]
	 Same-Spin Energy          =      -0.3481900379507749 [Eh]
	 Opposite-Spin Energy      =      -1.1057005790780221 [Eh]
	 Correlation Energy        =      -1.4538906170287971 [Eh]
	 Total Energy              =    -344.7391042713229012 [Eh]

	 ================> DF-SCS-MP2 Energies <==================
	-----------------------------------------------------------
	 SCS Same-Spin Scale       =       0.3333333333333333 [-]
	 SCS Opposite-Spin Scale   =       1.2000000000000000 [-]
	 SCS Same-Spin Energy      =      -0.1160633459835916 [Eh]
	 SCS Opposite-Spin Energy  =      -1.3268406948936264 [Eh]
	 SCS Correlation Energy    =      -1.4429040408772180 [Eh]
	 SCS Total Energy          =    -344.7281176951713633 [Eh]
	-----------------------------------------------------------

  Dipole Moment: [D]
     X:    -9.4983      Y:    -1.1424      Z:    -0.5853     Total:     9.5846

*** Psi4 exiting successfully. Buy a developer a beer!
