                               Psi4 1.3.2 release

  ==> Input File <==

--------------------------------------------------------------------------
#psi4
#
memory 32 gb

molecule  {
-1 1
  O        2.6974490    -0.8132830     0.2843680
  O        1.8995890     1.2895000    -0.0586210
  C       -2.1094274    -0.3292302    -0.5001232
  C       -3.0416170     0.2044990     0.5763330
  C       -0.7068700     0.1810590    -0.3555460
  C        0.3877260    -0.5533690    -0.1060630
  C        1.7796780     0.0321620     0.0520040
  H       -2.0809940    -1.4488000    -0.4417420
  H       -2.4997730    -0.0929160    -1.4864860
  H       -2.6911530    -0.0723110     1.5749530
  H       -3.0846210     1.2967820     0.5254720
  H       -4.0585250    -0.1801320     0.4514200
  H       -0.5966934     1.2628042    -0.4458474
  H        0.3072680    -1.6376370    -0.0077220
units angstrom
no_reorient  #important for SAPT in psi4, default
symmetry c1  #important for SAPT in psi4, default
}

set PROPERTIES_ORIGIN ["COM"]
properties('MP2/aug-cc-pvtz', properties = ['dipole'])
--------------------------------------------------------------------------

    Molecular point group: c1
  Charge       = -1
  Multiplicity = 1
  Basis Set: AUG-CC-PVTZ
    Blend: AUG-CC-PVTZ
  Basis Set: (AUG-CC-PVTZ AUX)
    Blend: AUG-CC-PVTZ-JKFIT

    Orbital Energies [Eh]
    ---------------------

    Doubly Occupied:

       1A    -20.295500     2A    -20.291597     3A    -11.142244
       4A    -11.115584     5A    -11.114163     6A    -11.085835
       7A    -11.070946     8A     -1.161865     9A     -1.061062
      10A     -0.955386    11A     -0.863319    12A     -0.743778
      13A     -0.632358    14A     -0.549091    15A     -0.496641
      16A     -0.485177    17A     -0.445843    18A     -0.421829
      19A     -0.411678    20A     -0.379848    21A     -0.376759
      22A     -0.358240    23A     -0.344469    24A     -0.211510
      25A     -0.208951    26A     -0.205536    27A     -0.191173

  @DF-RHF Final Energy:  -343.28465028573208

   => Energetics <=

    Nuclear Repulsion Energy =            270.8665594216647037
    One-Electron Energy =               -1015.0616481302560032
    Two-Electron Energy =                 400.9104384228592721
    Total Energy =                       -343.2846502857320843
  Basis Set: (AUG-CC-PVTZ AUX)
    Blend: AUG-CC-PVTZ-RI
    Molecular point group: c1

    Geometry (in Angstrom), charge = -1, multiplicity = 1:

       Center              X                  Y                   Z               Mass
    ------------   -----------------  -----------------  -----------------  -----------------
         O            2.551822177906    -0.824989493169     0.286574684378    15.994914619570
         O            1.753962177906     1.277793506831    -0.056414315622    15.994914619570
         C           -2.255054222094    -0.340936693169    -0.497916515622    12.000000000000
         C           -3.187243822094     0.192792506831     0.578539684378    12.000000000000
         C           -0.852496822094     0.169352506831    -0.353339315622    12.000000000000
         C            0.242099177906    -0.565075493169    -0.103856315622    12.000000000000
         C            1.634051177906     0.020455506831     0.054210684378    12.000000000000
         H           -2.226620822094    -1.460506493169    -0.439535315622     1.007825032230
         H           -2.645399822094    -0.104622493169    -1.484279315622     1.007825032230
         H           -2.836779822094    -0.084017493169     1.577159684378     1.007825032230
         H           -3.230247822094     1.285075506831     0.527678684378     1.007825032230
         H           -4.204151822094    -0.191838493169     0.453626684378     1.007825032230
         H           -0.742320222094     1.251097706831    -0.443640715622     1.007825032230
         H            0.161641177906    -1.649343493169    -0.005515315622     1.007825032230

  Basis Set: AUG-CC-PVTZ
    Blend: AUG-CC-PVTZ
  Basis Set: (AUG-CC-PVTZ AUX)
    Blend: AUG-CC-PVTZ-JKFIT
	 Reference Energy          =    -343.2846502857320843 [Eh]
	 Singles Energy            =      -0.0000000000000000 [Eh]
	 Same-Spin Energy          =      -0.3481963188813857 [Eh]
	 Opposite-Spin Energy      =      -1.1057216760195039 [Eh]
	 Correlation Energy        =      -1.4539179949008896 [Eh]
	 Total Energy              =    -344.7385682806329896 [Eh]

	 ================> DF-SCS-MP2 Energies <==================
	-----------------------------------------------------------
	 SCS Same-Spin Scale       =       0.3333333333333333 [-]
	 SCS Opposite-Spin Scale   =       1.2000000000000000 [-]
	 SCS Same-Spin Energy      =      -0.1160654396271286 [Eh]
	 SCS Opposite-Spin Energy  =      -1.3268660112234045 [Eh]
	 SCS Correlation Energy    =      -1.4429314508505331 [Eh]
	 SCS Total Energy          =    -344.7275817365826356 [Eh]
	-----------------------------------------------------------

  Dipole Moment: [D]
     X:    -9.5216      Y:    -1.1225      Z:    -0.5820     Total:     9.6051

*** Psi4 exiting successfully. Buy a developer a beer!
