                               Psi4 1.3.2 release

  ==> Input File <==

--------------------------------------------------------------------------
#psi4
#
memory 32 gb

molecule  {
-1 1
  O        2.6974490    -0.8132830     0.2843680
  O        1.8995890     1.2895000    -0.0586210
  C       -2.1006760    -0.3536310    -0.4965290
  C       -3.0213032     0.2186421     0.5864581
  C       -0.7145755     0.1950363    -0.3348056
  C        0.3877260    -0.5533690    -0.1060630
  C        1.7796780     0.0321620     0.0520040
  H       -2.0809940    -1.4488000    -0.4417420
  H       -2.4997730    -0.0929160    -1.4864860
  H       -2.6911530    -0.0723110     1.5749530
  H       -3.0846210     1.2967820     0.5254720
  H       -4.0585250    -0.1801320     0.4514200
  H       -0.5779450     1.2609590    -0.4430690
  H        0.3072680    -1.6376370    -0.0077220
units angstrom
no_reorient  #important for SAPT in psi4, default
symmetry c1  #important for SAPT in psi4, default
}

set PROPERTIES_ORIGIN ["COM"]
properties('MP2/aug-cc-pvtz', properties = ['dipole'])
--------------------------------------------------------------------------

    Molecular point group: c1
  Charge       = -1
  Multiplicity = 1
  Basis Set: AUG-CC-PVTZ
    Blend: AUG-CC-PVTZ
  Basis Set: (AUG-CC-PVTZ AUX)
    Blend: AUG-CC-PVTZ-JKFIT

    Orbital Energies [Eh]
    ---------------------

    Doubly Occupied:

       1A    -20.295204     2A    -20.291480     3A    -11.141743
       4A    -11.115527     5A    -11.114136     6A    -11.085726
       7A    -11.071284     8A     -1.161650     9A     -1.060892
      10A     -0.954475    11A     -0.859985    12A     -0.743024
      13A     -0.635184    14A     -0.549081    15A     -0.496095
      16A     -0.484150    17A     -0.446009    18A     -0.416336
      19A     -0.411086    20A     -0.385426    21A     -0.372801
      22A     -0.357723    23A     -0.351978    24A     -0.210940
      25A     -0.208878    26A     -0.202068    27A     -0.191042

  @DF-RHF Final Energy:  -343.28407037281386

   => Energetics <=

    Nuclear Repulsion Energy =            270.9088198510885377
    One-Electron Energy =               -1015.1579322903728553
    Two-Electron Energy =                 400.9650420664704598
    Total Energy =                       -343.2840703728138578
  Basis Set: (AUG-CC-PVTZ AUX)
    Blend: AUG-CC-PVTZ-RI
    Molecular point group: c1

    Geometry (in Angstrom), charge = -1, multiplicity = 1:

       Center              X                  Y                   Z               Mass
    ------------   -----------------  -----------------  -----------------  -----------------
         O            2.549043515622    -0.825421374961     0.282371360600    15.994914619570
         O            1.751183515622     1.277361625039    -0.060617639400    15.994914619570
         C           -2.249081484378    -0.365769374961    -0.498525639400    12.000000000000
         C           -3.169708684378     0.206503725039     0.584461460600    12.000000000000
         C           -0.862980984378     0.182897925039    -0.336802239400    12.000000000000
         C            0.239320515622    -0.565507374961    -0.108059639400    12.000000000000
         C            1.631272515622     0.020023625039     0.050007360600    12.000000000000
         H           -2.229399484378    -1.460938374961    -0.443738639400     1.007825032230
         H           -2.648178484378    -0.105054374961    -1.488482639400     1.007825032230
         H           -2.839558484378    -0.084449374961     1.572956360600     1.007825032230
         H           -3.233026484378     1.284643625039     0.523475360600     1.007825032230
         H           -4.206930484378    -0.192270374961     0.449423360600     1.007825032230
         H           -0.726350484378     1.248820625039    -0.445065639400     1.007825032230
         H            0.158862515622    -1.649775374961    -0.009718639400     1.007825032230

  Basis Set: AUG-CC-PVTZ
    Blend: AUG-CC-PVTZ
  Basis Set: (AUG-CC-PVTZ AUX)
    Blend: AUG-CC-PVTZ-JKFIT
	 Reference Energy          =    -343.2840703728138578 [Eh]
	 Singles Energy            =      -0.0000000000000000 [Eh]
	 Same-Spin Energy          =      -0.3482569927979114 [Eh]
	 Opposite-Spin Energy      =      -1.1058856183683270 [Eh]
	 Correlation Energy        =      -1.4541426111662383 [Eh]
	 Total Energy              =    -344.7382129839800768 [Eh]

	 ================> DF-SCS-MP2 Energies <==================
	-----------------------------------------------------------
	 SCS Same-Spin Scale       =       0.3333333333333333 [-]
	 SCS Opposite-Spin Scale   =       1.2000000000000000 [-]
	 SCS Same-Spin Energy      =      -0.1160856642659705 [Eh]
	 SCS Opposite-Spin Energy  =      -1.3270627420419923 [Eh]
	 SCS Correlation Energy    =      -1.4431484063079627 [Eh]
	 SCS Total Energy          =    -344.7272187791218130 [Eh]
	-----------------------------------------------------------

  Dipole Moment: [D]
     X:    -9.4827      Y:    -1.1322      Z:    -0.5921     Total:     9.5684

*** Psi4 exiting successfully. Buy a developer a beer!
