                               Psi4 1.3.2 release

  ==> Input File <==

--------------------------------------------------------------------------
#psi4
#
memory 32 gb

molecule  {
-1 1
  O        2.6974490    -0.8132830     0.2843680
  O        1.8995890     1.2895000    -0.0586210
  C       -2.1006760    -0.3536310    -0.4965290
  C       -3.0416170     0.2044990     0.5763330
  C       -0.8927742     0.1097427    -0.3743501
  C        0.3877260    -0.5533690    -0.1060630
  C        1.7796780     0.0321620     0.0520040
  H       -2.0809940    -1.4488000    -0.4417420
  H       -2.4997730    -0.0929160    -1.4864860
  H       -2.6911530    -0.0723110     1.5749530
  H       -3.0846210     1.2967820     0.5254720
  H       -4.0585250    -0.1801320     0.4514200
  H       -0.5779450     1.2609590    -0.4430690
  H        0.3072680    -1.6376370    -0.0077220
units angstrom
no_reorient  #important for SAPT in psi4, default
symmetry c1  #important for SAPT in psi4, default
}

set PROPERTIES_ORIGIN ["COM"]
properties('MP2/aug-cc-pvtz', properties = ['dipole'])
--------------------------------------------------------------------------

    Molecular point group: c1
  Charge       = -1
  Multiplicity = 1
  Basis Set: AUG-CC-PVTZ
    Blend: AUG-CC-PVTZ
  Basis Set: (AUG-CC-PVTZ AUX)
    Blend: AUG-CC-PVTZ-JKFIT

    Orbital Energies [Eh]
    ---------------------

    Doubly Occupied:

       1A    -20.298716     2A    -20.294701     3A    -11.148273
       4A    -11.119409     5A    -11.106492     6A    -11.100024
       7A    -11.088766     8A     -1.164402     9A     -1.063709
      10A     -0.993360    11A     -0.843797    12A     -0.763104
      13A     -0.627327    14A     -0.552180    15A     -0.512591
      16A     -0.484746    17A     -0.452307    18A     -0.424026
      19A     -0.416852    20A     -0.401047    21A     -0.386154
      22A     -0.358662    23A     -0.310331    24A     -0.216829
      25A     -0.210962    26A     -0.193788    27A     -0.174194

  @DF-RHF Final Energy:  -343.21970640814800

   => Energetics <=

    Nuclear Repulsion Energy =            270.8559595877689503
    One-Electron Energy =               -1014.7378327581479880
    Two-Electron Energy =                 400.6621667622310952
    Total Energy =                       -343.2197064081479994
  Basis Set: (AUG-CC-PVTZ AUX)
    Blend: AUG-CC-PVTZ-RI
    Molecular point group: c1

    Geometry (in Angstrom), charge = -1, multiplicity = 1:

       Center              X                  Y                   Z               Mass
    ------------   -----------------  -----------------  -----------------  -----------------
         O            2.573094800524    -0.813373869633     0.288389206834    15.994914619570
         O            1.775234800524     1.289409130367    -0.054599793166    15.994914619570
         C           -2.225030199476    -0.353721869633    -0.492507793166    12.000000000000
         C           -3.165971199476     0.204408130367     0.580354206834    12.000000000000
         C           -1.017128399476     0.109651830367    -0.370328893166    12.000000000000
         C            0.263371800524    -0.553459869633    -0.102041793166    12.000000000000
         C            1.655323800524     0.032071130367     0.056025206834    12.000000000000
         H           -2.205348199476    -1.448890869633    -0.437720793166     1.007825032230
         H           -2.624127199476    -0.093006869633    -1.482464793166     1.007825032230
         H           -2.815507199476    -0.072401869633     1.578974206834     1.007825032230
         H           -3.208975199476     1.296691130367     0.529493206834     1.007825032230
         H           -4.182879199476    -0.180222869633     0.455441206834     1.007825032230
         H           -0.702299199476     1.260868130367    -0.439047793166     1.007825032230
         H            0.182913800524    -1.637727869633    -0.003700793166     1.007825032230

  Basis Set: AUG-CC-PVTZ
    Blend: AUG-CC-PVTZ
  Basis Set: (AUG-CC-PVTZ AUX)
    Blend: AUG-CC-PVTZ-JKFIT
	 Reference Energy          =    -343.2197064081479994 [Eh]
	 Singles Energy            =      -0.0000000000000000 [Eh]
	 Same-Spin Energy          =      -0.3536821472696679 [Eh]
	 Opposite-Spin Energy      =      -1.1142664300277421 [Eh]
	 Correlation Energy        =      -1.4679485772974099 [Eh]
	 Total Energy              =    -344.6876549854454197 [Eh]

	 ================> DF-SCS-MP2 Energies <==================
	-----------------------------------------------------------
	 SCS Same-Spin Scale       =       0.3333333333333333 [-]
	 SCS Opposite-Spin Scale   =       1.2000000000000000 [-]
	 SCS Same-Spin Energy      =      -0.1178940490898893 [Eh]
	 SCS Opposite-Spin Energy  =      -1.3371197160332904 [Eh]
	 SCS Correlation Energy    =      -1.4550137651231796 [Eh]
	 SCS Total Energy          =    -344.6747201732711687 [Eh]
	-----------------------------------------------------------

  Dipole Moment: [D]
     X:    -9.5476      Y:    -1.2173      Z:    -0.5853     Total:     9.6426

*** Psi4 exiting successfully. Buy a developer a beer!
