                               Psi4 1.3.2 release

  ==> Input File <==

--------------------------------------------------------------------------
#psi4
#
memory 32 gb

molecule  {
-1 1
  O        2.6974490    -0.8132830     0.2843680
  O        1.9104661     1.2885725    -0.0568193
  C       -2.1006760    -0.3536310    -0.4965290
  C       -3.0416170     0.2044990     0.5763330
  C       -0.7068700     0.1810590    -0.3555460
  C        0.3926615    -0.5654980    -0.1040402
  C        1.7796780     0.0321620     0.0520040
  H       -2.0809940    -1.4488000    -0.4417420
  H       -2.4997730    -0.0929160    -1.4864860
  H       -2.6911530    -0.0723110     1.5749530
  H       -3.0846210     1.2967820     0.5254720
  H       -4.0585250    -0.1801320     0.4514200
  H       -0.5779450     1.2609590    -0.4430690
  H        0.3072680    -1.6376370    -0.0077220
units angstrom
no_reorient  #important for SAPT in psi4, default
symmetry c1  #important for SAPT in psi4, default
}

set PROPERTIES_ORIGIN ["COM"]
properties('MP2/aug-cc-pvtz', properties = ['dipole'])
--------------------------------------------------------------------------

    Molecular point group: c1
  Charge       = -1
  Multiplicity = 1
  Basis Set: AUG-CC-PVTZ
    Blend: AUG-CC-PVTZ
  Basis Set: (AUG-CC-PVTZ AUX)
    Blend: AUG-CC-PVTZ-JKFIT

    Orbital Energies [Eh]
    ---------------------

    Doubly Occupied:

       1A    -20.294277     2A    -20.291472     3A    -11.141651
       4A    -11.115979     5A    -11.114246     6A    -11.087597
       7A    -11.071225     8A     -1.161610     9A     -1.059969
      10A     -0.953920    11A     -0.861192    12A     -0.744274
      13A     -0.633584    14A     -0.549381    15A     -0.494873
      16A     -0.486912    17A     -0.445515    18A     -0.419437
      19A     -0.409105    20A     -0.383493    21A     -0.374761
      22A     -0.357523    23A     -0.351376    24A     -0.211123
      25A     -0.208407    26A     -0.202532    27A     -0.190595

  @DF-RHF Final Energy:  -343.28496890960719

   => Energetics <=

    Nuclear Repulsion Energy =            270.6602806717273211
    One-Electron Energy =               -1014.6584419586521335
    Two-Electron Energy =                 400.7131923773176823
    Total Energy =                       -343.2849689096071870
  Basis Set: (AUG-CC-PVTZ AUX)
    Blend: AUG-CC-PVTZ-RI
    Molecular point group: c1

    Geometry (in Angstrom), charge = -1, multiplicity = 1:

       Center              X                  Y                   Z               Mass
    ------------   -----------------  -----------------  -----------------  -----------------
         O            2.548216568145    -0.820395073064     0.285574910799    15.994914619570
         O            1.761233668145     1.281460426936    -0.055612389201    15.994914619570
         C           -2.249908431855    -0.360743073064    -0.495322089201    12.000000000000
         C           -3.190849431855     0.197386926936     0.577539910799    12.000000000000
         C           -0.856102431855     0.173946926936    -0.354339089201    12.000000000000
         C            0.243429068145    -0.572610073064    -0.102833289201    12.000000000000
         C            1.630445568145     0.025049926936     0.053210910799    12.000000000000
         H           -2.230226431855    -1.455912073064    -0.440535089201     1.007825032230
         H           -2.649005431855    -0.100028073064    -1.485279089201     1.007825032230
         H           -2.840385431855    -0.079423073064     1.576159910799     1.007825032230
         H           -3.233853431855     1.289669926936     0.526678910799     1.007825032230
         H           -4.207757431855    -0.187244073064     0.452626910799     1.007825032230
         H           -0.727177431855     1.253846926936    -0.441862089201     1.007825032230
         H            0.158035568145    -1.644749073064    -0.006515089201     1.007825032230

  Basis Set: AUG-CC-PVTZ
    Blend: AUG-CC-PVTZ
  Basis Set: (AUG-CC-PVTZ AUX)
    Blend: AUG-CC-PVTZ-JKFIT
	 Reference Energy          =    -343.2849689096071870 [Eh]
	 Singles Energy            =      -0.0000000000000000 [Eh]
	 Same-Spin Energy          =      -0.3482015836877478 [Eh]
	 Opposite-Spin Energy      =      -1.1057642116521964 [Eh]
	 Correlation Energy        =      -1.4539657953399443 [Eh]
	 Total Energy              =    -344.7389347049471553 [Eh]

	 ================> DF-SCS-MP2 Energies <==================
	-----------------------------------------------------------
	 SCS Same-Spin Scale       =       0.3333333333333333 [-]
	 SCS Opposite-Spin Scale   =       1.2000000000000000 [-]
	 SCS Same-Spin Energy      =      -0.1160671945625826 [Eh]
	 SCS Opposite-Spin Energy  =      -1.3269170539826356 [Eh]
	 SCS Correlation Energy    =      -1.4429842485452182 [Eh]
	 SCS Total Energy          =    -344.7279531581523884 [Eh]
	-----------------------------------------------------------

  Dipole Moment: [D]
     X:    -9.5439      Y:    -1.1735      Z:    -0.5818     Total:     9.6334

*** Psi4 exiting successfully. Buy a developer a beer!
