                               Psi4 1.3.2 release

  ==> Input File <==

--------------------------------------------------------------------------
#psi4
#
memory 32 gb

molecule  {
-1 1
  O        2.6974490    -0.8132830     0.2843680
  O        1.8995890     1.2895000    -0.0586210
  C       -2.1006760    -0.3536310    -0.4965290
  C       -3.0416170     0.2044990     0.5763330
  C       -0.7068700     0.1810590    -0.3555460
  C        0.5509093    -0.6628582    -0.0688699
  C        1.7796780     0.0321620     0.0520040
  H       -2.0809940    -1.4488000    -0.4417420
  H       -2.4997730    -0.0929160    -1.4864860
  H       -2.6911530    -0.0723110     1.5749530
  H       -3.0846210     1.2967820     0.5254720
  H       -4.0585250    -0.1801320     0.4514200
  H       -0.5779450     1.2609590    -0.4430690
  H        0.3072680    -1.6376370    -0.0077220
units angstrom
no_reorient  #important for SAPT in psi4, default
symmetry c1  #important for SAPT in psi4, default
}

set PROPERTIES_ORIGIN ["COM"]
properties('MP2/aug-cc-pvtz', properties = ['dipole'])
--------------------------------------------------------------------------

    Molecular point group: c1
  Charge       = -1
  Multiplicity = 1
  Basis Set: AUG-CC-PVTZ
    Blend: AUG-CC-PVTZ
  Basis Set: (AUG-CC-PVTZ AUX)
    Blend: AUG-CC-PVTZ-JKFIT

    Orbital Energies [Eh]
    ---------------------

    Doubly Occupied:

       1A    -20.290505     2A    -20.289732     3A    -11.133768
       4A    -11.118616     5A    -11.117971     6A    -11.113894
       7A    -11.085043     8A     -1.164600     9A     -1.060907
      10A     -0.948596    11A     -0.843017    12A     -0.755978
      13A     -0.641655    14A     -0.566489    15A     -0.503713
      16A     -0.481639    17A     -0.443385    18A     -0.418744
      19A     -0.410965    20A     -0.391308    21A     -0.370270
      22A     -0.361623    23A     -0.345841    24A     -0.214967
      25A     -0.204465    26A     -0.190386    27A     -0.164200

  @DF-RHF Final Energy:  -343.22715481583788

   => Energetics <=

    Nuclear Repulsion Energy =            270.0149767231142164
    One-Electron Energy =               -1013.2197074960973850
    Two-Electron Energy =                 399.9775759571452340
    Total Energy =                       -343.2271548158378778
  Basis Set: (AUG-CC-PVTZ AUX)
    Blend: AUG-CC-PVTZ-RI
    Molecular point group: c1

    Geometry (in Angstrom), charge = -1, multiplicity = 1:

       Center              X                  Y                   Z               Mass
    ------------   -----------------  -----------------  -----------------  -----------------
         O            2.530800219990    -0.808748935216     0.281604724190    15.994914619570
         O            1.732940219990     1.294034064784    -0.061384275810    15.994914619570
         C           -2.267324780010    -0.349096935216    -0.499292275810    12.000000000000
         C           -3.208265780010     0.209033064784     0.573569724190    12.000000000000
         C           -0.873518780010     0.185593064784    -0.358309275810    12.000000000000
         C            0.384260519990    -0.658324135216    -0.071633175810    12.000000000000
         C            1.613029219990     0.036696064784     0.049240724190    12.000000000000
         H           -2.247642780010    -1.444265935216    -0.444505275810     1.007825032230
         H           -2.666421780010    -0.088381935216    -1.489249275810     1.007825032230
         H           -2.857801780010    -0.067776935216     1.572189724190     1.007825032230
         H           -3.251269780010     1.301316064784     0.522708724190     1.007825032230
         H           -4.225173780010    -0.175597935216     0.448656724190     1.007825032230
         H           -0.744593780010     1.265493064784    -0.445832275810     1.007825032230
         H            0.140619219990    -1.633102935216    -0.010485275810     1.007825032230

  Basis Set: AUG-CC-PVTZ
    Blend: AUG-CC-PVTZ
  Basis Set: (AUG-CC-PVTZ AUX)
    Blend: AUG-CC-PVTZ-JKFIT
	 Reference Energy          =    -343.2271548158378778 [Eh]
	 Singles Energy            =      -0.0000000000000000 [Eh]
	 Same-Spin Energy          =      -0.3522491504109184 [Eh]
	 Opposite-Spin Energy      =      -1.1142260227453087 [Eh]
	 Correlation Energy        =      -1.4664751731562271 [Eh]
	 Total Energy              =    -344.6936299889941324 [Eh]

	 ================> DF-SCS-MP2 Energies <==================
	-----------------------------------------------------------
	 SCS Same-Spin Scale       =       0.3333333333333333 [-]
	 SCS Opposite-Spin Scale   =       1.2000000000000000 [-]
	 SCS Same-Spin Energy      =      -0.1174163834703061 [Eh]
	 SCS Opposite-Spin Energy  =      -1.3370712272943703 [Eh]
	 SCS Correlation Energy    =      -1.4544876107646765 [Eh]
	 SCS Total Energy          =    -344.6816424266025365 [Eh]
	-----------------------------------------------------------

  Dipole Moment: [D]
     X:    -9.3628      Y:    -1.3892      Z:    -0.5358     Total:     9.4804

*** Psi4 exiting successfully. Buy a developer a beer!
