                               Psi4 1.3.2 release

  ==> Input File <==

--------------------------------------------------------------------------
#psi4
#
memory 32 gb

molecule  {
-1 1
  O        2.6974490    -0.8132830     0.2843680
  O        1.8995890     1.2895000    -0.0586210
  C       -2.1006760    -0.3536310    -0.4965290
  C       -3.0416170     0.2044990     0.5763330
  C       -0.6662885     0.2383813    -0.3549636
  C        0.3877260    -0.5533690    -0.1060630
  C        1.7796780     0.0321620     0.0520040
  H       -2.0809940    -1.4488000    -0.4417420
  H       -2.4997730    -0.0929160    -1.4864860
  H       -2.6911530    -0.0723110     1.5749530
  H       -3.0846210     1.2967820     0.5254720
  H       -4.0585250    -0.1801320     0.4514200
  H       -0.5779450     1.2609590    -0.4430690
  H        0.3636526    -1.6394836     0.0014406
units angstrom
no_reorient  #important for SAPT in psi4, default
symmetry c1  #important for SAPT in psi4, default
}

set PROPERTIES_ORIGIN ["COM"]
properties('MP2/aug-cc-pvtz', properties = ['dipole'])
--------------------------------------------------------------------------

    Molecular point group: c1
  Charge       = -1
  Multiplicity = 1
  Basis Set: AUG-CC-PVTZ
    Blend: AUG-CC-PVTZ
  Basis Set: (AUG-CC-PVTZ AUX)
    Blend: AUG-CC-PVTZ-JKFIT

    Orbital Energies [Eh]
    ---------------------

    Doubly Occupied:

       1A    -20.294501     2A    -20.290017     3A    -11.138867
       4A    -11.115134     5A    -11.114274     6A    -11.084985
       7A    -11.070372     8A     -1.160905     9A     -1.060120
      10A     -0.946182    11A     -0.862850    12A     -0.737332
      13A     -0.642572    14A     -0.547086    15A     -0.490960
      16A     -0.484818    17A     -0.448335    18A     -0.423772
      19A     -0.405284    20A     -0.381739    21A     -0.372086
      22A     -0.357361    23A     -0.351413    24A     -0.208827
      25A     -0.207160    26A     -0.205805    27A     -0.190468

  @DF-RHF Final Energy:  -343.28072152612032

   => Energetics <=

    Nuclear Repulsion Energy =            270.6529487089878216
    One-Electron Energy =               -1014.6808871741433222
    Two-Electron Energy =                 400.7472169390352406
    Total Energy =                       -343.2807215261203169
  Basis Set: (AUG-CC-PVTZ AUX)
    Blend: AUG-CC-PVTZ-RI
    Molecular point group: c1

    Geometry (in Angstrom), charge = -1, multiplicity = 1:

       Center              X                  Y                   Z               Mass
    ------------   -----------------  -----------------  -----------------  -----------------
         O            2.545080612106    -0.828940615127     0.285947152580    15.994914619570
         O            1.747220612106     1.273842384873    -0.057041847420    15.994914619570
         C           -2.253044387894    -0.369288615127    -0.494949847420    12.000000000000
         C           -3.193985387894     0.188841384873     0.577912152580    12.000000000000
         C           -0.818656887894     0.222723684873    -0.353384447420    12.000000000000
         C            0.235357612106    -0.569026615127    -0.104483847420    12.000000000000
         C            1.627309612106     0.016504384873     0.053583152580    12.000000000000
         H           -2.233362387894    -1.464457615127    -0.440162847420     1.007825032230
         H           -2.652141387894    -0.108573615127    -1.484906847420     1.007825032230
         H           -2.843521387894    -0.087968615127     1.576532152580     1.007825032230
         H           -3.236989387894     1.281124384873     0.527051152580     1.007825032230
         H           -4.210893387894    -0.195789615127     0.452999152580     1.007825032230
         H           -0.730313387894     1.245301384873    -0.441489847420     1.007825032230
         H            0.211284212106    -1.655141215127     0.003019752580     1.007825032230

  Basis Set: AUG-CC-PVTZ
    Blend: AUG-CC-PVTZ
  Basis Set: (AUG-CC-PVTZ AUX)
    Blend: AUG-CC-PVTZ-JKFIT
	 Reference Energy          =    -343.2807215261203169 [Eh]
	 Singles Energy            =      -0.0000000000000000 [Eh]
	 Same-Spin Energy          =      -0.3475710324812966 [Eh]
	 Opposite-Spin Energy      =      -1.1051414374914286 [Eh]
	 Correlation Energy        =      -1.4527124699727252 [Eh]
	 Total Energy              =    -344.7334339960930265 [Eh]

	 ================> DF-SCS-MP2 Energies <==================
	-----------------------------------------------------------
	 SCS Same-Spin Scale       =       0.3333333333333333 [-]
	 SCS Opposite-Spin Scale   =       1.2000000000000000 [-]
	 SCS Same-Spin Energy      =      -0.1158570108270988 [Eh]
	 SCS Opposite-Spin Energy  =      -1.3261697249897142 [Eh]
	 SCS Correlation Energy    =      -1.4420267358168131 [Eh]
	 SCS Total Energy          =    -344.7227482619371131 [Eh]
	-----------------------------------------------------------

  Dipole Moment: [D]
     X:    -9.4569      Y:    -1.1283      Z:    -0.5795     Total:     9.5416

*** Psi4 exiting successfully. Buy a developer a beer!
