                               Psi4 1.3.2 release

  ==> Input File <==

--------------------------------------------------------------------------
#psi4
#
memory 32 gb

molecule  {
-1 1
  O        2.6974490    -0.8132830     0.2843680
  O        1.8995890     1.2895000    -0.0586210
  C       -2.1006760    -0.3536310    -0.4965290
  C       -3.0416170     0.2044990     0.5763330
  C       -0.7068700     0.1810590    -0.3555460
  C        0.3877260    -0.5533690    -0.1060630
  C        1.7747412     0.0442918     0.0499898
  H       -2.0809940    -1.4488000    -0.4417420
  H       -2.4997730    -0.0929160    -1.4864860
  H       -2.6911530    -0.0723110     1.5749530
  H       -3.0846210     1.2967820     0.5254720
  H       -4.0585250    -0.1801320     0.4514200
  H       -0.5779450     1.2609590    -0.4430690
  H        0.2978842    -1.6370377    -0.0092528
units angstrom
no_reorient  #important for SAPT in psi4, default
symmetry c1  #important for SAPT in psi4, default
}

set PROPERTIES_ORIGIN ["COM"]
properties('MP2/aug-cc-pvtz', properties = ['dipole'])
--------------------------------------------------------------------------

    Molecular point group: c1
  Charge       = -1
  Multiplicity = 1
  Basis Set: AUG-CC-PVTZ
    Blend: AUG-CC-PVTZ
  Basis Set: (AUG-CC-PVTZ AUX)
    Blend: AUG-CC-PVTZ-JKFIT

    Orbital Energies [Eh]
    ---------------------

    Doubly Occupied:

       1A    -20.294823     2A    -20.292354     3A    -11.142199
       4A    -11.115888     5A    -11.114087     6A    -11.085260
       7A    -11.070140     8A     -1.162601     9A     -1.060342
      10A     -0.954477    11A     -0.862745    12A     -0.743850
      13A     -0.632280    14A     -0.549773    15A     -0.494786
      16A     -0.486165    17A     -0.446399    18A     -0.418778
      19A     -0.408972    20A     -0.383316    21A     -0.375482
      22A     -0.358298    23A     -0.349398    24A     -0.211314
      25A     -0.208966    26A     -0.204565    27A     -0.191281

  @DF-RHF Final Energy:  -343.28541369571457

   => Energetics <=

    Nuclear Repulsion Energy =            270.8823789733633021
    One-Electron Energy =               -1015.0985072627388490
    Two-Electron Energy =                 400.9307145936609800
    Total Energy =                       -343.2854136957145670
  Basis Set: (AUG-CC-PVTZ AUX)
    Blend: AUG-CC-PVTZ-RI
    Molecular point group: c1

    Geometry (in Angstrom), charge = -1, multiplicity = 1:

       Center              X                  Y                   Z               Mass
    ------------   -----------------  -----------------  -----------------  -----------------
         O            2.551264721206    -0.823490091460     0.286370560563    15.994914619570
         O            1.753404721206     1.279292908540    -0.056618439437    15.994914619570
         C           -2.246860278794    -0.363838091460    -0.494526439437    12.000000000000
         C           -3.187801278794     0.194291908540     0.578335560563    12.000000000000
         C           -0.853054278794     0.170851908540    -0.353543439437    12.000000000000
         C            0.241541721206    -0.563576091460    -0.104060439437    12.000000000000
         C            1.628556921206     0.034084708540     0.051992360563    12.000000000000
         H           -2.227178278794    -1.459007091460    -0.439739439437     1.007825032230
         H           -2.645957278794    -0.103123091460    -1.484483439437     1.007825032230
         H           -2.837337278794    -0.082518091460     1.576955560563     1.007825032230
         H           -3.230805278794     1.286574908540     0.527474560563     1.007825032230
         H           -4.204709278794    -0.190339091460     0.453422560563     1.007825032230
         H           -0.724129278794     1.250751908540    -0.441066439437     1.007825032230
         H            0.151699921206    -1.647244791460    -0.007250239437     1.007825032230

  Basis Set: AUG-CC-PVTZ
    Blend: AUG-CC-PVTZ
  Basis Set: (AUG-CC-PVTZ AUX)
    Blend: AUG-CC-PVTZ-JKFIT
	 Reference Energy          =    -343.2854136957145670 [Eh]
	 Singles Energy            =      -0.0000000000000000 [Eh]
	 Same-Spin Energy          =      -0.3481838006682987 [Eh]
	 Opposite-Spin Energy      =      -1.1056126021915658 [Eh]
	 Correlation Energy        =      -1.4537964028598644 [Eh]
	 Total Energy              =    -344.7392100985744037 [Eh]

	 ================> DF-SCS-MP2 Energies <==================
	-----------------------------------------------------------
	 SCS Same-Spin Scale       =       0.3333333333333333 [-]
	 SCS Opposite-Spin Scale   =       1.2000000000000000 [-]
	 SCS Same-Spin Energy      =      -0.1160612668894329 [Eh]
	 SCS Opposite-Spin Energy  =      -1.3267351226298789 [Eh]
	 SCS Correlation Energy    =      -1.4427963895193119 [Eh]
	 SCS Total Energy          =    -344.7282100852338544 [Eh]
	-----------------------------------------------------------

  Dipole Moment: [D]
     X:    -9.5604      Y:    -1.0289      Z:    -0.5995     Total:     9.6342

*** Psi4 exiting successfully. Buy a developer a beer!
