                               Psi4 1.3.2 release

  ==> Input File <==

--------------------------------------------------------------------------
#psi4
#
memory 32 gb

molecule  {
-1 1
  O        2.6974490    -0.8132830     0.2843680
  O        1.8995890     1.2895000    -0.0586210
  C       -2.1006760    -0.3536310    -0.4965290
  C       -3.0416170     0.2044990     0.5763330
  C       -0.7068700     0.1810590    -0.3555460
  C        0.3877260    -0.5533690    -0.1060630
  C        1.6350652     0.1653784     0.0153905
  H       -2.0809940    -1.4488000    -0.4417420
  H       -2.4997730    -0.0929160    -1.4864860
  H       -2.6911530    -0.0723110     1.5749530
  H       -3.0846210     1.2967820     0.5254720
  H       -4.0585250    -0.1801320     0.4514200
  H       -0.5779450     1.2609590    -0.4430690
  H        0.3072680    -1.6376370    -0.0077220
units angstrom
no_reorient  #important for SAPT in psi4, default
symmetry c1  #important for SAPT in psi4, default
}

set PROPERTIES_ORIGIN ["COM"]
properties('MP2/aug-cc-pvtz', properties = ['dipole'])
--------------------------------------------------------------------------

    Molecular point group: c1
  Charge       = -1
  Multiplicity = 1
  Basis Set: AUG-CC-PVTZ
    Blend: AUG-CC-PVTZ
  Basis Set: (AUG-CC-PVTZ AUX)
    Blend: AUG-CC-PVTZ-JKFIT

    Orbital Energies [Eh]
    ---------------------

    Doubly Occupied:

       1A    -20.327212     2A    -20.253353     3A    -11.139120
       4A    -11.121497     5A    -11.120173     6A    -11.095586
       7A    -11.077371     8A     -1.218853     9A     -0.979262
      10A     -0.961110    11A     -0.878381    12A     -0.756373
      13A     -0.641353    14A     -0.568322    15A     -0.503361
      16A     -0.494299    17A     -0.468765    18A     -0.423723
      19A     -0.416906    20A     -0.387673    21A     -0.377927
      22A     -0.370149    23A     -0.363991    24A     -0.219749
      25A     -0.197078    26A     -0.169194    27A     -0.154780

  @DF-RHF Final Energy:  -343.23130202289502

   => Energetics <=

    Nuclear Repulsion Energy =            271.6305081909584942
    One-Electron Energy =               -1016.3524968974352305
    Two-Electron Energy =                 401.4906866835817141
    Total Energy =                       -343.2313020228950222
  Basis Set: (AUG-CC-PVTZ AUX)
    Blend: AUG-CC-PVTZ-RI
    Molecular point group: c1

    Geometry (in Angstrom), charge = -1, multiplicity = 1:

       Center              X                  Y                   Z               Mass
    ------------   -----------------  -----------------  -----------------  -----------------
         O            2.568092036338    -0.838154547119     0.290546949814    15.994914619570
         O            1.770232036338     1.264628452881    -0.052442050186    15.994914619570
         C           -2.230032963662    -0.378502547119    -0.490350050186    12.000000000000
         C           -3.170973963662     0.179627452881     0.582511949814    12.000000000000
         C           -0.836226963662     0.156187452881    -0.349367050186    12.000000000000
         C            0.258369036338    -0.578240547119    -0.099884050186    12.000000000000
         C            1.505708236338     0.140506852881     0.021569449814    12.000000000000
         H           -2.210350963662    -1.473671547119    -0.435563050186     1.007825032230
         H           -2.629129963662    -0.117787547119    -1.480307050186     1.007825032230
         H           -2.820509963662    -0.097182547119     1.581131949814     1.007825032230
         H           -3.213977963662     1.271910452881     0.531650949814     1.007825032230
         H           -4.187881963662    -0.205003547119     0.457598949814     1.007825032230
         H           -0.707301963662     1.236087452881    -0.436890050186     1.007825032230
         H            0.177911036338    -1.662508547119    -0.001543050186     1.007825032230

  Basis Set: AUG-CC-PVTZ
    Blend: AUG-CC-PVTZ
  Basis Set: (AUG-CC-PVTZ AUX)
    Blend: AUG-CC-PVTZ-JKFIT
	 Reference Energy          =    -343.2313020228950222 [Eh]
	 Singles Energy            =      -0.0000000000000000 [Eh]
	 Same-Spin Energy          =      -0.3509246773841164 [Eh]
	 Opposite-Spin Energy      =      -1.1112356207925478 [Eh]
	 Correlation Energy        =      -1.4621602981766642 [Eh]
	 Total Energy              =    -344.6934623210717064 [Eh]

	 ================> DF-SCS-MP2 Energies <==================
	-----------------------------------------------------------
	 SCS Same-Spin Scale       =       0.3333333333333333 [-]
	 SCS Opposite-Spin Scale   =       1.2000000000000000 [-]
	 SCS Same-Spin Energy      =      -0.1169748924613721 [Eh]
	 SCS Opposite-Spin Energy  =      -1.3334827449510573 [Eh]
	 SCS Correlation Energy    =      -1.4504576374124294 [Eh]
	 SCS Total Energy          =    -344.6817596603074776 [Eh]
	-----------------------------------------------------------

  Dipole Moment: [D]
     X:   -10.7148      Y:     0.2858      Z:    -0.9021     Total:    10.7565

*** Psi4 exiting successfully. Buy a developer a beer!
