                               Psi4 1.3.2 release

  ==> Input File <==

--------------------------------------------------------------------------
#psi4
#
memory 32 gb

molecule  {
-1 1
  O        2.6974490    -0.8132830     0.2843680
  O        1.8995890     1.2895000    -0.0586210
  C       -2.1006760    -0.3536310    -0.4965290
  C       -3.0518869     0.1544172     0.5920466
  C       -0.7068700     0.1810590    -0.3555460
  C        0.3877260    -0.5533690    -0.1060630
  C        1.7796780     0.0321620     0.0520040
  H       -2.1057482    -1.4471175    -0.4125906
  H       -2.4997730    -0.0929160    -1.4864860
  H       -2.6911530    -0.0723110     1.5749530
  H       -3.0846210     1.2967820     0.5254720
  H       -4.0585250    -0.1801320     0.4514200
  H       -0.5779450     1.2609590    -0.4430690
  H        0.3072680    -1.6376370    -0.0077220
units angstrom
no_reorient  #important for SAPT in psi4, default
symmetry c1  #important for SAPT in psi4, default
}

set PROPERTIES_ORIGIN ["COM"]
properties('MP2/aug-cc-pvtz', properties = ['dipole'])
--------------------------------------------------------------------------

    Molecular point group: c1
  Charge       = -1
  Multiplicity = 1
  Basis Set: AUG-CC-PVTZ
    Blend: AUG-CC-PVTZ
  Basis Set: (AUG-CC-PVTZ AUX)
    Blend: AUG-CC-PVTZ-JKFIT

    Orbital Energies [Eh]
    ---------------------

    Doubly Occupied:

       1A    -20.295637     2A    -20.291912     3A    -11.142280
       4A    -11.115722     5A    -11.114186     6A    -11.085925
       7A    -11.070629     8A     -1.162079     9A     -1.061294
      10A     -0.954163    11A     -0.863108    12A     -0.743680
      13A     -0.633070    14A     -0.548840    15A     -0.500948
      16A     -0.483031    17A     -0.445859    18A     -0.420040
      19A     -0.410935    20A     -0.378393    21A     -0.375111
      22A     -0.358328    23A     -0.347698    24A     -0.211572
      25A     -0.209256    26A     -0.205376    27A     -0.191413

  @DF-RHF Final Energy:  -343.28255656082843

   => Energetics <=

    Nuclear Repulsion Energy =            270.7622210964553346
    One-Electron Energy =               -1014.8485839763675358
    Two-Electron Energy =                 400.8038063190838329
    Total Energy =                       -343.2825565608284251
  Basis Set: (AUG-CC-PVTZ AUX)
    Blend: AUG-CC-PVTZ-RI
    Molecular point group: c1

    Geometry (in Angstrom), charge = -1, multiplicity = 1:

       Center              X                  Y                   Z               Mass
    ------------   -----------------  -----------------  -----------------  -----------------
         O            2.552067267436    -0.815963709503     0.283910498347    15.994914619570
         O            1.754207267436     1.286819290497    -0.059078501653    15.994914619570
         C           -2.246057732564    -0.356311709503    -0.496986501653    12.000000000000
         C           -3.197268632564     0.151736490497     0.591589098347    12.000000000000
         C           -0.852251732564     0.178378290497    -0.356003501653    12.000000000000
         C            0.242344267436    -0.556049709503    -0.106520501653    12.000000000000
         C            1.634296267436     0.029481290497     0.051546498347    12.000000000000
         H           -2.251129932564    -1.449798209503    -0.413048101653     1.007825032230
         H           -2.645154732564    -0.095596709503    -1.486943501653     1.007825032230
         H           -2.836534732564    -0.074991709503     1.574495498347     1.007825032230
         H           -3.230002732564     1.294101290497     0.525014498347     1.007825032230
         H           -4.203906732564    -0.182812709503     0.450962498347     1.007825032230
         H           -0.723326732564     1.258278290497    -0.443526501653     1.007825032230
         H            0.161886267436    -1.640317709503    -0.008179501653     1.007825032230

  Basis Set: AUG-CC-PVTZ
    Blend: AUG-CC-PVTZ
  Basis Set: (AUG-CC-PVTZ AUX)
    Blend: AUG-CC-PVTZ-JKFIT
	 Reference Energy          =    -343.2825565608284251 [Eh]
	 Singles Energy            =      -0.0000000000000000 [Eh]
	 Same-Spin Energy          =      -0.3481711016921951 [Eh]
	 Opposite-Spin Energy      =      -1.1057211358267645 [Eh]
	 Correlation Energy        =      -1.4538922375189596 [Eh]
	 Total Energy              =    -344.7364487983473964 [Eh]

	 ================> DF-SCS-MP2 Energies <==================
	-----------------------------------------------------------
	 SCS Same-Spin Scale       =       0.3333333333333333 [-]
	 SCS Opposite-Spin Scale   =       1.2000000000000000 [-]
	 SCS Same-Spin Energy      =      -0.1160570338973984 [Eh]
	 SCS Opposite-Spin Energy  =      -1.3268653629921172 [Eh]
	 SCS Correlation Energy    =      -1.4429223968895155 [Eh]
	 SCS Total Energy          =    -344.7254789577179395 [Eh]
	-----------------------------------------------------------

  Dipole Moment: [D]
     X:    -9.5062      Y:    -1.2199      Z:    -0.5620     Total:     9.6006

*** Psi4 exiting successfully. Buy a developer a beer!
