                               Psi4 1.3.2 release

  ==> Input File <==

--------------------------------------------------------------------------
#psi4
#
memory 32 gb

molecule  {
-1 1
  O        2.6974490    -0.8132830     0.2843680
  O        1.8995890     1.2895000    -0.0586210
  C       -2.1006760    -0.3536310    -0.4965290
  C       -3.0416170     0.2044990     0.5763330
  C       -0.7068700     0.1810590    -0.3555460
  C        0.3877260    -0.5533690    -0.1060630
  C        1.7796780     0.0321620     0.0520040
  H       -2.0809940    -1.4488000    -0.4417420
  H       -2.4997730    -0.0929160    -1.4864860
  H       -2.6911530    -0.0723110     1.5749530
  H       -3.0846210     1.2967820     0.5254720
  H       -4.0585250    -0.1801320     0.4514200
  H       -0.6015774     1.0630092    -0.4270257
  H        0.3072680    -1.6376370    -0.0077220
units angstrom
no_reorient  #important for SAPT in psi4, default
symmetry c1  #important for SAPT in psi4, default
}

set PROPERTIES_ORIGIN ["COM"]
properties('MP2/aug-cc-pvtz', properties = ['dipole'])
--------------------------------------------------------------------------

    Molecular point group: c1
  Charge       = -1
  Multiplicity = 1
  Basis Set: AUG-CC-PVTZ
    Blend: AUG-CC-PVTZ
  Basis Set: (AUG-CC-PVTZ AUX)
    Blend: AUG-CC-PVTZ-JKFIT

    Orbital Energies [Eh]
    ---------------------

    Doubly Occupied:

       1A    -20.295199     2A    -20.291812     3A    -11.141752
       4A    -11.115924     5A    -11.112598     6A    -11.069348
       7A    -11.061678     8A     -1.161776     9A     -1.060994
      10A     -0.959486    11A     -0.867703    12A     -0.743646
      13A     -0.662799    14A     -0.559726    15A     -0.494291
      16A     -0.489129    17A     -0.449432    18A     -0.424154
      19A     -0.408728    20A     -0.382976    21A     -0.375336
      22A     -0.363653    23A     -0.357823    24A     -0.211048
      25A     -0.208853    26A     -0.204135    27A     -0.191110

  @DF-RHF Final Energy:  -343.25174301834471

   => Energetics <=

    Nuclear Repulsion Energy =            271.8519783408777357
    One-Electron Energy =               -1016.8772260086687993
    Two-Electron Energy =                 401.7735046494463518
    Total Energy =                       -343.2517430183447118
  Basis Set: (AUG-CC-PVTZ AUX)
    Blend: AUG-CC-PVTZ-RI
    Molecular point group: c1

    Geometry (in Angstrom), charge = -1, multiplicity = 1:

       Center              X                  Y                   Z               Mass
    ------------   -----------------  -----------------  -----------------  -----------------
         O            2.550811576843    -0.820000145138     0.285947700397    15.994914619570
         O            1.752951576843     1.282782854862    -0.057041299603    15.994914619570
         C           -2.247313423157    -0.360348145138    -0.494949299603    12.000000000000
         C           -3.188254423157     0.197781854862     0.577912700397    12.000000000000
         C           -0.853507423157     0.174341854862    -0.353966299603    12.000000000000
         C            0.241088576843    -0.560086145138    -0.104483299603    12.000000000000
         C            1.633040576843     0.025444854862     0.053583700397    12.000000000000
         H           -2.227631423157    -1.455517145138    -0.440162299603     1.007825032230
         H           -2.646410423157    -0.099633145138    -1.484906299603     1.007825032230
         H           -2.837790423157    -0.079028145138     1.576532700397     1.007825032230
         H           -3.231258423157     1.290064854862     0.527051700397     1.007825032230
         H           -4.205162423157    -0.186849145138     0.452999700397     1.007825032230
         H           -0.748214823157     1.056292054862    -0.425445999603     1.007825032230
         H            0.160630576843    -1.644354145138    -0.006142299603     1.007825032230

  Basis Set: AUG-CC-PVTZ
    Blend: AUG-CC-PVTZ
  Basis Set: (AUG-CC-PVTZ AUX)
    Blend: AUG-CC-PVTZ-JKFIT
	 Reference Energy          =    -343.2517430183447118 [Eh]
	 Singles Energy            =      -0.0000000000000000 [Eh]
	 Same-Spin Energy          =      -0.3477562146483053 [Eh]
	 Opposite-Spin Energy      =      -1.1049907515916257 [Eh]
	 Correlation Energy        =      -1.4527469662399310 [Eh]
	 Total Energy              =    -344.7044899845846544 [Eh]

	 ================> DF-SCS-MP2 Energies <==================
	-----------------------------------------------------------
	 SCS Same-Spin Scale       =       0.3333333333333333 [-]
	 SCS Opposite-Spin Scale   =       1.2000000000000000 [-]
	 SCS Same-Spin Energy      =      -0.1159187382161018 [Eh]
	 SCS Opposite-Spin Energy  =      -1.3259889019099509 [Eh]
	 SCS Correlation Energy    =      -1.4419076401260527 [Eh]
	 SCS Total Energy          =    -344.6936506584707445 [Eh]
	-----------------------------------------------------------

  Dipole Moment: [D]
     X:    -9.5418      Y:    -1.1317      Z:    -0.5840     Total:     9.6264

*** Psi4 exiting successfully. Buy a developer a beer!
