                               Psi4 1.4a3.dev225

  ==> Input File <==

--------------------------------------------------------------------------
#psi4
#
memory 32 gb

molecule  {
-1 1
  O        2.6993700    -0.8109490     0.2832770
  O        1.8994270     1.2905180    -0.0615170
  C       -2.1001690    -0.3616000    -0.4913260
  C       -3.0433460     0.2119310     0.5709670
  C       -0.7080250     0.1770830    -0.3546910
  C        0.3885780    -0.5541740    -0.1016640
  C        1.7653694     0.0463052     0.0482281
  H       -2.0812530    -1.4558260    -0.4203270
  H       -2.4968010    -0.1155520    -1.4857470
  H       -2.6986290    -0.0550030     1.5741980
  H       -3.0817280     1.3037570     0.5071410
  H       -4.0608920    -0.1705790     0.4451360
  H       -0.5806440     1.2564400    -0.4499950
  H        0.3081890    -1.6372690     0.0045550
units angstrom
no_reorient  #important for SAPT in psi4, default
symmetry c1  #important for SAPT in psi4, default
}

set PROPERTIES_ORIGIN ["COM"]
properties('MP2/aug-cc-pvtz', properties = ['dipole'])
--------------------------------------------------------------------------

    Molecular point group: c1
  Charge       = -1
  Multiplicity = 1
  Basis Set: AUG-CC-PVTZ
    Blend: AUG-CC-PVTZ
  Basis Set: (AUG-CC-PVTZ AUX)
    Blend: AUG-CC-PVTZ-JKFIT

    Orbital Energies [Eh]
    ---------------------

    Doubly Occupied:

       1A    -20.295213     2A    -20.290903     3A    -11.141905
       4A    -11.116384     5A    -11.114656     6A    -11.086574
       7A    -11.070832     8A     -1.160686     9A     -1.056568
      10A     -0.955445    11A     -0.864035    12A     -0.745143
      13A     -0.634211    14A     -0.550834    15A     -0.495345
      16A     -0.487252    17A     -0.446046    18A     -0.419099
      19A     -0.409469    20A     -0.383163    21A     -0.374253
      22A     -0.356940    23A     -0.350338    24A     -0.212220
      25A     -0.207222    26A     -0.204991    27A     -0.189671

  @DF-RHF Final Energy:  -343.28426343103598

   => Energetics <=

    Nuclear Repulsion Energy =            270.8798348540769325
    One-Electron Energy =               -1015.0894003346772934
    Two-Electron Energy =                 400.9253020495643227
    Total Energy =                       -343.2842634310359813
  Basis Set: (AUG-CC-PVTZ AUX)
    Blend: AUG-CC-PVTZ-RI
    Molecular point group: c1

    Geometry (in Angstrom), charge = -1, multiplicity = 1:

       Center              X                  Y                   Z               Mass
    ------------   -----------------  -----------------  -----------------  -----------------
         O            2.554187607021    -0.821291171451     0.285482758301    15.994914619570
         O            1.754244607021     1.280175828549    -0.059311241699    15.994914619570
         C           -2.245351392979    -0.371942171451    -0.489120241699    12.000000000000
         C           -3.188528392979     0.201588828549     0.573172758301    12.000000000000
         C           -0.853207392979     0.166740828549    -0.352485241699    12.000000000000
         C            0.243395607021    -0.564516171451    -0.099458241699    12.000000000000
         C            1.620187007021     0.035963028549     0.050433858301    12.000000000000
         H           -2.226435392979    -1.466168171451    -0.418121241699     1.007825032230
         H           -2.641983392979    -0.125894171451    -1.483541241699     1.007825032230
         H           -2.843811392979    -0.065345171451     1.576403758301     1.007825032230
         H           -3.226910392979     1.293414828549     0.509346758301     1.007825032230
         H           -4.206074392979    -0.180921171451     0.447341758301     1.007825032230
         H           -0.725826392979     1.246097828549    -0.447789241699     1.007825032230
         H            0.163006607021    -1.647611171451     0.006760758301     1.007825032230

  Basis Set: AUG-CC-PVTZ
    Blend: AUG-CC-PVTZ
  Basis Set: (AUG-CC-PVTZ AUX)
    Blend: AUG-CC-PVTZ-JKFIT
	 Reference Energy          =    -343.2842634310359813 [Eh]
	 Singles Energy            =      -0.0000000000000000 [Eh]
	 Same-Spin Energy          =      -0.3483802368628610 [Eh]
	 Opposite-Spin Energy      =      -1.1060360830628544 [Eh]
	 Correlation Energy        =      -1.4544163199257154 [Eh]
	 Total Energy              =    -344.7386797509616940 [Eh]

	 ================> DF-SCS-MP2 Energies <==================
	-----------------------------------------------------------
	 SCS Same-Spin Scale       =       0.3333333333333333 [-]
	 SCS Opposite-Spin Scale   =       1.2000000000000000 [-]
	 SCS Same-Spin Energy      =      -0.1161267456209537 [Eh]
	 SCS Opposite-Spin Energy  =      -1.3272432996754253 [Eh]
	 SCS Correlation Energy    =      -1.4433700452963789 [Eh]
	 SCS Total Energy          =    -344.7276334763323575 [Eh]
	-----------------------------------------------------------

  Dipole Moment: [D]
     X:    -9.6435      Y:    -1.0173      Z:    -0.6024     Total:     9.7157

*** Psi4 exiting successfully. Buy a developer a beer!
