                               Psi4 1.3.2 release

  ==> Input File <==

--------------------------------------------------------------------------
#psi4
#
memory 32 gb

molecule  {
-1 1
  O        2.6974490    -0.8132830     0.2843680
  O        1.8995890     1.2895000    -0.0586210
  C       -2.1006760    -0.3536310    -0.4965290
  C       -3.0416170     0.2044990     0.5763330
  C       -0.7003119     0.1907568    -0.3554964
  C        0.3877260    -0.5533690    -0.1060630
  C        1.7796780     0.0321620     0.0520040
  H       -2.0809940    -1.4488000    -0.4417420
  H       -2.4997730    -0.0929160    -1.4864860
  H       -2.6911530    -0.0723110     1.5749530
  H       -3.0846210     1.2967820     0.5254720
  H       -4.0585250    -0.1801320     0.4514200
  H       -0.5779450     1.2609590    -0.4430690
  H        0.3166543    -1.6381514    -0.0061755
units angstrom
no_reorient  #important for SAPT in psi4, default
symmetry c1  #important for SAPT in psi4, default
}

set PROPERTIES_ORIGIN ["COM"]
properties('MP2/aug-cc-pvtz', properties = ['dipole'])
--------------------------------------------------------------------------

    Molecular point group: c1
  Charge       = -1
  Multiplicity = 1
  Basis Set: AUG-CC-PVTZ
    Blend: AUG-CC-PVTZ
  Basis Set: (AUG-CC-PVTZ AUX)
    Blend: AUG-CC-PVTZ-JKFIT

    Orbital Energies [Eh]
    ---------------------

    Doubly Occupied:

       1A    -20.295184     2A    -20.291362     3A    -11.141456
       4A    -11.115569     5A    -11.114169     6A    -11.085246
       7A    -11.070003     8A     -1.161633     9A     -1.060856
      10A     -0.952817    11A     -0.862395    12A     -0.742665
      13A     -0.634401    14A     -0.548591    15A     -0.493792
      16A     -0.486082    17A     -0.446025    18A     -0.419818
      19A     -0.408275    20A     -0.382727    21A     -0.374510
      22A     -0.357852    23A     -0.350763    24A     -0.210768
      25A     -0.208751    26A     -0.204825    27A     -0.191051

  @DF-RHF Final Energy:  -343.28578166505298

   => Energetics <=

    Nuclear Repulsion Energy =            270.8160279032722428
    One-Electron Energy =               -1014.9804478245014252
    Two-Electron Energy =                 400.8786382561762025
    Total Energy =                       -343.2857816650529799
  Basis Set: (AUG-CC-PVTZ AUX)
    Blend: AUG-CC-PVTZ-RI
    Molecular point group: c1

    Geometry (in Angstrom), charge = -1, multiplicity = 1:

       Center              X                  Y                   Z               Mass
    ------------   -----------------  -----------------  -----------------  -----------------
         O            2.549681032953    -0.823184103921     0.286089202683    15.994914619570
         O            1.751821032953     1.279598896079    -0.056899797317    15.994914619570
         C           -2.248443967047    -0.363532103921    -0.494807797317    12.000000000000
         C           -3.189384967047     0.194597896079     0.578054202683    12.000000000000
         C           -0.848079867047     0.180855696079    -0.353775197317    12.000000000000
         C            0.239958032953    -0.563270103921    -0.104341797317    12.000000000000
         C            1.631910032953     0.022260896079     0.053725202683    12.000000000000
         H           -2.228761967047    -1.458701103921    -0.440020797317     1.007825032230
         H           -2.647540967047    -0.102817103921    -1.484764797317     1.007825032230
         H           -2.838920967047    -0.082212103921     1.576674202683     1.007825032230
         H           -3.232388967047     1.286880896079     0.527193202683     1.007825032230
         H           -4.206292967047    -0.190033103921     0.453141202683     1.007825032230
         H           -0.725712967047     1.251057896079    -0.441347797317     1.007825032230
         H            0.168886332953    -1.648052503921    -0.004454297317     1.007825032230

  Basis Set: AUG-CC-PVTZ
    Blend: AUG-CC-PVTZ
  Basis Set: (AUG-CC-PVTZ AUX)
    Blend: AUG-CC-PVTZ-JKFIT
	 Reference Energy          =    -343.2857816650529799 [Eh]
	 Singles Energy            =      -0.0000000000000000 [Eh]
	 Same-Spin Energy          =      -0.3480188303552610 [Eh]
	 Opposite-Spin Energy      =      -1.1054301694599760 [Eh]
	 Correlation Energy        =      -1.4534489998152371 [Eh]
	 Total Energy              =    -344.7392306648682165 [Eh]

	 ================> DF-SCS-MP2 Energies <==================
	-----------------------------------------------------------
	 SCS Same-Spin Scale       =       0.3333333333333333 [-]
	 SCS Opposite-Spin Scale   =       1.2000000000000000 [-]
	 SCS Same-Spin Energy      =      -0.1160062767850870 [Eh]
	 SCS Opposite-Spin Energy  =      -1.3265162033519711 [Eh]
	 SCS Correlation Energy    =      -1.4425224801370580 [Eh]
	 SCS Total Energy          =    -344.7283041451900658 [Eh]
	-----------------------------------------------------------

  Dipole Moment: [D]
     X:    -9.5043      Y:    -1.1487      Z:    -0.5793     Total:     9.5910

*** Psi4 exiting successfully. Buy a developer a beer!
