                               Psi4 1.3.2 release

  ==> Input File <==

--------------------------------------------------------------------------
#psi4
#
memory 32 gb

molecule  {
-1 1
  O        2.6899590    -0.8214360     0.2840232
  O        1.8887050     1.2903303    -0.0604288
  C       -2.1006760    -0.3536310    -0.4965290
  C       -3.0416170     0.2044990     0.5763330
  C       -0.7068700     0.1810590    -0.3555460
  C        0.3877260    -0.5533690    -0.1060630
  C        1.7796780     0.0321620     0.0520040
  H       -2.0809940    -1.4488000    -0.4417420
  H       -2.4997730    -0.0929160    -1.4864860
  H       -2.6911530    -0.0723110     1.5749530
  H       -3.0846210     1.2967820     0.5254720
  H       -4.0585250    -0.1801320     0.4514200
  H       -0.5779450     1.2609590    -0.4430690
  H        0.3072680    -1.6376370    -0.0077220
units angstrom
no_reorient  #important for SAPT in psi4, default
symmetry c1  #important for SAPT in psi4, default
}

set PROPERTIES_ORIGIN ["COM"]
properties('MP2/aug-cc-pvtz', properties = ['dipole'])
--------------------------------------------------------------------------

    Molecular point group: c1
  Charge       = -1
  Multiplicity = 1
  Basis Set: AUG-CC-PVTZ
    Blend: AUG-CC-PVTZ
  Basis Set: (AUG-CC-PVTZ AUX)
    Blend: AUG-CC-PVTZ-JKFIT

    Orbital Energies [Eh]
    ---------------------

    Doubly Occupied:

       1A    -20.296372     2A    -20.292633     3A    -11.142523
       4A    -11.115344     5A    -11.113431     6A    -11.084420
       7A    -11.068855     8A     -1.162041     9A     -1.062951
      10A     -0.953585    11A     -0.861570    12A     -0.743168
      13A     -0.632302    14A     -0.548478    15A     -0.494347
      16A     -0.485460    17A     -0.446153    18A     -0.419011
      19A     -0.408435    20A     -0.383035    21A     -0.376049
      22A     -0.358516    23A     -0.348130    24A     -0.211767
      25A     -0.209517    26A     -0.203928    27A     -0.192407

  @DF-RHF Final Energy:  -343.28578664362090

   => Energetics <=

    Nuclear Repulsion Energy =            270.9508335871380496
    One-Electron Energy =               -1015.2443787372345696
    Two-Electron Energy =                 401.0077585064756249
    Total Energy =                       -343.2857866436208951
  Basis Set: (AUG-CC-PVTZ AUX)
    Blend: AUG-CC-PVTZ-RI
    Molecular point group: c1

    Geometry (in Angstrom), charge = -1, multiplicity = 1:

       Center              X                  Y                   Z               Mass
    ------------   -----------------  -----------------  -----------------  -----------------
         O            2.546048360784    -0.828984818935     0.286113776207    15.994914619570
         O            1.744794360784     1.282781481065    -0.058338223793    15.994914619570
         C           -2.244586639216    -0.361179818935    -0.494438423793    12.000000000000
         C           -3.185527639216     0.196950181065     0.578423576207    12.000000000000
         C           -0.850780639216     0.173510181065    -0.353455423793    12.000000000000
         C            0.243815360784    -0.560917818935    -0.103972423793    12.000000000000
         C            1.635767360784     0.024613181065     0.054094576207    12.000000000000
         H           -2.224904639216    -1.456348818935    -0.439651423793     1.007825032230
         H           -2.643683639216    -0.100464818935    -1.484395423793     1.007825032230
         H           -2.835063639216    -0.079859818935     1.577043576207     1.007825032230
         H           -3.228531639216     1.289233181065     0.527562576207     1.007825032230
         H           -4.202435639216    -0.187680818935     0.453510576207     1.007825032230
         H           -0.721855639216     1.253410181065    -0.440978423793     1.007825032230
         H            0.163357360784    -1.645185818935    -0.005631423793     1.007825032230

  Basis Set: AUG-CC-PVTZ
    Blend: AUG-CC-PVTZ
  Basis Set: (AUG-CC-PVTZ AUX)
    Blend: AUG-CC-PVTZ-JKFIT
	 Reference Energy          =    -343.2857866436208951 [Eh]
	 Singles Energy            =      -0.0000000000000000 [Eh]
	 Same-Spin Energy          =      -0.3481793190195517 [Eh]
	 Opposite-Spin Energy      =      -1.1056049979955378 [Eh]
	 Correlation Energy        =      -1.4537843170150895 [Eh]
	 Total Energy              =    -344.7395709606360015 [Eh]

	 ================> DF-SCS-MP2 Energies <==================
	-----------------------------------------------------------
	 SCS Same-Spin Scale       =       0.3333333333333333 [-]
	 SCS Opposite-Spin Scale   =       1.2000000000000000 [-]
	 SCS Same-Spin Energy      =      -0.1160597730065172 [Eh]
	 SCS Opposite-Spin Energy  =      -1.3267259975946453 [Eh]
	 SCS Correlation Energy    =      -1.4427857706011624 [Eh]
	 SCS Total Energy          =    -344.7285724142220715 [Eh]
	-----------------------------------------------------------

  Dipole Moment: [D]
     X:    -9.4476      Y:    -1.1345      Z:    -0.5726     Total:     9.5327

*** Psi4 exiting successfully. Buy a developer a beer!
