                               Psi4 1.3.2 release

  ==> Input File <==

--------------------------------------------------------------------------
#psi4
#
memory 32 gb

molecule  {
-1 1
  O        2.6974490    -0.8132830     0.2843680
  O        1.8995890     1.2895000    -0.0586210
  C       -2.1006760    -0.3536310    -0.4965290
  C       -3.0416170     0.2044990     0.5763330
  C       -0.7068700     0.1810590    -0.3555460
  C        0.3877260    -0.5533690    -0.1060630
  C        1.9242908    -0.1010544     0.0886175
  H       -2.0809940    -1.4488000    -0.4417420
  H       -2.4997730    -0.0929160    -1.4864860
  H       -2.6911530    -0.0723110     1.5749530
  H       -3.0846210     1.2967820     0.5254720
  H       -4.0585250    -0.1801320     0.4514200
  H       -0.5779450     1.2609590    -0.4430690
  H        0.3072680    -1.6376370    -0.0077220
units angstrom
no_reorient  #important for SAPT in psi4, default
symmetry c1  #important for SAPT in psi4, default
}

set PROPERTIES_ORIGIN ["COM"]
properties('MP2/aug-cc-pvtz', properties = ['dipole'])
--------------------------------------------------------------------------

    Molecular point group: c1
  Charge       = -1
  Multiplicity = 1
  Basis Set: AUG-CC-PVTZ
    Blend: AUG-CC-PVTZ
  Basis Set: (AUG-CC-PVTZ AUX)
    Blend: AUG-CC-PVTZ-JKFIT

    Orbital Energies [Eh]
    ---------------------

    Doubly Occupied:

       1A    -20.342545     2A    -20.257699     3A    -11.138349
       4A    -11.108999     5A    -11.105868     6A    -11.073734
       7A    -11.059787     8A     -1.296769     9A     -1.012005
      10A     -0.943501    11A     -0.845948    12A     -0.730291
      13A     -0.622831    14A     -0.542081    15A     -0.506270
      16A     -0.481434    17A     -0.466426    18A     -0.425375
      19A     -0.422569    20A     -0.402075    21A     -0.390767
      22A     -0.375140    23A     -0.345580    24A     -0.208043
      25A     -0.206214    26A     -0.171413    27A     -0.167832

  @DF-RHF Final Energy:  -343.21878556641377

   => Energetics <=

    Nuclear Repulsion Energy =            271.0872098732935456
    One-Electron Energy =               -1015.3129008879676576
    Two-Electron Energy =                 401.0069054482603406
    Total Energy =                       -343.2187855664137714
  Basis Set: (AUG-CC-PVTZ AUX)
    Blend: AUG-CC-PVTZ-RI
    Molecular point group: c1

    Geometry (in Angstrom), charge = -1, multiplicity = 1:

       Center              X                  Y                   Z               Mass
    ------------   -----------------  -----------------  -----------------  -----------------
         O            2.533050175969    -0.805874206183     0.281674947096    15.994914619570
         O            1.735190175969     1.296908793817    -0.061314052904    15.994914619570
         C           -2.265074824031    -0.346222206183    -0.499222052904    12.000000000000
         C           -3.206015824031     0.211907793817     0.573639947096    12.000000000000
         C           -0.871268824031     0.188467793817    -0.358239052904    12.000000000000
         C            0.223327175969    -0.545960206183    -0.108756052904    12.000000000000
         C            1.759891975969    -0.093645606183     0.085924447096    12.000000000000
         H           -2.245392824031    -1.441391206183    -0.444435052904     1.007825032230
         H           -2.664171824031    -0.085507206183    -1.489179052904     1.007825032230
         H           -2.855551824031    -0.064902206183     1.572259947096     1.007825032230
         H           -3.249019824031     1.304190793817     0.522778947096     1.007825032230
         H           -4.222923824031    -0.172723206183     0.448726947096     1.007825032230
         H           -0.742343824031     1.268367793817    -0.445762052904     1.007825032230
         H            0.142869175969    -1.630228206183    -0.010415052904     1.007825032230

  Basis Set: AUG-CC-PVTZ
    Blend: AUG-CC-PVTZ
  Basis Set: (AUG-CC-PVTZ AUX)
    Blend: AUG-CC-PVTZ-JKFIT
	 Reference Energy          =    -343.2187855664137714 [Eh]
	 Singles Energy            =      -0.0000000000000000 [Eh]
	 Same-Spin Energy          =      -0.3463930739354817 [Eh]
	 Opposite-Spin Energy      =      -1.1022450993313311 [Eh]
	 Correlation Energy        =      -1.4486381732668128 [Eh]
	 Total Energy              =    -344.6674237396806006 [Eh]

	 ================> DF-SCS-MP2 Energies <==================
	-----------------------------------------------------------
	 SCS Same-Spin Scale       =       0.3333333333333333 [-]
	 SCS Opposite-Spin Scale   =       1.2000000000000000 [-]
	 SCS Same-Spin Energy      =      -0.1154643579784939 [Eh]
	 SCS Opposite-Spin Energy  =      -1.3226941191975972 [Eh]
	 SCS Correlation Energy    =      -1.4381584771760911 [Eh]
	 SCS Total Energy          =    -344.6569440435898741 [Eh]
	-----------------------------------------------------------

  Dipole Moment: [D]
     X:    -8.1154      Y:    -2.7742      Z:    -0.2098     Total:     8.5790

*** Psi4 exiting successfully. Buy a developer a beer!
