                               Psi4 1.3.2 release

  ==> Input File <==

--------------------------------------------------------------------------
#psi4
#
memory 32 gb

molecule  {
-1 1
  O        2.6974490    -0.8132830     0.2843680
  O        1.9213333     1.2875493    -0.0550093
  C       -2.1006760    -0.3536310    -0.4965290
  C       -3.0416170     0.2044990     0.5763330
  C       -0.7068700     0.1810590    -0.3555460
  C        0.3977026    -0.5775814    -0.1020056
  C        1.7796780     0.0321620     0.0520040
  H       -2.0809940    -1.4488000    -0.4417420
  H       -2.4997730    -0.0929160    -1.4864860
  H       -2.6911530    -0.0723110     1.5749530
  H       -3.0846210     1.2967820     0.5254720
  H       -4.0585250    -0.1801320     0.4514200
  H       -0.5779450     1.2609590    -0.4430690
  H        0.3072680    -1.6376370    -0.0077220
units angstrom
no_reorient  #important for SAPT in psi4, default
symmetry c1  #important for SAPT in psi4, default
}

set PROPERTIES_ORIGIN ["COM"]
properties('MP2/aug-cc-pvtz', properties = ['dipole'])
--------------------------------------------------------------------------

    Molecular point group: c1
  Charge       = -1
  Multiplicity = 1
  Basis Set: AUG-CC-PVTZ
    Blend: AUG-CC-PVTZ
  Basis Set: (AUG-CC-PVTZ AUX)
    Blend: AUG-CC-PVTZ-JKFIT

    Orbital Energies [Eh]
    ---------------------

    Doubly Occupied:

       1A    -20.293213     2A    -20.291303     3A    -11.141330
       4A    -11.116185     5A    -11.114496     6A    -11.089797
       7A    -11.072455     8A     -1.161440     9A     -1.058928
      10A     -0.953623    11A     -0.860052    12A     -0.744769
      13A     -0.634244    14A     -0.549872    15A     -0.495376
      16A     -0.487518    17A     -0.445103    18A     -0.419716
      19A     -0.409338    20A     -0.383978    21A     -0.373642
      22A     -0.357100    23A     -0.353743    24A     -0.211314
      25A     -0.207434    26A     -0.200433    27A     -0.189991

  @DF-RHF Final Energy:  -343.28359992918882

   => Energetics <=

    Nuclear Repulsion Energy =            270.4711320792147262
    One-Electron Energy =               -1014.2766786567261761
    Two-Electron Energy =                 400.5219466483226256
    Total Energy =                       -343.2835999291888243
  Basis Set: (AUG-CC-PVTZ AUX)
    Blend: AUG-CC-PVTZ-RI
    Molecular point group: c1

    Geometry (in Angstrom), charge = -1, multiplicity = 1:

       Center              X                  Y                   Z               Mass
    ------------   -----------------  -----------------  -----------------  -----------------
         O            2.545850834671    -0.818765839472     0.285036103099    15.994914619570
         O            1.769735134671     1.282066460528    -0.054341196901    15.994914619570
         C           -2.252274165329    -0.359113839472    -0.495860896901    12.000000000000
         C           -3.193215165329     0.199016160528     0.577001103099    12.000000000000
         C           -0.858468165329     0.175576160528    -0.354877896901    12.000000000000
         C            0.246104434671    -0.583064239472    -0.101337496901    12.000000000000
         C            1.628079834671     0.026679160528     0.052672103099    12.000000000000
         H           -2.232592165329    -1.454282839472    -0.441073896901     1.007825032230
         H           -2.651371165329    -0.098398839472    -1.485817896901     1.007825032230
         H           -2.842751165329    -0.077793839472     1.575621103099     1.007825032230
         H           -3.236219165329     1.291299160528     0.526140103099     1.007825032230
         H           -4.210123165329    -0.185614839472     0.452088103099     1.007825032230
         H           -0.729543165329     1.255476160528    -0.442400896901     1.007825032230
         H            0.155669834671    -1.643119839472    -0.007053896901     1.007825032230

  Basis Set: AUG-CC-PVTZ
    Blend: AUG-CC-PVTZ
  Basis Set: (AUG-CC-PVTZ AUX)
    Blend: AUG-CC-PVTZ-JKFIT
	 Reference Energy          =    -343.2835999291888243 [Eh]
	 Singles Energy            =      -0.0000000000000000 [Eh]
	 Same-Spin Energy          =      -0.3482785550514624 [Eh]
	 Opposite-Spin Energy      =      -1.1060049656404782 [Eh]
	 Correlation Energy        =      -1.4542835206919407 [Eh]
	 Total Energy              =    -344.7378834498807691 [Eh]

	 ================> DF-SCS-MP2 Energies <==================
	-----------------------------------------------------------
	 SCS Same-Spin Scale       =       0.3333333333333333 [-]
	 SCS Opposite-Spin Scale   =       1.2000000000000000 [-]
	 SCS Same-Spin Energy      =      -0.1160928516838208 [Eh]
	 SCS Opposite-Spin Energy  =      -1.3272059587685738 [Eh]
	 SCS Correlation Energy    =      -1.4432988104523947 [Eh]
	 SCS Total Energy          =    -344.7268987396412285 [Eh]
	-----------------------------------------------------------

  Dipole Moment: [D]
     X:    -9.5754      Y:    -1.1925      Z:    -0.5847     Total:     9.6671

*** Psi4 exiting successfully. Buy a developer a beer!
