                               Psi4 1.3.2 release

  ==> Input File <==

--------------------------------------------------------------------------
#psi4
#
memory 32 gb

molecule  {
-1 1
  O        2.6974490    -0.8132830     0.2843680
  O        1.8995890     1.2895000    -0.0586210
  C       -2.1006760    -0.3536310    -0.4965290
  C       -3.0416170     0.2044990     0.5763330
  C       -0.7068700     0.1810590    -0.3555460
  C        0.3877260    -0.5533690    -0.1060630
  C        1.7796780     0.0321620     0.0520040
  H       -2.0809940    -1.4488000    -0.4417420
  H       -2.4997730    -0.0929160    -1.4864860
  H       -2.6911530    -0.0723110     1.5749530
  H       -3.0846210     1.2967820     0.5254720
  H       -4.0585250    -0.1801320     0.4514200
  H       -0.5779450     1.2609590    -0.4430690
  H        0.3072680    -1.6376370    -0.0077220
units angstrom
no_reorient  #important for SAPT in psi4, default
symmetry c1  #important for SAPT in psi4, default
}

set PROPERTIES_ORIGIN ["COM"]
properties('MP2/aug-cc-pvtz', properties = ['dipole'])
--------------------------------------------------------------------------

    Molecular point group: c1
  Charge       = -1
  Multiplicity = 1
  Basis Set: AUG-CC-PVTZ
    Blend: AUG-CC-PVTZ
  Basis Set: (AUG-CC-PVTZ AUX)
    Blend: AUG-CC-PVTZ-JKFIT

    Orbital Energies [Eh]
    ---------------------

    Doubly Occupied:

       1A    -20.295354     2A    -20.291659     3A    -11.142009
       4A    -11.115776     5A    -11.114000     6A    -11.085393
       7A    -11.070018     8A     -1.161815     9A     -1.061038
      10A     -0.954246    11A     -0.862363    12A     -0.743804
      13A     -0.632965    14A     -0.548965    15A     -0.494651
      16A     -0.486026    17A     -0.445947    18A     -0.419205
      19A     -0.408870    20A     -0.383009    21A     -0.375860
      22A     -0.357983    23A     -0.348832    24A     -0.211245
      25A     -0.209013    26A     -0.204674    27A     -0.191196

  @DF-RHF Final Energy:  -343.28572747513033

   => Energetics <=

    Nuclear Repulsion Energy =            270.8529696446530579
    One-Electron Energy =               -1015.0455644842488709
    Two-Electron Energy =                 400.9068673644654837
    Total Energy =                       -343.2857274751303294
  Basis Set: (AUG-CC-PVTZ AUX)
    Blend: AUG-CC-PVTZ-RI
    Molecular point group: c1

    Geometry (in Angstrom), charge = -1, multiplicity = 1:

       Center              X                  Y                   Z               Mass
    ------------   -----------------  -----------------  -----------------  -----------------
         O            2.550571106154    -0.822014376651     0.286110948455    15.994914619570
         O            1.752711106154     1.280768623349    -0.056878051545    15.994914619570
         C           -2.247553893846    -0.362362376651    -0.494786051545    12.000000000000
         C           -3.188494893846     0.195767623349     0.578075948455    12.000000000000
         C           -0.853747893846     0.172327623349    -0.353803051545    12.000000000000
         C            0.240848106154    -0.562100376651    -0.104320051545    12.000000000000
         C            1.632800106154     0.023430623349     0.053746948455    12.000000000000
         H           -2.227871893846    -1.457531376651    -0.439999051545     1.007825032230
         H           -2.646650893846    -0.101647376651    -1.484743051545     1.007825032230
         H           -2.838030893846    -0.081042376651     1.576695948455     1.007825032230
         H           -3.231498893846     1.288050623349     0.527214948455     1.007825032230
         H           -4.205402893846    -0.188863376651     0.453162948455     1.007825032230
         H           -0.724822893846     1.252227623349    -0.441326051545     1.007825032230
         H            0.160390106154    -1.646368376651    -0.005979051545     1.007825032230

  Basis Set: AUG-CC-PVTZ
    Blend: AUG-CC-PVTZ
  Basis Set: (AUG-CC-PVTZ AUX)
    Blend: AUG-CC-PVTZ-JKFIT
	 Reference Energy          =    -343.2857274751303294 [Eh]
	 Singles Energy            =      -0.0000000000000000 [Eh]
	 Same-Spin Energy          =      -0.3481421705437280 [Eh]
	 Opposite-Spin Energy      =      -1.1055630823547822 [Eh]
	 Correlation Energy        =      -1.4537052528985102 [Eh]
	 Total Energy              =    -344.7394327280288167 [Eh]

	 ================> DF-SCS-MP2 Energies <==================
	-----------------------------------------------------------
	 SCS Same-Spin Scale       =       0.3333333333333333 [-]
	 SCS Opposite-Spin Scale   =       1.2000000000000000 [-]
	 SCS Same-Spin Energy      =      -0.1160473901812427 [Eh]
	 SCS Opposite-Spin Energy  =      -1.3266756988257387 [Eh]
	 SCS Correlation Energy    =      -1.4427230890069813 [Eh]
	 SCS Total Energy          =    -344.7284505641372903 [Eh]
	-----------------------------------------------------------

  Dipole Moment: [D]
     X:    -9.5111      Y:    -1.1531      Z:    -0.5788     Total:     9.5982

*** Psi4 exiting successfully. Buy a developer a beer!
