                               Psi4 1.3.2 release

  ==> Input File <==

--------------------------------------------------------------------------
#psi4
#
memory 32 gb

molecule  {
-1 1
  O        2.6974490    -0.8132830     0.2843680
  O        1.8995890     1.2895000    -0.0586210
  C       -2.0718858    -0.4258267    -0.4854932
  C       -3.0416170     0.2044990     0.5763330
  C       -0.7068700     0.1810590    -0.3555460
  C        0.3877260    -0.5533690    -0.1060630
  C        1.7796780     0.0321620     0.0520040
  H       -2.0809940    -1.4488000    -0.4417420
  H       -2.4997730    -0.0929160    -1.4864860
  H       -2.6911530    -0.0723110     1.5749530
  H       -3.0846210     1.2967820     0.5254720
  H       -4.0585250    -0.1801320     0.4514200
  H       -0.5219582     1.2534524    -0.4345773
  H        0.3072680    -1.6376370    -0.0077220
units angstrom
no_reorient  #important for SAPT in psi4, default
symmetry c1  #important for SAPT in psi4, default
}

set PROPERTIES_ORIGIN ["COM"]
properties('MP2/aug-cc-pvtz', properties = ['dipole'])
--------------------------------------------------------------------------

    Molecular point group: c1
  Charge       = -1
  Multiplicity = 1
  Basis Set: AUG-CC-PVTZ
    Blend: AUG-CC-PVTZ
  Basis Set: (AUG-CC-PVTZ AUX)
    Blend: AUG-CC-PVTZ-JKFIT

    Orbital Energies [Eh]
    ---------------------

    Doubly Occupied:

       1A    -20.295079     2A    -20.292067     3A    -11.141466
       4A    -11.116924     5A    -11.114851     6A    -11.084688
       7A    -11.067507     8A     -1.161857     9A     -1.061154
      10A     -0.951802    11A     -0.859626    12A     -0.745476
      13A     -0.636633    14A     -0.548192    15A     -0.492236
      16A     -0.486937    17A     -0.446390    18A     -0.419056
      19A     -0.400875    20A     -0.387637    21A     -0.372167
      22A     -0.357073    23A     -0.356363    24A     -0.210572
      25A     -0.209385    26A     -0.202062    27A     -0.191436

  @DF-RHF Final Energy:  -343.27845560657209

   => Energetics <=

    Nuclear Repulsion Energy =            270.8251189471255884
    One-Electron Energy =               -1014.9881231587811499
    Two-Electron Energy =                 400.8845486050834666
    Total Energy =                       -343.2784556065720949
  Basis Set: (AUG-CC-PVTZ AUX)
    Blend: AUG-CC-PVTZ-RI
    Molecular point group: c1

    Geometry (in Angstrom), charge = -1, multiplicity = 1:

       Center              X                  Y                   Z               Mass
    ------------   -----------------  -----------------  -----------------  -----------------
         O            2.546513264733    -0.813190940543     0.284687471138    15.994914619570
         O            1.748653264733     1.289592059457    -0.058301528862    15.994914619570
         C           -2.222821535267    -0.425734640543    -0.485173728862    12.000000000000
         C           -3.192552735267     0.204591059457     0.576652471138    12.000000000000
         C           -0.857805735267     0.181151059457    -0.355226528862    12.000000000000
         C            0.236790264733    -0.553276940543    -0.105743528862    12.000000000000
         C            1.628742264733     0.032254059457     0.052323471138    12.000000000000
         H           -2.231929735267    -1.448707940543    -0.441422528862     1.007825032230
         H           -2.650708735267    -0.092823940543    -1.486166528862     1.007825032230
         H           -2.842088735267    -0.072218940543     1.575272471138     1.007825032230
         H           -3.235556735267     1.296874059457     0.525791471138     1.007825032230
         H           -4.209460735267    -0.180039940543     0.451739471138     1.007825032230
         H           -0.672893935267     1.253544459457    -0.434257828862     1.007825032230
         H            0.156332264733    -1.637544940543    -0.007402528862     1.007825032230

  Basis Set: AUG-CC-PVTZ
    Blend: AUG-CC-PVTZ
  Basis Set: (AUG-CC-PVTZ AUX)
    Blend: AUG-CC-PVTZ-JKFIT
	 Reference Energy          =    -343.2784556065720949 [Eh]
	 Singles Energy            =      -0.0000000000000000 [Eh]
	 Same-Spin Energy          =      -0.3482112503109711 [Eh]
	 Opposite-Spin Energy      =      -1.1056771891900086 [Eh]
	 Correlation Energy        =      -1.4538884395009797 [Eh]
	 Total Energy              =    -344.7323440460730808 [Eh]

	 ================> DF-SCS-MP2 Energies <==================
	-----------------------------------------------------------
	 SCS Same-Spin Scale       =       0.3333333333333333 [-]
	 SCS Opposite-Spin Scale   =       1.2000000000000000 [-]
	 SCS Same-Spin Energy      =      -0.1160704167703237 [Eh]
	 SCS Opposite-Spin Energy  =      -1.3268126270280103 [Eh]
	 SCS Correlation Energy    =      -1.4428830437983340 [Eh]
	 SCS Total Energy          =    -344.7213386503704555 [Eh]
	-----------------------------------------------------------

  Dipole Moment: [D]
     X:    -9.4619      Y:    -1.2304      Z:    -0.5604     Total:     9.5580

*** Psi4 exiting successfully. Buy a developer a beer!
