                               Psi4 1.4a3.dev225

  ==> Input File <==

--------------------------------------------------------------------------
#psi4
#
memory 32 gb

molecule  {
-1 1
  O        2.6993700    -0.8109490     0.2832770
  O        1.8994270     1.2905180    -0.0615170
  C       -2.1001690    -0.3616000    -0.4913260
  C       -3.0433460     0.2119310     0.5709670
  C       -0.7080250     0.1770830    -0.3546910
  C        0.3885780    -0.5541740    -0.1016640
  C        1.7798570     0.0330080     0.0518740
  H       -2.0812530    -1.4558260    -0.4203270
  H       -2.4968010    -0.1155520    -1.4857470
  H       -2.6986290    -0.0550030     1.5741980
  H       -3.0817280     1.3037570     0.5071410
  H       -4.0608920    -0.1705790     0.4451360
  H       -0.5864817     1.2069744    -0.4456273
  H        0.3081890    -1.6372690     0.0045550
units angstrom
no_reorient  #important for SAPT in psi4, default
symmetry c1  #important for SAPT in psi4, default
}

set PROPERTIES_ORIGIN ["COM"]
properties('MP2/aug-cc-pvtz', properties = ['dipole'])
--------------------------------------------------------------------------

    Molecular point group: c1
  Charge       = -1
  Multiplicity = 1
  Basis Set: AUG-CC-PVTZ
    Blend: AUG-CC-PVTZ
  Basis Set: (AUG-CC-PVTZ AUX)
    Blend: AUG-CC-PVTZ-JKFIT

    Orbital Energies [Eh]
    ---------------------

    Doubly Occupied:

       1A    -20.295261     2A    -20.291631     3A    -11.141923
       4A    -11.115829     5A    -11.113556     6A    -11.079757
       7A    -11.069751     8A     -1.161628     9A     -1.060773
      10A     -0.955337    11A     -0.863326    12A     -0.743726
      13A     -0.638975    14A     -0.551914    15A     -0.494739
      16A     -0.486900    17A     -0.446750    18A     -0.420322
      19A     -0.408913    20A     -0.382970    21A     -0.375611
      22A     -0.357826    23A     -0.353647    24A     -0.211218
      25A     -0.208893    26A     -0.204325    27A     -0.191053

  @DF-RHF Final Energy:  -343.28488206038827

   => Energetics <=

    Nuclear Repulsion Energy =            271.0614578328232938
    One-Electron Energy =               -1015.4395745462945797
    Two-Electron Energy =                 401.0932346530830159
    Total Energy =                       -343.2848820603882700
  Basis Set: (AUG-CC-PVTZ AUX)
    Blend: AUG-CC-PVTZ-RI
    Molecular point group: c1

    Geometry (in Angstrom), charge = -1, multiplicity = 1:

       Center              X                  Y                   Z               Mass
    ------------   -----------------  -----------------  -----------------  -----------------
         O            2.552491726456    -0.819176779949     0.284996586665    15.994914619570
         O            1.752548726456     1.282290220051    -0.059797413335    15.994914619570
         C           -2.247047273544    -0.369827779949    -0.489606413335    12.000000000000
         C           -3.190224273544     0.203703220051     0.572686586665    12.000000000000
         C           -0.854903273544     0.168855220051    -0.352971413335    12.000000000000
         C            0.241699726456    -0.562401779949    -0.099944413335    12.000000000000
         C            1.632978726456     0.024780220051     0.053593586665    12.000000000000
         H           -2.228131273544    -1.464053779949    -0.418607413335     1.007825032230
         H           -2.643679273544    -0.123779779949    -1.484027413335     1.007825032230
         H           -2.845507273544    -0.063230779949     1.575917586665     1.007825032230
         H           -3.228606273544     1.295529220051     0.508860586665     1.007825032230
         H           -4.207770273544    -0.178806779949     0.446855586665     1.007825032230
         H           -0.733359973544     1.198746620051    -0.443907713335     1.007825032230
         H            0.161310726456    -1.645496779949     0.006274586665     1.007825032230

  Basis Set: AUG-CC-PVTZ
    Blend: AUG-CC-PVTZ
  Basis Set: (AUG-CC-PVTZ AUX)
    Blend: AUG-CC-PVTZ-JKFIT
	 Reference Energy          =    -343.2848820603882700 [Eh]
	 Singles Energy            =      -0.0000000000000000 [Eh]
	 Same-Spin Energy          =      -0.3480203699307377 [Eh]
	 Opposite-Spin Energy      =      -1.1052814906730251 [Eh]
	 Correlation Energy        =      -1.4533018606037627 [Eh]
	 Total Energy              =    -344.7381839209920145 [Eh]

	 ================> DF-SCS-MP2 Energies <==================
	-----------------------------------------------------------
	 SCS Same-Spin Scale       =       0.3333333333333333 [-]
	 SCS Opposite-Spin Scale   =       1.2000000000000000 [-]
	 SCS Same-Spin Energy      =      -0.1160067899769126 [Eh]
	 SCS Opposite-Spin Energy  =      -1.3263377888076300 [Eh]
	 SCS Correlation Energy    =      -1.4423445787845426 [Eh]
	 SCS Total Energy          =    -344.7272266391728408 [Eh]
	-----------------------------------------------------------

  Dipole Moment: [D]
     X:    -9.5293      Y:    -1.1548      Z:    -0.5715     Total:     9.6160

*** Psi4 exiting successfully. Buy a developer a beer!
