                               Psi4 1.3.2 release

  ==> Input File <==

--------------------------------------------------------------------------
#psi4
#
memory 32 gb

molecule  {
-1 1
  O        2.6974490    -0.8132830     0.2843680
  O        1.8995890     1.2895000    -0.0586210
  C       -2.1093406    -0.3292963    -0.5007303
  C       -3.0416170     0.2044990     0.5763330
  C       -0.7068700     0.1810590    -0.3555460
  C        0.4006655    -0.5338600    -0.1065027
  C        1.7796780     0.0321620     0.0520040
  H       -2.0809940    -1.4488000    -0.4417420
  H       -2.4997730    -0.0929160    -1.4864860
  H       -2.6911530    -0.0723110     1.5749530
  H       -3.0846210     1.2967820     0.5254720
  H       -4.0585250    -0.1801320     0.4514200
  H       -0.5779450     1.2609590    -0.4430690
  H        0.3072680    -1.6376370    -0.0077220
units angstrom
no_reorient  #important for SAPT in psi4, default
symmetry c1  #important for SAPT in psi4, default
}

set PROPERTIES_ORIGIN ["COM"]
properties('MP2/aug-cc-pvtz', properties = ['dipole'])
--------------------------------------------------------------------------

    Molecular point group: c1
  Charge       = -1
  Multiplicity = 1
  Basis Set: AUG-CC-PVTZ
    Blend: AUG-CC-PVTZ
  Basis Set: (AUG-CC-PVTZ AUX)
    Blend: AUG-CC-PVTZ-JKFIT

    Orbital Energies [Eh]
    ---------------------

    Doubly Occupied:

       1A    -20.295601     2A    -20.291110     3A    -11.141016
       4A    -11.116175     5A    -11.115390     6A    -11.085895
       7A    -11.071749     8A     -1.162523     9A     -1.061235
      10A     -0.955489    11A     -0.864139    12A     -0.745169
      13A     -0.634191    14A     -0.549358    15A     -0.497696
      16A     -0.483659    17A     -0.446184    18A     -0.421017
      19A     -0.411827    20A     -0.380237    21A     -0.376925
      22A     -0.359332    23A     -0.341193    24A     -0.213396
      25A     -0.208743    26A     -0.205379    27A     -0.190967

  @DF-RHF Final Energy:  -343.28375870228899

   => Energetics <=

    Nuclear Repulsion Energy =            271.0872517740635317
    One-Electron Energy =               -1015.4908333293021769
    Two-Electron Energy =                 401.1198228529495964
    Total Energy =                       -343.2837587022889920
  Basis Set: (AUG-CC-PVTZ AUX)
    Blend: AUG-CC-PVTZ-RI
    Molecular point group: c1

    Geometry (in Angstrom), charge = -1, multiplicity = 1:

       Center              X                  Y                   Z               Mass
    ------------   -----------------  -----------------  -----------------  -----------------
         O            2.550053169813    -0.827326371210     0.286673240569    15.994914619570
         O            1.752193169813     1.275456628790    -0.056315759431    15.994914619570
         C           -2.256736430187    -0.343339671210    -0.498425059431    12.000000000000
         C           -3.189012830187     0.190455628790     0.578638240569    12.000000000000
         C           -0.854265830187     0.167015628790    -0.353240759431    12.000000000000
         C            0.253269669813    -0.547903371210    -0.104197459431    12.000000000000
         C            1.632282169813     0.018118628790     0.054309240569    12.000000000000
         H           -2.228389830187    -1.462843371210    -0.439436759431     1.007825032230
         H           -2.647168830187    -0.106959371210    -1.484180759431     1.007825032230
         H           -2.838548830187    -0.086354371210     1.577258240569     1.007825032230
         H           -3.232016830187     1.282738628790     0.527777240569     1.007825032230
         H           -4.205920830187    -0.194175371210     0.453725240569     1.007825032230
         H           -0.725340830187     1.246915628790    -0.440763759431     1.007825032230
         H            0.159872169813    -1.651680371210    -0.005416759431     1.007825032230

  Basis Set: AUG-CC-PVTZ
    Blend: AUG-CC-PVTZ
  Basis Set: (AUG-CC-PVTZ AUX)
    Blend: AUG-CC-PVTZ-JKFIT
	 Reference Energy          =    -343.2837587022889920 [Eh]
	 Singles Energy            =      -0.0000000000000000 [Eh]
	 Same-Spin Energy          =      -0.3483800622972762 [Eh]
	 Opposite-Spin Energy      =      -1.1060116786001415 [Eh]
	 Correlation Energy        =      -1.4543917408974179 [Eh]
	 Total Energy              =    -344.7381504431863846 [Eh]

	 ================> DF-SCS-MP2 Energies <==================
	-----------------------------------------------------------
	 SCS Same-Spin Scale       =       0.3333333333333333 [-]
	 SCS Opposite-Spin Scale   =       1.2000000000000000 [-]
	 SCS Same-Spin Energy      =      -0.1161266874324254 [Eh]
	 SCS Opposite-Spin Energy  =      -1.3272140143201698 [Eh]
	 SCS Correlation Energy    =      -1.4433407017525952 [Eh]
	 SCS Total Energy          =    -344.7270994040416099 [Eh]
	-----------------------------------------------------------

  Dipole Moment: [D]
     X:    -9.5330      Y:    -1.1037      Z:    -0.5835     Total:     9.6144

*** Psi4 exiting successfully. Buy a developer a beer!
