                               Psi4 1.3.2 release

  ==> Input File <==

--------------------------------------------------------------------------
#psi4
#
memory 32 gb

molecule  {
-1 1
  O        2.6974490    -0.8132830     0.2843680
  O        1.8995890     1.2895000    -0.0586210
  C       -2.1006760    -0.3536310    -0.4965290
  C       -3.0416170     0.2044990     0.5763330
  C       -0.7068700     0.1810590    -0.3555460
  C        0.3877260    -0.5533690    -0.1060630
  C        1.6880022    -0.0064018     0.0415935
  H       -2.0809940    -1.4488000    -0.4417420
  H       -2.4997730    -0.0929160    -1.4864860
  H       -2.6911530    -0.0723110     1.5749530
  H       -3.0846210     1.2967820     0.5254720
  H       -4.0585250    -0.1801320     0.4514200
  H       -0.5779450     1.2609590    -0.4430690
  H        0.3072680    -1.6376370    -0.0077220
units angstrom
no_reorient  #important for SAPT in psi4, default
symmetry c1  #important for SAPT in psi4, default
}

set PROPERTIES_ORIGIN ["COM"]
properties('MP2/aug-cc-pvtz', properties = ['dipole'])
--------------------------------------------------------------------------

    Molecular point group: c1
  Charge       = -1
  Multiplicity = 1
  Basis Set: AUG-CC-PVTZ
    Blend: AUG-CC-PVTZ
  Basis Set: (AUG-CC-PVTZ AUX)
    Blend: AUG-CC-PVTZ-JKFIT

    Orbital Energies [Eh]
    ---------------------

    Doubly Occupied:

       1A    -20.292326     2A    -20.286091     3A    -11.141640
       4A    -11.121256     5A    -11.120596     6A    -11.098216
       7A    -11.073883     8A     -1.134649     9A     -1.026997
      10A     -0.962919    11A     -0.877505    12A     -0.759050
      13A     -0.652776    14A     -0.562920    15A     -0.499660
      16A     -0.494356    17A     -0.438754    18A     -0.425620
      19A     -0.413382    20A     -0.385492    21A     -0.364083
      22A     -0.345604    23A     -0.344412    24A     -0.220174
      25A     -0.207735    26A     -0.191985    27A     -0.176443

  @DF-RHF Final Energy:  -343.26368424691373

   => Energetics <=

    Nuclear Repulsion Energy =            270.9187713865972000
    One-Electron Energy =               -1015.1278640819756447
    Two-Electron Energy =                 400.9454084484647183
    Total Energy =                       -343.2636842469137264
  Basis Set: (AUG-CC-PVTZ AUX)
    Blend: AUG-CC-PVTZ-RI
    Molecular point group: c1

    Geometry (in Angstrom), charge = -1, multiplicity = 1:

       Center              X                  Y                   Z               Mass
    ------------   -----------------  -----------------  -----------------  -----------------
         O            2.561678319979    -0.817342081754     0.287372258960    15.994914619570
         O            1.763818319979     1.285440918246    -0.055616741040    15.994914619570
         C           -2.236446680021    -0.357690081754    -0.493524741040    12.000000000000
         C           -3.177387680021     0.200439918246     0.579337258960    12.000000000000
         C           -0.842640680021     0.176999918246    -0.352541741040    12.000000000000
         C            0.251955319979    -0.557428081754    -0.103058741040    12.000000000000
         C            1.552231519979    -0.010460881754     0.044597758960    12.000000000000
         H           -2.216764680021    -1.452859081754    -0.438737741040     1.007825032230
         H           -2.635543680021    -0.096975081754    -1.483481741040     1.007825032230
         H           -2.826923680021    -0.076370081754     1.577957258960     1.007825032230
         H           -3.220391680021     1.292722918246     0.528476258960     1.007825032230
         H           -4.194295680021    -0.184191081754     0.454424258960     1.007825032230
         H           -0.713715680021     1.256899918246    -0.440064741040     1.007825032230
         H            0.171497319979    -1.641696081754    -0.004717741040     1.007825032230

  Basis Set: AUG-CC-PVTZ
    Blend: AUG-CC-PVTZ
  Basis Set: (AUG-CC-PVTZ AUX)
    Blend: AUG-CC-PVTZ-JKFIT
	 Reference Energy          =    -343.2636842469137264 [Eh]
	 Singles Energy            =      -0.0000000000000000 [Eh]
	 Same-Spin Energy          =      -0.3508279431734548 [Eh]
	 Opposite-Spin Energy      =      -1.1112381546692496 [Eh]
	 Correlation Energy        =      -1.4620660978427042 [Eh]
	 Total Energy              =    -344.7257503447564204 [Eh]

	 ================> DF-SCS-MP2 Energies <==================
	-----------------------------------------------------------
	 SCS Same-Spin Scale       =       0.3333333333333333 [-]
	 SCS Opposite-Spin Scale   =       1.2000000000000000 [-]
	 SCS Same-Spin Energy      =      -0.1169426477244849 [Eh]
	 SCS Opposite-Spin Energy  =      -1.3334857856030995 [Eh]
	 SCS Correlation Energy    =      -1.4504284333275845 [Eh]
	 SCS Total Energy          =    -344.7141126802413282 [Eh]
	-----------------------------------------------------------

  Dipole Moment: [D]
     X:   -10.1213      Y:    -1.3401      Z:    -0.6361     Total:    10.2294

*** Psi4 exiting successfully. Buy a developer a beer!
