                               Psi4 1.3.2 release

  ==> Input File <==

--------------------------------------------------------------------------
#psi4
#
memory 32 gb

molecule  {
-1 1
  O        2.7409151    -0.7630441     0.2859789
  O        1.8995890     1.2895000    -0.0586210
  C       -2.1006760    -0.3536310    -0.4965290
  C       -3.0416170     0.2044990     0.5763330
  C       -0.7068700     0.1810590    -0.3555460
  C        0.3603662    -0.4797008    -0.1180330
  C        1.7796780     0.0321620     0.0520040
  H       -2.0809940    -1.4488000    -0.4417420
  H       -2.4997730    -0.0929160    -1.4864860
  H       -2.6911530    -0.0723110     1.5749530
  H       -3.0846210     1.2967820     0.5254720
  H       -4.0585250    -0.1801320     0.4514200
  H       -0.5779450     1.2609590    -0.4430690
  H        0.3072680    -1.6376370    -0.0077220
units angstrom
no_reorient  #important for SAPT in psi4, default
symmetry c1  #important for SAPT in psi4, default
}

set PROPERTIES_ORIGIN ["COM"]
properties('MP2/aug-cc-pvtz', properties = ['dipole'])
--------------------------------------------------------------------------

    Molecular point group: c1
  Charge       = -1
  Multiplicity = 1
  Basis Set: AUG-CC-PVTZ
    Blend: AUG-CC-PVTZ
  Basis Set: (AUG-CC-PVTZ AUX)
    Blend: AUG-CC-PVTZ-JKFIT

    Orbital Energies [Eh]
    ---------------------

    Doubly Occupied:

       1A    -20.295965     2A    -20.287372     3A    -11.141892
       4A    -11.117130     5A    -11.115970     6A    -11.078000
       7A    -11.070315     8A     -1.162517     9A     -1.056497
      10A     -0.960983    11A     -0.874388    12A     -0.745131
      13A     -0.634000    14A     -0.550761    15A     -0.498287
      16A     -0.481560    17A     -0.447386    18A     -0.419870
      19A     -0.409606    20A     -0.382720    21A     -0.378728
      22A     -0.358302    23A     -0.334476    24A     -0.222416
      25A     -0.214162    26A     -0.202948    27A     -0.187803

  @DF-RHF Final Energy:  -343.27663135979759

   => Energetics <=

    Nuclear Repulsion Energy =            271.4994783462105374
    One-Electron Energy =               -1016.2938472548888740
    Two-Electron Energy =                 401.5177375488806888
    Total Energy =                       -343.2766313597975909
  Basis Set: (AUG-CC-PVTZ AUX)
    Blend: AUG-CC-PVTZ-RI
    Molecular point group: c1

    Geometry (in Angstrom), charge = -1, multiplicity = 1:

       Center              X                  Y                   Z               Mass
    ------------   -----------------  -----------------  -----------------  -----------------
         O            2.590332623150    -0.788814116214     0.288911956616    15.994914619570
         O            1.749006523150     1.263729983786    -0.055687943384    15.994914619570
         C           -2.251258476850    -0.379401016214    -0.493595943384    12.000000000000
         C           -3.192199476850     0.178728983786     0.579266056616    12.000000000000
         C           -0.857452476850     0.155288983786    -0.352612943384    12.000000000000
         C            0.209783723150    -0.505470816214    -0.115099943384    12.000000000000
         C            1.629095523150     0.006391983786     0.054937056616    12.000000000000
         H           -2.231576476850    -1.474570016214    -0.438808943384     1.007825032230
         H           -2.650355476850    -0.118686016214    -1.483552943384     1.007825032230
         H           -2.841735476850    -0.098081016214     1.577886056616     1.007825032230
         H           -3.235203476850     1.271011983786     0.528405056616     1.007825032230
         H           -4.209107476850    -0.205902016214     0.454353056616     1.007825032230
         H           -0.728527476850     1.235188983786    -0.440135943384     1.007825032230
         H            0.156685523150    -1.663407016214    -0.004788943384     1.007825032230

  Basis Set: AUG-CC-PVTZ
    Blend: AUG-CC-PVTZ
  Basis Set: (AUG-CC-PVTZ AUX)
    Blend: AUG-CC-PVTZ-JKFIT
	 Reference Energy          =    -343.2766313597975909 [Eh]
	 Singles Energy            =      -0.0000000000000000 [Eh]
	 Same-Spin Energy          =      -0.3479364052239924 [Eh]
	 Opposite-Spin Energy      =      -1.1048975102240584 [Eh]
	 Correlation Energy        =      -1.4528339154480507 [Eh]
	 Total Energy              =    -344.7294652752456159 [Eh]

	 ================> DF-SCS-MP2 Energies <==================
	-----------------------------------------------------------
	 SCS Same-Spin Scale       =       0.3333333333333333 [-]
	 SCS Opposite-Spin Scale   =       1.2000000000000000 [-]
	 SCS Same-Spin Energy      =      -0.1159788017413308 [Eh]
	 SCS Opposite-Spin Energy  =      -1.3258770122688699 [Eh]
	 SCS Correlation Energy    =      -1.4418558140102007 [Eh]
	 SCS Total Energy          =    -344.7184871738077732 [Eh]
	-----------------------------------------------------------

  Dipole Moment: [D]
     X:    -9.6631      Y:    -1.1182      Z:    -0.5958     Total:     9.7459

*** Psi4 exiting successfully. Buy a developer a beer!
