                               Psi4 1.3.2 release

  ==> Input File <==

--------------------------------------------------------------------------
#psi4
#
memory 32 gb

molecule  {
-1 1
  O        2.6974490    -0.8132830     0.2843680
  O        1.8995890     1.2895000    -0.0586210
  C       -2.1006760    -0.3536310    -0.4965290
  C       -3.0416170     0.2044990     0.5763330
  C       -0.6801424     0.2195073    -0.3552337
  C        0.3877260    -0.5533690    -0.1060630
  C        1.7796780     0.0321620     0.0520040
  H       -2.0809940    -1.4488000    -0.4417420
  H       -2.4997730    -0.0929160    -1.4864860
  H       -2.6911530    -0.0723110     1.5749530
  H       -3.0846210     1.2967820     0.5254720
  H       -4.0585250    -0.1801320     0.4514200
  H       -0.5779450     1.2609590    -0.4430690
  H        0.3448428    -1.6391988    -0.0015821
units angstrom
no_reorient  #important for SAPT in psi4, default
symmetry c1  #important for SAPT in psi4, default
}

set PROPERTIES_ORIGIN ["COM"]
properties('MP2/aug-cc-pvtz', properties = ['dipole'])
--------------------------------------------------------------------------

    Molecular point group: c1
  Charge       = -1
  Multiplicity = 1
  Basis Set: AUG-CC-PVTZ
    Blend: AUG-CC-PVTZ
  Basis Set: (AUG-CC-PVTZ AUX)
    Blend: AUG-CC-PVTZ-JKFIT

    Orbital Energies [Eh]
    ---------------------

    Doubly Occupied:

       1A    -20.294739     2A    -20.290526     3A    -11.139865
       4A    -11.115090     5A    -11.114486     6A    -11.084993
       7A    -11.070136     8A     -1.161159     9A     -1.060379
      10A     -0.948736    11A     -0.862611    12A     -0.739391
      13A     -0.639107    14A     -0.547613    15A     -0.491773
      16A     -0.485654    17A     -0.446960    18A     -0.422129
      19A     -0.406466    20A     -0.382092    21A     -0.371951
      22A     -0.357524    23A     -0.353131    24A     -0.209491
      25A     -0.207877    26A     -0.205369    27A     -0.190672

  @DF-RHF Final Energy:  -343.28381853702410

   => Energetics <=

    Nuclear Repulsion Energy =            270.7137134003078813
    One-Electron Energy =               -1014.7952242915234820
    Two-Electron Energy =                 400.7976923541915539
    Total Energy =                       -343.2838185370241035
  Basis Set: (AUG-CC-PVTZ AUX)
    Blend: AUG-CC-PVTZ-RI
    Molecular point group: c1

    Geometry (in Angstrom), charge = -1, multiplicity = 1:

       Center              X                  Y                   Z               Mass
    ------------   -----------------  -----------------  -----------------  -----------------
         O            2.546950514947    -0.826656785810     0.286010634612    15.994914619570
         O            1.749090514947     1.276126214190    -0.056978365388    15.994914619570
         C           -2.251174485053    -0.367004785810    -0.494886365388    12.000000000000
         C           -3.192115485053     0.191125214190     0.577975634612    12.000000000000
         C           -0.830640885053     0.206133514190    -0.353591065388    12.000000000000
         C            0.237227514947    -0.566742785810    -0.104420365388    12.000000000000
         C            1.629179514947     0.018788214190     0.053646634612    12.000000000000
         H           -2.231492485053    -1.462173785810    -0.440099365388     1.007825032230
         H           -2.650271485053    -0.106289785810    -1.484843365388     1.007825032230
         H           -2.841651485053    -0.085684785810     1.576595634612     1.007825032230
         H           -3.235119485053     1.283408214190     0.527114634612     1.007825032230
         H           -4.209023485053    -0.193505785810     0.453062634612     1.007825032230
         H           -0.728443485053     1.247585214190    -0.441426365388     1.007825032230
         H            0.194344314947    -1.652572585810     0.000060534612     1.007825032230

  Basis Set: AUG-CC-PVTZ
    Blend: AUG-CC-PVTZ
  Basis Set: (AUG-CC-PVTZ AUX)
    Blend: AUG-CC-PVTZ-JKFIT
	 Reference Energy          =    -343.2838185370241035 [Eh]
	 Singles Energy            =      -0.0000000000000000 [Eh]
	 Same-Spin Energy          =      -0.3477163129324625 [Eh]
	 Opposite-Spin Energy      =      -1.1051812803636387 [Eh]
	 Correlation Energy        =      -1.4528975932961012 [Eh]
	 Total Energy              =    -344.7367161303201897 [Eh]

	 ================> DF-SCS-MP2 Energies <==================
	-----------------------------------------------------------
	 SCS Same-Spin Scale       =       0.3333333333333333 [-]
	 SCS Opposite-Spin Scale   =       1.2000000000000000 [-]
	 SCS Same-Spin Energy      =      -0.1159054376441542 [Eh]
	 SCS Opposite-Spin Energy  =      -1.3262175364363664 [Eh]
	 SCS Correlation Energy    =      -1.4421229740805206 [Eh]
	 SCS Total Energy          =    -344.7259415111046224 [Eh]
	-----------------------------------------------------------

  Dipole Moment: [D]
     X:    -9.4788      Y:    -1.1362      Z:    -0.5799     Total:     9.5642

*** Psi4 exiting successfully. Buy a developer a beer!
