                               Psi4 1.4a3.dev225

  ==> Input File <==

--------------------------------------------------------------------------
#psi4
#
memory 32 gb

molecule  {
-1 1
  O        2.6993700    -0.8109490     0.2832770
  O        1.8994270     1.2905180    -0.0615170
  C       -2.1001690    -0.3616000    -0.4913260
  C       -3.0433460     0.2119310     0.5709670
  C       -0.7080250     0.1770830    -0.3546910
  C        0.3885780    -0.5541740    -0.1016640
  C        1.8256861     0.0523499     0.0569316
  H       -2.0812530    -1.4558260    -0.4203270
  H       -2.4968010    -0.1155520    -1.4857470
  H       -2.6986290    -0.0550030     1.5741980
  H       -3.0817280     1.3037570     0.5071410
  H       -4.0608920    -0.1705790     0.4451360
  H       -0.5806440     1.2564400    -0.4499950
  H        0.3081890    -1.6372690     0.0045550
units angstrom
no_reorient  #important for SAPT in psi4, default
symmetry c1  #important for SAPT in psi4, default
}

set PROPERTIES_ORIGIN ["COM"]
properties('MP2/aug-cc-pvtz', properties = ['dipole'])
--------------------------------------------------------------------------

    Molecular point group: c1
  Charge       = -1
  Multiplicity = 1
  Basis Set: AUG-CC-PVTZ
    Blend: AUG-CC-PVTZ
  Basis Set: (AUG-CC-PVTZ AUX)
    Blend: AUG-CC-PVTZ-JKFIT

    Orbital Energies [Eh]
    ---------------------

    Doubly Occupied:

       1A    -20.297872     2A    -20.295346     3A    -11.143140
       4A    -11.113009     5A    -11.110436     6A    -11.079178
       7A    -11.065902     8A     -1.175384     9A     -1.078768
      10A     -0.950112    11A     -0.855461    12A     -0.737005
      13A     -0.623890    14A     -0.542149    15A     -0.492916
      16A     -0.481960    17A     -0.449476    18A     -0.417693
      19A     -0.406499    20A     -0.387766    21A     -0.377084
      22A     -0.366805    23A     -0.346906    24A     -0.218555
      25A     -0.203282    26A     -0.202287    27A     -0.198249

  @DF-RHF Final Energy:  -343.28781788816008

   => Energetics <=

    Nuclear Repulsion Energy =            270.8223868534470284
    One-Electron Energy =               -1014.9861543622419049
    Two-Electron Energy =                 400.8759496206347990
    Total Energy =                       -343.2878178881600775
  Basis Set: (AUG-CC-PVTZ AUX)
    Blend: AUG-CC-PVTZ-RI
    Molecular point group: c1

    Geometry (in Angstrom), charge = -1, multiplicity = 1:

       Center              X                  Y                   Z               Mass
    ------------   -----------------  -----------------  -----------------  -----------------
         O            2.546879784410    -0.822023532394     0.284428263707    15.994914619570
         O            1.746936784410     1.279443467606    -0.060365736293    15.994914619570
         C           -2.252659215590    -0.372674532394    -0.490174736293    12.000000000000
         C           -3.195836215590     0.200856467606     0.572118263707    12.000000000000
         C           -0.860515215590     0.166008467606    -0.353539736293    12.000000000000
         C            0.236087784410    -0.565248532394    -0.100512736293    12.000000000000
         C            1.673195884410     0.041275367606     0.058082863707    12.000000000000
         H           -2.233743215590    -1.466900532394    -0.419175736293     1.007825032230
         H           -2.649291215590    -0.126626532394    -1.484595736293     1.007825032230
         H           -2.851119215590    -0.066077532394     1.575349263707     1.007825032230
         H           -3.234218215590     1.292682467606     0.508292263707     1.007825032230
         H           -4.213382215590    -0.181653532394     0.446287263707     1.007825032230
         H           -0.733134215590     1.245365467606    -0.448843736293     1.007825032230
         H            0.155698784410    -1.648343532394     0.005706263707     1.007825032230

  Basis Set: AUG-CC-PVTZ
    Blend: AUG-CC-PVTZ
  Basis Set: (AUG-CC-PVTZ AUX)
    Blend: AUG-CC-PVTZ-JKFIT
	 Reference Energy          =    -343.2878178881600775 [Eh]
	 Singles Energy            =      -0.0000000000000000 [Eh]
	 Same-Spin Energy          =      -0.3473174971607628 [Eh]
	 Opposite-Spin Energy      =      -1.1036383576320050 [Eh]
	 Correlation Energy        =      -1.4509558547927679 [Eh]
	 Total Energy              =    -344.7387737429528443 [Eh]

	 ================> DF-SCS-MP2 Energies <==================
	-----------------------------------------------------------
	 SCS Same-Spin Scale       =       0.3333333333333333 [-]
	 SCS Opposite-Spin Scale   =       1.2000000000000000 [-]
	 SCS Same-Spin Energy      =      -0.1157724990535876 [Eh]
	 SCS Opposite-Spin Energy  =      -1.3243660291584061 [Eh]
	 SCS Correlation Energy    =      -1.4401385282119936 [Eh]
	 SCS Total Energy          =    -344.7279564163720806 [Eh]
	-----------------------------------------------------------

  Dipole Moment: [D]
     X:    -9.1433      Y:    -1.0566      Z:    -0.5333     Total:     9.2196

*** Psi4 exiting successfully. Buy a developer a beer!
