                               Psi4 1.3.2 release

  ==> Input File <==

--------------------------------------------------------------------------
#psi4
#
memory 32 gb

molecule  {
-1 1
  O        2.7267134    -0.7800395     0.2855130
  O        1.8995890     1.2895000    -0.0586210
  C       -2.1006760    -0.3536310    -0.4965290
  C       -3.0416170     0.2044990     0.5763330
  C       -0.7068700     0.1810590    -0.3555460
  C        0.3690574    -0.5044228    -0.1140932
  C        1.7796780     0.0321620     0.0520040
  H       -2.0809940    -1.4488000    -0.4417420
  H       -2.4997730    -0.0929160    -1.4864860
  H       -2.6911530    -0.0723110     1.5749530
  H       -3.0846210     1.2967820     0.5254720
  H       -4.0585250    -0.1801320     0.4514200
  H       -0.5779450     1.2609590    -0.4430690
  H        0.3072680    -1.6376370    -0.0077220
units angstrom
no_reorient  #important for SAPT in psi4, default
symmetry c1  #important for SAPT in psi4, default
}

set PROPERTIES_ORIGIN ["COM"]
properties('MP2/aug-cc-pvtz', properties = ['dipole'])
--------------------------------------------------------------------------

    Molecular point group: c1
  Charge       = -1
  Multiplicity = 1
  Basis Set: AUG-CC-PVTZ
    Blend: AUG-CC-PVTZ
  Basis Set: (AUG-CC-PVTZ AUX)
    Blend: AUG-CC-PVTZ-JKFIT

    Orbital Energies [Eh]
    ---------------------

    Doubly Occupied:

       1A    -20.295710     2A    -20.288707     3A    -11.141775
       4A    -11.116679     5A    -11.115305     6A    -11.080426
       7A    -11.070105     8A     -1.162136     9A     -1.057892
      10A     -0.958560    11A     -0.870363    12A     -0.744633
      13A     -0.633506    14A     -0.549955    15A     -0.496765
      16A     -0.483184    17A     -0.446897    18A     -0.419479
      19A     -0.409469    20A     -0.382162    21A     -0.378359
      22A     -0.358050    23A     -0.339821    24A     -0.216451
      25A     -0.213436    26A     -0.204941    27A     -0.188852

  @DF-RHF Final Energy:  -343.28209107518273

   => Energetics <=

    Nuclear Repulsion Energy =            271.2718689696286560
    One-Electron Energy =               -1015.8606810863717556
    Two-Electron Energy =                 401.3067210415604222
    Total Energy =                       -343.2820910751827341
  Basis Set: (AUG-CC-PVTZ AUX)
    Blend: AUG-CC-PVTZ-RI
    Molecular point group: c1

    Geometry (in Angstrom), charge = -1, multiplicity = 1:

       Center              X                  Y                   Z               Mass
    ------------   -----------------  -----------------  -----------------  -----------------
         O            2.577371380211    -0.800069637954     0.288043959303    15.994914619570
         O            1.750246980211     1.269469862046    -0.056090040697    15.994914619570
         C           -2.250018019789    -0.373661137954    -0.493998040697    12.000000000000
         C           -3.190959019789     0.184468862046     0.578863959303    12.000000000000
         C           -0.856212019789     0.161028862046    -0.353015040697    12.000000000000
         C            0.219715380211    -0.524452937954    -0.111562240697    12.000000000000
         C            1.630335980211     0.012131862046     0.054534959303    12.000000000000
         H           -2.230336019789    -1.468830137954    -0.439211040697     1.007825032230
         H           -2.649115019789    -0.112946137954    -1.483955040697     1.007825032230
         H           -2.840495019789    -0.092341137954     1.577483959303     1.007825032230
         H           -3.233963019789     1.276751862046     0.528002959303     1.007825032230
         H           -4.207867019789    -0.200162137954     0.453950959303     1.007825032230
         H           -0.727287019789     1.240928862046    -0.440538040697     1.007825032230
         H            0.157925980211    -1.657667137954    -0.005191040697     1.007825032230

  Basis Set: AUG-CC-PVTZ
    Blend: AUG-CC-PVTZ
  Basis Set: (AUG-CC-PVTZ AUX)
    Blend: AUG-CC-PVTZ-JKFIT
	 Reference Energy          =    -343.2820910751827341 [Eh]
	 Singles Energy            =      -0.0000000000000000 [Eh]
	 Same-Spin Energy          =      -0.3479394318832707 [Eh]
	 Opposite-Spin Energy      =      -1.1049825728654032 [Eh]
	 Correlation Energy        =      -1.4529220047486739 [Eh]
	 Total Energy              =    -344.7350130799314343 [Eh]

	 ================> DF-SCS-MP2 Energies <==================
	-----------------------------------------------------------
	 SCS Same-Spin Scale       =       0.3333333333333333 [-]
	 SCS Opposite-Spin Scale   =       1.2000000000000000 [-]
	 SCS Same-Spin Energy      =      -0.1159798106277569 [Eh]
	 SCS Opposite-Spin Energy  =      -1.3259790874384838 [Eh]
	 SCS Correlation Energy    =      -1.4419588980662408 [Eh]
	 SCS Total Energy          =    -344.7240499732489525 [Eh]
	-----------------------------------------------------------

  Dipole Moment: [D]
     X:    -9.6181      Y:    -1.1345      Z:    -0.5905     Total:     9.7027

*** Psi4 exiting successfully. Buy a developer a beer!
