                               Psi4 1.3.2 release

  ==> Input File <==

--------------------------------------------------------------------------
#psi4
#
memory 32 gb

molecule  {
-1 1
  O        2.7267044    -0.7800336     0.2855700
  O        1.9430253     1.2852222    -0.0513071
  C       -2.1006760    -0.3536310    -0.4965290
  C       -3.0416170     0.2044990     0.5763330
  C       -0.7068700     0.1810590    -0.3555460
  C        0.3877260    -0.5533690    -0.1060630
  C        1.7796780     0.0321620     0.0520040
  H       -2.0809940    -1.4488000    -0.4417420
  H       -2.4997730    -0.0929160    -1.4864860
  H       -2.6911530    -0.0723110     1.5749530
  H       -3.0846210     1.2967820     0.5254720
  H       -4.0585250    -0.1801320     0.4514200
  H       -0.5779450     1.2609590    -0.4430690
  H        0.3072680    -1.6376370    -0.0077220
units angstrom
no_reorient  #important for SAPT in psi4, default
symmetry c1  #important for SAPT in psi4, default
}

set PROPERTIES_ORIGIN ["COM"]
properties('MP2/aug-cc-pvtz', properties = ['dipole'])
--------------------------------------------------------------------------

    Molecular point group: c1
  Charge       = -1
  Multiplicity = 1
  Basis Set: AUG-CC-PVTZ
    Blend: AUG-CC-PVTZ
  Basis Set: (AUG-CC-PVTZ AUX)
    Blend: AUG-CC-PVTZ-JKFIT

    Orbital Energies [Eh]
    ---------------------

    Doubly Occupied:

       1A    -20.291164     2A    -20.287627     3A    -11.139990
       4A    -11.117481     5A    -11.116226     6A    -11.089201
       7A    -11.074585     8A     -1.161131     9A     -1.053078
      10A     -0.956845    11A     -0.865476    12A     -0.746305
      13A     -0.635615    14A     -0.550929    15A     -0.495885
      16A     -0.488262    17A     -0.445054    18A     -0.420192
      19A     -0.410575    20A     -0.383575    21A     -0.374076
      22A     -0.355906    23A     -0.351436    24A     -0.213957
      25A     -0.207701    26A     -0.201501    27A     -0.186054

  @DF-RHF Final Energy:  -343.28393654735243

   => Energetics <=

    Nuclear Repulsion Energy =            270.4963838564237903
    One-Electron Energy =               -1014.3209899507164664
    Two-Electron Energy =                 400.5406695469402507
    Total Energy =                       -343.2839365473524254
  Basis Set: (AUG-CC-PVTZ AUX)
    Blend: AUG-CC-PVTZ-RI
    Molecular point group: c1

    Geometry (in Angstrom), charge = -1, multiplicity = 1:

       Center              X                  Y                   Z               Mass
    ------------   -----------------  -----------------  -----------------  -----------------
         O            2.568087375675    -0.793443659260     0.285937698444    15.994914619570
         O            1.784408275675     1.271812140740    -0.050939401556    15.994914619570
         C           -2.259293024325    -0.367041059260    -0.496161301556    12.000000000000
         C           -3.200234024325     0.191088940740     0.576700698444    12.000000000000
         C           -0.865487024325     0.167648940740    -0.355178301556    12.000000000000
         C            0.229108975675    -0.566779059260    -0.105695301556    12.000000000000
         C            1.621060975675     0.018751940740     0.052371698444    12.000000000000
         H           -2.239611024325    -1.462210059260    -0.441374301556     1.007825032230
         H           -2.658390024325    -0.106326059260    -1.486118301556     1.007825032230
         H           -2.849770024325    -0.085721059260     1.575320698444     1.007825032230
         H           -3.243238024325     1.283371940740     0.525839698444     1.007825032230
         H           -4.217142024325    -0.193542059260     0.451787698444     1.007825032230
         H           -0.736562024325     1.247548940740    -0.442701301556     1.007825032230
         H            0.148650975675    -1.651047059260    -0.007354301556     1.007825032230

  Basis Set: AUG-CC-PVTZ
    Blend: AUG-CC-PVTZ
  Basis Set: (AUG-CC-PVTZ AUX)
    Blend: AUG-CC-PVTZ-JKFIT
	 Reference Energy          =    -343.2839365473524254 [Eh]
	 Singles Energy            =      -0.0000000000000000 [Eh]
	 Same-Spin Energy          =      -0.3480576102704099 [Eh]
	 Opposite-Spin Energy      =      -1.1055084042643626 [Eh]
	 Correlation Energy        =      -1.4535660145347724 [Eh]
	 Total Energy              =    -344.7375025618871973 [Eh]

	 ================> DF-SCS-MP2 Energies <==================
	-----------------------------------------------------------
	 SCS Same-Spin Scale       =       0.3333333333333333 [-]
	 SCS Opposite-Spin Scale   =       1.2000000000000000 [-]
	 SCS Same-Spin Energy      =      -0.1160192034234700 [Eh]
	 SCS Opposite-Spin Energy  =      -1.3266100851172351 [Eh]
	 SCS Correlation Energy    =      -1.4426292885407050 [Eh]
	 SCS Total Energy          =    -344.7265658358931546 [Eh]
	-----------------------------------------------------------

  Dipole Moment: [D]
     X:    -9.7609      Y:    -1.2262      Z:    -0.6033     Total:     9.8561

*** Psi4 exiting successfully. Buy a developer a beer!
