                               Psi4 1.3.2 release

  ==> Input File <==

--------------------------------------------------------------------------
#psi4
#
memory 32 gb

molecule  {
-1 1
  O        2.6974490    -0.8132830     0.2843680
  O        1.8995890     1.2895000    -0.0586210
  C       -2.1006760    -0.3536310    -0.4965290
  C       -3.0416170     0.2044990     0.5763330
  C       -0.7068700     0.1810590    -0.3555460
  C        0.3877260    -0.5533690    -0.1060630
  C        1.7796780     0.0321620     0.0520040
  H       -2.0809940    -1.4488000    -0.4417420
  H       -2.4997730    -0.0929160    -1.4864860
  H       -2.6911530    -0.0723110     1.5749530
  H       -3.0846210     1.2967820     0.5254720
  H       -4.0585250    -0.1801320     0.4514200
  H       -0.5543126     1.4589088    -0.4591123
  H        0.3072680    -1.6376370    -0.0077220
units angstrom
no_reorient  #important for SAPT in psi4, default
symmetry c1  #important for SAPT in psi4, default
}

set PROPERTIES_ORIGIN ["COM"]
properties('MP2/aug-cc-pvtz', properties = ['dipole'])
--------------------------------------------------------------------------

    Molecular point group: c1
  Charge       = -1
  Multiplicity = 1
  Basis Set: AUG-CC-PVTZ
    Blend: AUG-CC-PVTZ
  Basis Set: (AUG-CC-PVTZ AUX)
    Blend: AUG-CC-PVTZ-JKFIT

    Orbital Energies [Eh]
    ---------------------

    Doubly Occupied:

       1A    -20.295919     2A    -20.291723     3A    -11.142746
       4A    -11.116413     5A    -11.115430     6A    -11.106435
       7A    -11.072219     8A     -1.162178     9A     -1.061369
      10A     -0.952661    11A     -0.860724    12A     -0.744636
      13A     -0.619425    14A     -0.538908    15A     -0.495296
      16A     -0.484098    17A     -0.443521    18A     -0.414900
      19A     -0.409020    20A     -0.383486    21A     -0.376946
      22A     -0.358436    23A     -0.325249    24A     -0.211931
      25A     -0.209029    26A     -0.206398    27A     -0.191471

  @DF-RHF Final Energy:  -343.26399848788344

   => Energetics <=

    Nuclear Repulsion Energy =            270.0653644582421862
    One-Electron Energy =               -1013.4775879971522272
    Two-Electron Energy =                 400.1482250510265430
    Total Energy =                       -343.2639984878834412
  Basis Set: (AUG-CC-PVTZ AUX)
    Blend: AUG-CC-PVTZ-RI
    Molecular point group: c1

    Geometry (in Angstrom), charge = -1, multiplicity = 1:

       Center              X                  Y                   Z               Mass
    ------------   -----------------  -----------------  -----------------  -----------------
         O            2.550330635465    -0.824028608165     0.286274196513    15.994914619570
         O            1.752470635465     1.278754391835    -0.056714803487    15.994914619570
         C           -2.247794364535    -0.364376608165    -0.494622803487    12.000000000000
         C           -3.188735364535     0.193753391835     0.578239196513    12.000000000000
         C           -0.853988364535     0.170313391835    -0.353639803487    12.000000000000
         C            0.240607635465    -0.564114608165    -0.104156803487    12.000000000000
         C            1.632559635465     0.021416391835     0.053910196513    12.000000000000
         H           -2.228112364535    -1.459545608165    -0.439835803487     1.007825032230
         H           -2.646891364535    -0.103661608165    -1.484579803487     1.007825032230
         H           -2.838271364535    -0.083056608165     1.576859196513     1.007825032230
         H           -3.231739364535     1.286036391835     0.527378196513     1.007825032230
         H           -4.205643364535    -0.190877608165     0.453326196513     1.007825032230
         H           -0.701430964535     1.448163191835    -0.457206103487     1.007825032230
         H            0.160149635465    -1.648382608165    -0.005815803487     1.007825032230

  Basis Set: AUG-CC-PVTZ
    Blend: AUG-CC-PVTZ
  Basis Set: (AUG-CC-PVTZ AUX)
    Blend: AUG-CC-PVTZ-JKFIT
	 Reference Energy          =    -343.2639984878834412 [Eh]
	 Singles Energy            =      -0.0000000000000000 [Eh]
	 Same-Spin Energy          =      -0.3488762190698096 [Eh]
	 Opposite-Spin Energy      =      -1.1077790129776166 [Eh]
	 Correlation Energy        =      -1.4566552320474262 [Eh]
	 Total Energy              =    -344.7206537199308514 [Eh]

	 ================> DF-SCS-MP2 Energies <==================
	-----------------------------------------------------------
	 SCS Same-Spin Scale       =       0.3333333333333333 [-]
	 SCS Opposite-Spin Scale   =       1.2000000000000000 [-]
	 SCS Same-Spin Energy      =      -0.1162920730232699 [Eh]
	 SCS Opposite-Spin Energy  =      -1.3293348155731399 [Eh]
	 SCS Correlation Energy    =      -1.4456268885964099 [Eh]
	 SCS Total Energy          =    -344.7096253764798348 [Eh]
	-----------------------------------------------------------

  Dipole Moment: [D]
     X:    -9.4588      Y:    -1.2300      Z:    -0.5633     Total:     9.5550

*** Psi4 exiting successfully. Buy a developer a beer!
