                               Psi4 1.3.2 release

  ==> Input File <==

--------------------------------------------------------------------------
#psi4
#
memory 32 gb

molecule  {
-1 1
  O        2.6974490    -0.8132830     0.2843680
  O        1.8995890     1.2895000    -0.0586210
  C       -2.1006760    -0.3536310    -0.4965290
  C       -3.0416170     0.2044990     0.5763330
  C       -0.6979439     0.1565598    -0.3533062
  C        0.3877260    -0.5533690    -0.1060630
  C        1.7796780     0.0321620     0.0520040
  H       -2.0619947    -1.4481792    -0.4395010
  H       -2.4997730    -0.0929160    -1.4864860
  H       -2.6911530    -0.0723110     1.5749530
  H       -3.0846210     1.2967820     0.5254720
  H       -4.0585250    -0.1801320     0.4514200
  H       -0.5779450     1.2609590    -0.4430690
  H        0.3072680    -1.6376370    -0.0077220
units angstrom
no_reorient  #important for SAPT in psi4, default
symmetry c1  #important for SAPT in psi4, default
}

set PROPERTIES_ORIGIN ["COM"]
properties('MP2/aug-cc-pvtz', properties = ['dipole'])
--------------------------------------------------------------------------

    Molecular point group: c1
  Charge       = -1
  Multiplicity = 1
  Basis Set: AUG-CC-PVTZ
    Blend: AUG-CC-PVTZ
  Basis Set: (AUG-CC-PVTZ AUX)
    Blend: AUG-CC-PVTZ-JKFIT

    Orbital Energies [Eh]
    ---------------------

    Doubly Occupied:

       1A    -20.295436     2A    -20.291827     3A    -11.142313
       4A    -11.116272     5A    -11.114059     6A    -11.084007
       7A    -11.066768     8A     -1.161938     9A     -1.061128
      10A     -0.955287    11A     -0.866084    12A     -0.744898
      13A     -0.629073    14A     -0.549640    15A     -0.496007
      16A     -0.485160    17A     -0.445985    18A     -0.419633
      19A     -0.409337    20A     -0.384030    21A     -0.377716
      22A     -0.358371    23A     -0.340618    24A     -0.211590
      25A     -0.209497    26A     -0.209086    27A     -0.191297

  @DF-RHF Final Energy:  -343.28530047955422

   => Energetics <=

    Nuclear Repulsion Energy =            271.0885410549254289
    One-Electron Energy =               -1015.5135629152781576
    Two-Electron Energy =                 401.1397213807984485
    Total Energy =                       -343.2853004795542233
  Basis Set: (AUG-CC-PVTZ AUX)
    Blend: AUG-CC-PVTZ-RI
    Molecular point group: c1

    Geometry (in Angstrom), charge = -1, multiplicity = 1:

       Center              X                  Y                   Z               Mass
    ------------   -----------------  -----------------  -----------------  -----------------
         O            2.549296315156    -0.819052430932     0.285816776591    15.994914619570
         O            1.751436315156     1.283730569068    -0.057172223409    15.994914619570
         C           -2.248828684844    -0.359400430932    -0.495080223409    12.000000000000
         C           -3.189769684844     0.198729569068     0.577781776591    12.000000000000
         C           -0.846096584844     0.150790369068    -0.351857423409    12.000000000000
         C            0.239573315156    -0.559138430932    -0.104614223409    12.000000000000
         C            1.631525315156     0.026392569068     0.053452776591    12.000000000000
         H           -2.210147384844    -1.453948630932    -0.438052223409     1.007825032230
         H           -2.647925684844    -0.098685430932    -1.485037223409     1.007825032230
         H           -2.839305684844    -0.078080430932     1.576401776591     1.007825032230
         H           -3.232773684844     1.291012569068     0.526920776591     1.007825032230
         H           -4.206677684844    -0.185901430932     0.452868776591     1.007825032230
         H           -0.726097684844     1.255189569068    -0.441620223409     1.007825032230
         H            0.159115315156    -1.643406430932    -0.006273223409     1.007825032230

  Basis Set: AUG-CC-PVTZ
    Blend: AUG-CC-PVTZ
  Basis Set: (AUG-CC-PVTZ AUX)
    Blend: AUG-CC-PVTZ-JKFIT
	 Reference Energy          =    -343.2853004795542233 [Eh]
	 Singles Energy            =      -0.0000000000000000 [Eh]
	 Same-Spin Energy          =      -0.3480638852649891 [Eh]
	 Opposite-Spin Energy      =      -1.1052414853547465 [Eh]
	 Correlation Energy        =      -1.4533053706197356 [Eh]
	 Total Energy              =    -344.7386058501739399 [Eh]

	 ================> DF-SCS-MP2 Energies <==================
	-----------------------------------------------------------
	 SCS Same-Spin Scale       =       0.3333333333333333 [-]
	 SCS Opposite-Spin Scale   =       1.2000000000000000 [-]
	 SCS Same-Spin Energy      =      -0.1160212950883297 [Eh]
	 SCS Opposite-Spin Energy  =      -1.3262897824256958 [Eh]
	 SCS Correlation Energy    =      -1.4423110775140255 [Eh]
	 SCS Total Energy          =    -344.7276115570682578 [Eh]
	-----------------------------------------------------------

  Dipole Moment: [D]
     X:    -9.5108      Y:    -1.1637      Z:    -0.5702     Total:     9.5986

*** Psi4 exiting successfully. Buy a developer a beer!
