                               Psi4 1.3.2 release

  ==> Input File <==

--------------------------------------------------------------------------
#psi4
#
memory 32 gb

molecule  {
-1 1
  O        2.6974490    -0.8132830     0.2843680
  O        1.8995890     1.2895000    -0.0586210
  C       -2.1006760    -0.3536310    -0.4965290
  C       -3.0302007     0.2539008     0.5593123
  C       -0.7068700     0.1810590    -0.3555460
  C        0.3877260    -0.5533690    -0.1060630
  C        1.7796780     0.0321620     0.0520040
  H       -2.0562638    -1.4491482    -0.4709602
  H       -2.4997730    -0.0929160    -1.4864860
  H       -2.6911530    -0.0723110     1.5749530
  H       -3.0846210     1.2967820     0.5254720
  H       -4.0585250    -0.1801320     0.4514200
  H       -0.5779450     1.2609590    -0.4430690
  H        0.3072680    -1.6376370    -0.0077220
units angstrom
no_reorient  #important for SAPT in psi4, default
symmetry c1  #important for SAPT in psi4, default
}

set PROPERTIES_ORIGIN ["COM"]
properties('MP2/aug-cc-pvtz', properties = ['dipole'])
--------------------------------------------------------------------------

    Molecular point group: c1
  Charge       = -1
  Multiplicity = 1
  Basis Set: AUG-CC-PVTZ
    Blend: AUG-CC-PVTZ
  Basis Set: (AUG-CC-PVTZ AUX)
    Blend: AUG-CC-PVTZ-JKFIT

    Orbital Energies [Eh]
    ---------------------

    Doubly Occupied:

       1A    -20.295146     2A    -20.291479     3A    -11.141822
       4A    -11.116983     5A    -11.114332     6A    -11.085005
       7A    -11.069539     8A     -1.161625     9A     -1.060854
      10A     -0.954835    11A     -0.862132    12A     -0.744937
      13A     -0.633296    14A     -0.549124    15A     -0.494942
      16A     -0.485085    17A     -0.448287    18A     -0.418924
      19A     -0.410601    20A     -0.383771    21A     -0.372219
      22A     -0.357692    23A     -0.348419    24A     -0.210998
      25A     -0.208842    26A     -0.204076    27A     -0.191044

  @DF-RHF Final Energy:  -343.28193981663821

   => Energetics <=

    Nuclear Repulsion Energy =            270.9555086983789352
    One-Electron Energy =               -1015.2428751581816186
    Two-Electron Energy =                 401.0054266431644692
    Total Energy =                       -343.2819398166382143
  Basis Set: (AUG-CC-PVTZ AUX)
    Blend: AUG-CC-PVTZ-RI
    Molecular point group: c1

    Geometry (in Angstrom), charge = -1, multiplicity = 1:

       Center              X                  Y                   Z               Mass
    ------------   -----------------  -----------------  -----------------  -----------------
         O            2.548936294086    -0.827996233800     0.288470443297    15.994914619570
         O            1.751076294086     1.274786766200    -0.054518556703    15.994914619570
         C           -2.249188705914    -0.368344233800    -0.492426556703    12.000000000000
         C           -3.178713405914     0.239187566200     0.563414743297    12.000000000000
         C           -0.855382705914     0.166345766200    -0.351443556703    12.000000000000
         C            0.239213294086    -0.568082233800    -0.101960556703    12.000000000000
         C            1.631165294086     0.017448766200     0.056106443297    12.000000000000
         H           -2.204776505914    -1.463861433800    -0.466857756703     1.007825032230
         H           -2.648285705914    -0.107629233800    -1.482383556703     1.007825032230
         H           -2.839665705914    -0.087024233800     1.579055443297     1.007825032230
         H           -3.233133705914     1.282068766200     0.529574443297     1.007825032230
         H           -4.207037705914    -0.194845233800     0.455522443297     1.007825032230
         H           -0.726457705914     1.246245766200    -0.438966556703     1.007825032230
         H            0.158755294086    -1.652350233800    -0.003619556703     1.007825032230

  Basis Set: AUG-CC-PVTZ
    Blend: AUG-CC-PVTZ
  Basis Set: (AUG-CC-PVTZ AUX)
    Blend: AUG-CC-PVTZ-JKFIT
	 Reference Energy          =    -343.2819398166382143 [Eh]
	 Singles Energy            =      -0.0000000000000000 [Eh]
	 Same-Spin Energy          =      -0.3482367804127618 [Eh]
	 Opposite-Spin Energy      =      -1.1057374798502870 [Eh]
	 Correlation Energy        =      -1.4539742602630490 [Eh]
	 Total Energy              =    -344.7359140769012811 [Eh]

	 ================> DF-SCS-MP2 Energies <==================
	-----------------------------------------------------------
	 SCS Same-Spin Scale       =       0.3333333333333333 [-]
	 SCS Opposite-Spin Scale   =       1.2000000000000000 [-]
	 SCS Same-Spin Energy      =      -0.1160789268042539 [Eh]
	 SCS Opposite-Spin Energy  =      -1.3268849758203445 [Eh]
	 SCS Correlation Energy    =      -1.4429639026245984 [Eh]
	 SCS Total Energy          =    -344.7249037192628407 [Eh]
	-----------------------------------------------------------

  Dipole Moment: [D]
     X:    -9.5042      Y:    -1.0966      Z:    -0.6018     Total:     9.5862

*** Psi4 exiting successfully. Buy a developer a beer!
