                               Psi4 1.3.2 release

  ==> Input File <==

--------------------------------------------------------------------------
#psi4
#
memory 32 gb

molecule  {
-1 1
  O        2.6670664    -0.8454964     0.2829399
  O        1.8995890     1.2895000    -0.0586210
  C       -2.1006760    -0.3536310    -0.4965290
  C       -3.0416170     0.2044990     0.5763330
  C       -0.7068700     0.1810590    -0.3555460
  C        0.4080905    -0.6016018    -0.0978402
  C        1.7796780     0.0321620     0.0520040
  H       -2.0809940    -1.4488000    -0.4417420
  H       -2.4997730    -0.0929160    -1.4864860
  H       -2.6911530    -0.0723110     1.5749530
  H       -3.0846210     1.2967820     0.5254720
  H       -4.0585250    -0.1801320     0.4514200
  H       -0.5779450     1.2609590    -0.4430690
  H        0.3072680    -1.6376370    -0.0077220
units angstrom
no_reorient  #important for SAPT in psi4, default
symmetry c1  #important for SAPT in psi4, default
}

set PROPERTIES_ORIGIN ["COM"]
properties('MP2/aug-cc-pvtz', properties = ['dipole'])
--------------------------------------------------------------------------

    Molecular point group: c1
  Charge       = -1
  Multiplicity = 1
  Basis Set: AUG-CC-PVTZ
    Blend: AUG-CC-PVTZ
  Basis Set: (AUG-CC-PVTZ AUX)
    Blend: AUG-CC-PVTZ-JKFIT

    Orbital Energies [Eh]
    ---------------------

    Doubly Occupied:

       1A    -20.295240     2A    -20.294964     3A    -11.142863
       4A    -11.114843     5A    -11.112702     6A    -11.090223
       7A    -11.070392     8A     -1.162100     9A     -1.064673
      10A     -0.950515    11A     -0.854646    12A     -0.743237
      13A     -0.632952    14A     -0.549362    15A     -0.495858
      16A     -0.485735    17A     -0.445048    18A     -0.419407
      19A     -0.407934    20A     -0.385542    21A     -0.371980
      22A     -0.358498    23A     -0.355201    24A     -0.213351
      25A     -0.207915    26A     -0.193888    27A     -0.193139

  @DF-RHF Final Energy:  -343.27950068758031

   => Energetics <=

    Nuclear Repulsion Energy =            270.4873367999206835
    One-Electron Energy =               -1014.3092573963215273
    Two-Electron Energy =                 400.5424199088204773
    Total Energy =                       -343.2795006875803097
  Basis Set: (AUG-CC-PVTZ AUX)
    Blend: AUG-CC-PVTZ-RI
    Molecular point group: c1

    Geometry (in Angstrom), charge = -1, multiplicity = 1:

       Center              X                  Y                   Z               Mass
    ------------   -----------------  -----------------  -----------------  -----------------
         O            2.522627741428    -0.843181802077     0.283917221061    15.994914619570
         O            1.755150341428     1.291814597923    -0.057643678939    15.994914619570
         C           -2.245114658572    -0.351316402077    -0.495551678939    12.000000000000
         C           -3.186055658572     0.206813597923     0.577310321061    12.000000000000
         C           -0.851308658572     0.183373597923    -0.354568678939    12.000000000000
         C            0.263651841428    -0.599287202077    -0.096862878939    12.000000000000
         C            1.635239341428     0.034476597923     0.052981321061    12.000000000000
         H           -2.225432658572    -1.446485402077    -0.440764678939     1.007825032230
         H           -2.644211658572    -0.090601402077    -1.485508678939     1.007825032230
         H           -2.835591658572    -0.069996402077     1.575930321061     1.007825032230
         H           -3.229059658572     1.299096597923     0.526449321061     1.007825032230
         H           -4.202963658572    -0.177817402077     0.452397321061     1.007825032230
         H           -0.722383658572     1.263273597923    -0.442091678939     1.007825032230
         H            0.162829341428    -1.635322402077    -0.006744678939     1.007825032230

  Basis Set: AUG-CC-PVTZ
    Blend: AUG-CC-PVTZ
  Basis Set: (AUG-CC-PVTZ AUX)
    Blend: AUG-CC-PVTZ-JKFIT
	 Reference Energy          =    -343.2795006875803097 [Eh]
	 Singles Energy            =      -0.0000000000000000 [Eh]
	 Same-Spin Energy          =      -0.3486231416288560 [Eh]
	 Opposite-Spin Energy      =      -1.1067504166308961 [Eh]
	 Correlation Energy        =      -1.4553735582597520 [Eh]
	 Total Energy              =    -344.7348742458400466 [Eh]

	 ================> DF-SCS-MP2 Energies <==================
	-----------------------------------------------------------
	 SCS Same-Spin Scale       =       0.3333333333333333 [-]
	 SCS Opposite-Spin Scale   =       1.2000000000000000 [-]
	 SCS Same-Spin Energy      =      -0.1162077138762853 [Eh]
	 SCS Opposite-Spin Energy  =      -1.3281004999570754 [Eh]
	 SCS Correlation Energy    =      -1.4443082138333607 [Eh]
	 SCS Total Energy          =    -344.7238089014136904 [Eh]
	-----------------------------------------------------------

  Dipole Moment: [D]
     X:    -9.3793      Y:    -1.1571      Z:    -0.5652     Total:     9.4673

*** Psi4 exiting successfully. Buy a developer a beer!
