                               Psi4 1.3.2 release

  ==> Input File <==

--------------------------------------------------------------------------
#psi4
#
memory 32 gb

molecule  {
-1 1
  O        2.6974490    -0.8132830     0.2843680
  O        1.8995890     1.2895000    -0.0586210
  C       -2.1006760    -0.3536310    -0.4965290
  C       -3.0813787     0.1757071     0.5551056
  C       -0.6927349     0.1526201    -0.3971493
  C        0.3877260    -0.5533690    -0.1060630
  C        1.7796780     0.0321620     0.0520040
  H       -2.0809940    -1.4488000    -0.4417420
  H       -2.4997730    -0.0929160    -1.4864860
  H       -2.6911530    -0.0723110     1.5749530
  H       -3.0846210     1.2967820     0.5254720
  H       -4.0585250    -0.1801320     0.4514200
  H       -0.5779450     1.2609590    -0.4430690
  H        0.3072680    -1.6376370    -0.0077220
units angstrom
no_reorient  #important for SAPT in psi4, default
symmetry c1  #important for SAPT in psi4, default
}

set PROPERTIES_ORIGIN ["COM"]
properties('MP2/aug-cc-pvtz', properties = ['dipole'])
--------------------------------------------------------------------------

    Molecular point group: c1
  Charge       = -1
  Multiplicity = 1
  Basis Set: AUG-CC-PVTZ
    Blend: AUG-CC-PVTZ
  Basis Set: (AUG-CC-PVTZ AUX)
    Blend: AUG-CC-PVTZ-JKFIT

    Orbital Energies [Eh]
    ---------------------

    Doubly Occupied:

       1A    -20.295948     2A    -20.292282     3A    -11.142846
       4A    -11.117132     5A    -11.114109     6A    -11.085385
       7A    -11.068356     8A     -1.162408     9A     -1.061586
      10A     -0.954302    11A     -0.867246    12A     -0.746182
      13A     -0.628974    14A     -0.548981    15A     -0.498285
      16A     -0.485022    17A     -0.447099    18A     -0.426039
      19A     -0.404445    20A     -0.379760    21A     -0.376587
      22A     -0.358403    23A     -0.340961    24A     -0.212799
      25A     -0.209626    26A     -0.209035    27A     -0.191660

  @DF-RHF Final Energy:  -343.28122625724222

   => Energetics <=

    Nuclear Repulsion Energy =            270.7254274985929783
    One-Electron Energy =               -1014.7623842305275730
    Two-Electron Energy =                 400.7557304746924274
    Total Energy =                       -343.2812262572422242
  Basis Set: (AUG-CC-PVTZ AUX)
    Blend: AUG-CC-PVTZ-RI
    Molecular point group: c1

    Geometry (in Angstrom), charge = -1, multiplicity = 1:

       Center              X                  Y                   Z               Mass
    ------------   -----------------  -----------------  -----------------  -----------------
         O            2.553675961806    -0.815080434073     0.293723361106    15.994914619570
         O            1.755815961806     1.287702565927    -0.049265638894    15.994914619570
         C           -2.244449038194    -0.355428434073    -0.487173638894    12.000000000000
         C           -3.225151738194     0.173909665927     0.564460961106    12.000000000000
         C           -0.836507938194     0.150822665927    -0.387793938894    12.000000000000
         C            0.243952961806    -0.555166434073    -0.096707638894    12.000000000000
         C            1.635904961806     0.030364565927     0.061359361106    12.000000000000
         H           -2.224767038194    -1.450597434073    -0.432386638894     1.007825032230
         H           -2.643546038194    -0.094713434073    -1.477130638894     1.007825032230
         H           -2.834926038194    -0.074108434073     1.584308361106     1.007825032230
         H           -3.228394038194     1.294984565927     0.534827361106     1.007825032230
         H           -4.202298038194    -0.181929434073     0.460775361106     1.007825032230
         H           -0.721718038194     1.259161565927    -0.433713638894     1.007825032230
         H            0.163494961806    -1.639434434073     0.001633361106     1.007825032230

  Basis Set: AUG-CC-PVTZ
    Blend: AUG-CC-PVTZ
  Basis Set: (AUG-CC-PVTZ AUX)
    Blend: AUG-CC-PVTZ-JKFIT
	 Reference Energy          =    -343.2812262572422242 [Eh]
	 Singles Energy            =      -0.0000000000000000 [Eh]
	 Same-Spin Energy          =      -0.3481367569640149 [Eh]
	 Opposite-Spin Energy      =      -1.1054848503627741 [Eh]
	 Correlation Energy        =      -1.4536216073267889 [Eh]
	 Total Energy              =    -344.7348478645690193 [Eh]

	 ================> DF-SCS-MP2 Energies <==================
	-----------------------------------------------------------
	 SCS Same-Spin Scale       =       0.3333333333333333 [-]
	 SCS Opposite-Spin Scale   =       1.2000000000000000 [-]
	 SCS Same-Spin Energy      =      -0.1160455856546716 [Eh]
	 SCS Opposite-Spin Energy  =      -1.3265818204353288 [Eh]
	 SCS Correlation Energy    =      -1.4426274060900004 [Eh]
	 SCS Total Energy          =    -344.7238536633322497 [Eh]
	-----------------------------------------------------------

  Dipole Moment: [D]
     X:    -9.5351      Y:    -1.2005      Z:    -0.5558     Total:     9.6265

*** Psi4 exiting successfully. Buy a developer a beer!
