                               Psi4 1.3.2 release

  ==> Input File <==

--------------------------------------------------------------------------
#psi4
#
memory 32 gb

molecule  {
-1 1
  O        2.6974490    -0.8132830     0.2843680
  O        1.8995890     1.2895000    -0.0586210
  C       -2.1006760    -0.3536310    -0.4965290
  C       -3.0416170     0.2044990     0.5763330
  C       -0.6662593     0.2383621    -0.3551481
  C        0.3877260    -0.5533690    -0.1060630
  C        1.7485122     0.1042191     0.0395422
  H       -2.0809940    -1.4488000    -0.4417420
  H       -2.4997730    -0.0929160    -1.4864860
  H       -2.6911530    -0.0723110     1.5749530
  H       -3.0846210     1.2967820     0.5254720
  H       -4.0585250    -0.1801320     0.4514200
  H       -0.5779450     1.2609590    -0.4430690
  H        0.3072680    -1.6376370    -0.0077220
units angstrom
no_reorient  #important for SAPT in psi4, default
symmetry c1  #important for SAPT in psi4, default
}

set PROPERTIES_ORIGIN ["COM"]
properties('MP2/aug-cc-pvtz', properties = ['dipole'])
--------------------------------------------------------------------------

    Molecular point group: c1
  Charge       = -1
  Multiplicity = 1
  Basis Set: AUG-CC-PVTZ
    Blend: AUG-CC-PVTZ
  Basis Set: (AUG-CC-PVTZ AUX)
    Blend: AUG-CC-PVTZ-JKFIT

    Orbital Energies [Eh]
    ---------------------

    Doubly Occupied:

       1A    -20.308903     2A    -20.276537     3A    -11.139201
       4A    -11.115670     5A    -11.114945     6A    -11.084274
       7A    -11.071453     8A     -1.186575     9A     -1.038595
      10A     -0.947629    11A     -0.865321    12A     -0.737634
      13A     -0.639241    14A     -0.552047    15A     -0.493757
      16A     -0.484412    17A     -0.455474    18A     -0.422556
      19A     -0.406619    20A     -0.382132    21A     -0.374352
      22A     -0.365912    23A     -0.353380    24A     -0.212763
      25A     -0.209308    26A     -0.195086    27A     -0.183337

  @DF-RHF Final Energy:  -343.27124008458964

   => Energetics <=

    Nuclear Repulsion Energy =            270.9061289553284837
    One-Electron Energy =               -1015.1205133119602806
    Two-Electron Energy =                 400.9431442720422183
    Total Energy =                       -343.2712400845896354
  Basis Set: (AUG-CC-PVTZ AUX)
    Blend: AUG-CC-PVTZ-RI
    Molecular point group: c1

    Geometry (in Angstrom), charge = -1, multiplicity = 1:

       Center              X                  Y                   Z               Mass
    ------------   -----------------  -----------------  -----------------  -----------------
         O            2.549426785364    -0.837687339438     0.287572580826    15.994914619570
         O            1.751566785364     1.265095660562    -0.055416419174    15.994914619570
         C           -2.248698214636    -0.378035339438    -0.493324419174    12.000000000000
         C           -3.189639214636     0.180094660562     0.579537580826    12.000000000000
         C           -0.814281514636     0.213957760562    -0.351943519174    12.000000000000
         C            0.239703785364    -0.577773339438    -0.102858419174    12.000000000000
         C            1.600489985364     0.079814760562     0.042746780826    12.000000000000
         H           -2.229016214636    -1.473204339438    -0.438537419174     1.007825032230
         H           -2.647795214636    -0.117320339438    -1.483281419174     1.007825032230
         H           -2.839175214636    -0.096715339438     1.578157580826     1.007825032230
         H           -3.232643214636     1.272377660562     0.528676580826     1.007825032230
         H           -4.206547214636    -0.204536339438     0.454624580826     1.007825032230
         H           -0.725967214636     1.236554660562    -0.439864419174     1.007825032230
         H            0.159245785364    -1.662041339438    -0.004517419174     1.007825032230

  Basis Set: AUG-CC-PVTZ
    Blend: AUG-CC-PVTZ
  Basis Set: (AUG-CC-PVTZ AUX)
    Blend: AUG-CC-PVTZ-JKFIT
	 Reference Energy          =    -343.2712400845896354 [Eh]
	 Singles Energy            =      -0.0000000000000000 [Eh]
	 Same-Spin Energy          =      -0.3478366160571709 [Eh]
	 Opposite-Spin Energy      =      -1.1055234686545714 [Eh]
	 Correlation Energy        =      -1.4533600847117423 [Eh]
	 Total Energy              =    -344.7246001693013682 [Eh]

	 ================> DF-SCS-MP2 Energies <==================
	-----------------------------------------------------------
	 SCS Same-Spin Scale       =       0.3333333333333333 [-]
	 SCS Opposite-Spin Scale   =       1.2000000000000000 [-]
	 SCS Same-Spin Energy      =      -0.1159455386857236 [Eh]
	 SCS Opposite-Spin Energy  =      -1.3266281623854856 [Eh]
	 SCS Correlation Energy    =      -1.4425737010712092 [Eh]
	 SCS Total Energy          =    -344.7138137856608182 [Eh]
	-----------------------------------------------------------

  Dipole Moment: [D]
     X:    -9.7734      Y:    -0.3841      Z:    -0.7067     Total:     9.8064

*** Psi4 exiting successfully. Buy a developer a beer!
