                               Psi4 1.3.2 release

  ==> Input File <==

--------------------------------------------------------------------------
#psi4
#
memory 32 gb

molecule  {
-1 1
  O        2.6974490    -0.8132830     0.2843680
  O        1.8995890     1.2895000    -0.0586210
  C       -2.1006760    -0.3536310    -0.4965290
  C       -3.0416170     0.2044990     0.5763330
  C       -0.7023537     0.1688293    -0.3544207
  C        0.3877260    -0.5533690    -0.1060630
  C        1.7796780     0.0321620     0.0520040
  H       -2.0714933    -1.4485313    -0.4406194
  H       -2.4997730    -0.0929160    -1.4864860
  H       -2.6911530    -0.0723110     1.5749530
  H       -3.0846210     1.2967820     0.5254720
  H       -4.0585250    -0.1801320     0.4514200
  H       -0.5779450     1.2609590    -0.4430690
  H        0.3072680    -1.6376370    -0.0077220
units angstrom
no_reorient  #important for SAPT in psi4, default
symmetry c1  #important for SAPT in psi4, default
}

set PROPERTIES_ORIGIN ["COM"]
properties('MP2/aug-cc-pvtz', properties = ['dipole'])
--------------------------------------------------------------------------

    Molecular point group: c1
  Charge       = -1
  Multiplicity = 1
  Basis Set: AUG-CC-PVTZ
    Blend: AUG-CC-PVTZ
  Basis Set: (AUG-CC-PVTZ AUX)
    Blend: AUG-CC-PVTZ-JKFIT

    Orbital Energies [Eh]
    ---------------------

    Doubly Occupied:

       1A    -20.295389     2A    -20.291739     3A    -11.142154
       4A    -11.116021     5A    -11.114015     6A    -11.084686
       7A    -11.068382     8A     -1.161872     9A     -1.061079
      10A     -0.954738    11A     -0.864210    12A     -0.744340
      13A     -0.630966    14A     -0.549326    15A     -0.495303
      16A     -0.485579    17A     -0.445957    18A     -0.419391
      19A     -0.409114    20A     -0.383414    21A     -0.376908
      22A     -0.358169    23A     -0.344807    24A     -0.211415
      25A     -0.209047    26A     -0.207066    27A     -0.191249

  @DF-RHF Final Energy:  -343.28578958640236

   => Energetics <=

    Nuclear Repulsion Energy =            270.9704983836376755
    One-Electron Energy =               -1015.2799045331507841
    Two-Electron Energy =                 401.0236165631106928
    Total Energy =                       -343.2857895864023590
  Basis Set: (AUG-CC-PVTZ AUX)
    Blend: AUG-CC-PVTZ-RI
    Molecular point group: c1

    Geometry (in Angstrom), charge = -1, multiplicity = 1:

       Center              X                  Y                   Z               Mass
    ------------   -----------------  -----------------  -----------------  -----------------
         O            2.549927248332    -0.820535390509     0.285963186904    15.994914619570
         O            1.752067248332     1.282247609491    -0.057025813096    15.994914619570
         C           -2.248197751668    -0.360883390509    -0.494933813096    12.000000000000
         C           -3.189138751668     0.197246609491     0.577928186904    12.000000000000
         C           -0.849875451668     0.161576909491    -0.352825513096    12.000000000000
         C            0.240204248332    -0.560621390509    -0.104467813096    12.000000000000
         C            1.632156248332     0.024909609491     0.053599186904    12.000000000000
         H           -2.219015051668    -1.455783690509    -0.439024213096     1.007825032230
         H           -2.647294751668    -0.100168390509    -1.484890813096     1.007825032230
         H           -2.838674751668    -0.079563390509     1.576548186904     1.007825032230
         H           -3.232142751668     1.289529609491     0.527067186904     1.007825032230
         H           -4.206046751668    -0.187384390509     0.453015186904     1.007825032230
         H           -0.725466751668     1.253706609491    -0.441473813096     1.007825032230
         H            0.159746248332    -1.644889390509    -0.006126813096     1.007825032230

  Basis Set: AUG-CC-PVTZ
    Blend: AUG-CC-PVTZ
  Basis Set: (AUG-CC-PVTZ AUX)
    Blend: AUG-CC-PVTZ-JKFIT
	 Reference Energy          =    -343.2857895864023590 [Eh]
	 Singles Energy            =      -0.0000000000000000 [Eh]
	 Same-Spin Energy          =      -0.3480948806146823 [Eh]
	 Opposite-Spin Energy      =      -1.1053849354189849 [Eh]
	 Correlation Energy        =      -1.4534798160336670 [Eh]
	 Total Energy              =    -344.7392694024360367 [Eh]

	 ================> DF-SCS-MP2 Energies <==================
	-----------------------------------------------------------
	 SCS Same-Spin Scale       =       0.3333333333333333 [-]
	 SCS Opposite-Spin Scale   =       1.2000000000000000 [-]
	 SCS Same-Spin Energy      =      -0.1160316268715608 [Eh]
	 SCS Opposite-Spin Energy  =      -1.3264619225027818 [Eh]
	 SCS Correlation Energy    =      -1.4424935493743427 [Eh]
	 SCS Total Energy          =    -344.7282831357766781 [Eh]
	-----------------------------------------------------------

  Dipole Moment: [D]
     X:    -9.5112      Y:    -1.1580      Z:    -0.5746     Total:     9.5986

*** Psi4 exiting successfully. Buy a developer a beer!
