                               Psi4 1.3.2 release

  ==> Input File <==

--------------------------------------------------------------------------
#psi4
#
memory 32 gb

molecule  {
-1 1
  O        2.6974490    -0.8132830     0.2843680
  O        1.8995890     1.2895000    -0.0586210
  C       -2.1006760    -0.3536310    -0.4965290
  C       -2.9798405     0.2464011     0.6057157
  C       -0.7312508     0.2224853    -0.2934789
  C        0.3877260    -0.5533690    -0.1060630
  C        1.7796780     0.0321620     0.0520040
  H       -2.0809940    -1.4488000    -0.4417420
  H       -2.4997730    -0.0929160    -1.4864860
  H       -2.6911530    -0.0723110     1.5749530
  H       -3.0846210     1.2967820     0.5254720
  H       -4.0585250    -0.1801320     0.4514200
  H       -0.5779450     1.2609590    -0.4430690
  H        0.3072680    -1.6376370    -0.0077220
units angstrom
no_reorient  #important for SAPT in psi4, default
symmetry c1  #important for SAPT in psi4, default
}

set PROPERTIES_ORIGIN ["COM"]
properties('MP2/aug-cc-pvtz', properties = ['dipole'])
--------------------------------------------------------------------------

    Molecular point group: c1
  Charge       = -1
  Multiplicity = 1
  Basis Set: AUG-CC-PVTZ
    Blend: AUG-CC-PVTZ
  Basis Set: (AUG-CC-PVTZ AUX)
    Blend: AUG-CC-PVTZ-JKFIT

    Orbital Energies [Eh]
    ---------------------

    Doubly Occupied:

       1A    -20.295224     2A    -20.291411     3A    -11.141543
       4A    -11.115907     5A    -11.114762     6A    -11.087022
       7A    -11.074674     8A     -1.161613     9A     -1.060885
      10A     -0.955481    11A     -0.855366    12A     -0.742134
      13A     -0.639908    14A     -0.549649    15A     -0.501708
      16A     -0.479590    17A     -0.446707    18A     -0.416704
      19A     -0.411240    20A     -0.389531    21A     -0.365595
      22A     -0.357884    23A     -0.353895    24A     -0.210803
      25A     -0.208880    26A     -0.196773    27A     -0.190770

  @DF-RHF Final Energy:  -343.27350135848769

   => Energetics <=

    Nuclear Repulsion Energy =            271.0059426615802067
    One-Electron Energy =               -1015.3275729875218758
    Two-Electron Energy =                 401.0481289674539767
    Total Energy =                       -343.2735013584876924
  Basis Set: (AUG-CC-PVTZ AUX)
    Blend: AUG-CC-PVTZ-RI
    Molecular point group: c1

    Geometry (in Angstrom), charge = -1, multiplicity = 1:

       Center              X                  Y                   Z               Mass
    ------------   -----------------  -----------------  -----------------  -----------------
         O            2.546040335372    -0.832110240080     0.275031116233    15.994914619570
         O            1.748180335372     1.270672759920    -0.067957883767    15.994914619570
         C           -2.252084664628    -0.372458240080    -0.505865883767    12.000000000000
         C           -3.131249164628     0.227573859920     0.596378816233    12.000000000000
         C           -0.882659464628     0.203658059920    -0.302815783767    12.000000000000
         C            0.236317335372    -0.572196240080    -0.115399883767    12.000000000000
         C            1.628269335372     0.013334759920     0.042667116233    12.000000000000
         H           -2.232402664628    -1.467627240080    -0.451078883767     1.007825032230
         H           -2.651181664628    -0.111743240080    -1.495822883767     1.007825032230
         H           -2.842561664628    -0.091138240080     1.565616116233     1.007825032230
         H           -3.236029664628     1.277954759920     0.516135116233     1.007825032230
         H           -4.209933664628    -0.198959240080     0.442083116233     1.007825032230
         H           -0.729353664628     1.242131759920    -0.452405883767     1.007825032230
         H            0.155859335372    -1.656464240080    -0.017058883767     1.007825032230

  Basis Set: AUG-CC-PVTZ
    Blend: AUG-CC-PVTZ
  Basis Set: (AUG-CC-PVTZ AUX)
    Blend: AUG-CC-PVTZ-JKFIT
	 Reference Energy          =    -343.2735013584876924 [Eh]
	 Singles Energy            =      -0.0000000000000000 [Eh]
	 Same-Spin Energy          =      -0.3487212487797700 [Eh]
	 Opposite-Spin Energy      =      -1.1071046336531247 [Eh]
	 Correlation Energy        =      -1.4558258824328947 [Eh]
	 Total Energy              =    -344.7293272409206111 [Eh]

	 ================> DF-SCS-MP2 Energies <==================
	-----------------------------------------------------------
	 SCS Same-Spin Scale       =       0.3333333333333333 [-]
	 SCS Opposite-Spin Scale   =       1.2000000000000000 [-]
	 SCS Same-Spin Energy      =      -0.1162404162599233 [Eh]
	 SCS Opposite-Spin Energy  =      -1.3285255603837496 [Eh]
	 SCS Correlation Energy    =      -1.4447659766436729 [Eh]
	 SCS Total Energy          =    -344.7182673351313724 [Eh]
	-----------------------------------------------------------

  Dipole Moment: [D]
     X:    -9.3910      Y:    -1.0955      Z:    -0.6218     Total:     9.4751

*** Psi4 exiting successfully. Buy a developer a beer!
