                               Psi4 1.3.2 release

  ==> Input File <==

--------------------------------------------------------------------------
#psi4
#
memory 32 gb

molecule  {
-1 1
  O        2.6974490    -0.8132830     0.2843680
  O        1.8995890     1.2895000    -0.0586210
  C       -2.1175780    -0.3048061    -0.5048874
  C       -3.0416170     0.2044990     0.5763330
  C       -0.7068700     0.1810590    -0.3555460
  C        0.4132677    -0.5141332    -0.1070182
  C        1.7796780     0.0321620     0.0520040
  H       -2.0809940    -1.4488000    -0.4417420
  H       -2.4997730    -0.0929160    -1.4864860
  H       -2.6911530    -0.0723110     1.5749530
  H       -3.0846210     1.2967820     0.5254720
  H       -4.0585250    -0.1801320     0.4514200
  H       -0.5779450     1.2609590    -0.4430690
  H        0.3072680    -1.6376370    -0.0077220
units angstrom
no_reorient  #important for SAPT in psi4, default
symmetry c1  #important for SAPT in psi4, default
}

set PROPERTIES_ORIGIN ["COM"]
properties('MP2/aug-cc-pvtz', properties = ['dipole'])
--------------------------------------------------------------------------

    Molecular point group: c1
  Charge       = -1
  Multiplicity = 1
  Basis Set: AUG-CC-PVTZ
    Blend: AUG-CC-PVTZ
  Basis Set: (AUG-CC-PVTZ AUX)
    Blend: AUG-CC-PVTZ-JKFIT

    Orbital Energies [Eh]
    ---------------------

    Doubly Occupied:

       1A    -20.295890     2A    -20.290660     3A    -11.140039
       4A    -11.117397     5A    -11.116307     6A    -11.086624
       7A    -11.073603     8A     -1.163330     9A     -1.061507
      10A     -0.956930    11A     -0.865967    12A     -0.746800
      13A     -0.636408    14A     -0.549235    15A     -0.501112
      16A     -0.481406    17A     -0.446612    18A     -0.424873
      19A     -0.413343    20A     -0.381264    21A     -0.373174
      22A     -0.360777    23A     -0.333159    24A     -0.215420
      25A     -0.208453    26A     -0.206110    27A     -0.190782

  @DF-RHF Final Energy:  -343.27904943612896

   => Energetics <=

    Nuclear Repulsion Energy =            271.3268031190845591
    One-Electron Energy =               -1015.9373386140224511
    Two-Electron Energy =                 401.3314860588089914
    Total Energy =                       -343.2790494361289575
  Basis Set: (AUG-CC-PVTZ AUX)
    Blend: AUG-CC-PVTZ-RI
    Molecular point group: c1

    Geometry (in Angstrom), charge = -1, multiplicity = 1:

       Center              X                  Y                   Z               Mass
    ------------   -----------------  -----------------  -----------------  -----------------
         O            2.549524341410    -0.832683593876     0.287239361261    15.994914619570
         O            1.751664341410     1.270099406124    -0.055749638739    15.994914619570
         C           -2.265502658590    -0.324206693876    -0.502016038739    12.000000000000
         C           -3.189541658590     0.185098406124     0.579204361261    12.000000000000
         C           -0.854794658590     0.161658406124    -0.352674638739    12.000000000000
         C            0.265343041410    -0.533533793876    -0.104146838739    12.000000000000
         C            1.631753341410     0.012761406124     0.054875361261    12.000000000000
         H           -2.228918658590    -1.468200593876    -0.438870638739     1.007825032230
         H           -2.647697658590    -0.112316593876    -1.483614638739     1.007825032230
         H           -2.839077658590    -0.091711593876     1.577824361261     1.007825032230
         H           -3.232545658590     1.277381406124     0.528343361261     1.007825032230
         H           -4.206449658590    -0.199532593876     0.454291361261     1.007825032230
         H           -0.725869658590     1.241558406124    -0.440197638739     1.007825032230
         H            0.159343341410    -1.657037593876    -0.004850638739     1.007825032230

  Basis Set: AUG-CC-PVTZ
    Blend: AUG-CC-PVTZ
  Basis Set: (AUG-CC-PVTZ AUX)
    Blend: AUG-CC-PVTZ-JKFIT
	 Reference Energy          =    -343.2790494361289575 [Eh]
	 Singles Energy            =      -0.0000000000000000 [Eh]
	 Same-Spin Energy          =      -0.3486980630917645 [Eh]
	 Opposite-Spin Energy      =      -1.1066488488063244 [Eh]
	 Correlation Energy        =      -1.4553469118980891 [Eh]
	 Total Energy              =    -344.7343963480270190 [Eh]

	 ================> DF-SCS-MP2 Energies <==================
	-----------------------------------------------------------
	 SCS Same-Spin Scale       =       0.3333333333333333 [-]
	 SCS Opposite-Spin Scale   =       1.2000000000000000 [-]
	 SCS Same-Spin Energy      =      -0.1162326876972548 [Eh]
	 SCS Opposite-Spin Energy  =      -1.3279786185675893 [Eh]
	 SCS Correlation Energy    =      -1.4442113062648441 [Eh]
	 SCS Total Energy          =    -344.7232607423937907 [Eh]
	-----------------------------------------------------------

  Dipole Moment: [D]
     X:    -9.5497      Y:    -1.0471      Z:    -0.5868     Total:     9.6248

*** Psi4 exiting successfully. Buy a developer a beer!
