                               Psi4 1.3.2 release

  ==> Input File <==

--------------------------------------------------------------------------
#psi4
#
memory 32 gb

molecule  {
-1 1
  O        2.6974490    -0.8132830     0.2843680
  O        1.8995890     1.2895000    -0.0586210
  C       -2.1006760    -0.3536310    -0.4965290
  C       -3.0416170     0.2044990     0.5763330
  C       -0.7068700     0.1810590    -0.3555460
  C        0.3877260    -0.5533690    -0.1060630
  C        1.9630296     0.1092897     0.0728250
  H       -2.0809940    -1.4488000    -0.4417420
  H       -2.4997730    -0.0929160    -1.4864860
  H       -2.6911530    -0.0723110     1.5749530
  H       -3.0846210     1.2967820     0.5254720
  H       -4.0585250    -0.1801320     0.4514200
  H       -0.5779450     1.2609590    -0.4430690
  H        0.3072680    -1.6376370    -0.0077220
units angstrom
no_reorient  #important for SAPT in psi4, default
symmetry c1  #important for SAPT in psi4, default
}

set PROPERTIES_ORIGIN ["COM"]
properties('MP2/aug-cc-pvtz', properties = ['dipole'])
--------------------------------------------------------------------------

    Molecular point group: c1
  Charge       = -1
  Multiplicity = 1
  Basis Set: AUG-CC-PVTZ
    Blend: AUG-CC-PVTZ
  Basis Set: (AUG-CC-PVTZ AUX)
    Blend: AUG-CC-PVTZ-JKFIT

    Orbital Energies [Eh]
    ---------------------

    Doubly Occupied:

       1A    -20.313553     2A    -20.312789     3A    -11.154357
       4A    -11.103568     5A    -11.097975     6A    -11.058527
       7A    -11.043011     8A     -1.217572     9A     -1.136236
      10A     -0.935643    11A     -0.835033    12A     -0.717864
      13A     -0.598171    14A     -0.527004    15A     -0.491302
      16A     -0.468329    17A     -0.457351    18A     -0.437405
      19A     -0.403392    20A     -0.395494    21A     -0.388540
      22A     -0.370719    23A     -0.337272    24A     -0.248538
      25A     -0.228916    26A     -0.185059    27A     -0.169662

  @DF-RHF Final Energy:  -343.26725810778157

   => Energetics <=

    Nuclear Repulsion Energy =            270.7574502078576302
    One-Electron Energy =               -1014.7828532298091204
    Two-Electron Energy =                 400.7581449141698613
    Total Energy =                       -343.2672581077815721
  Basis Set: (AUG-CC-PVTZ AUX)
    Blend: AUG-CC-PVTZ-RI
    Molecular point group: c1

    Geometry (in Angstrom), charge = -1, multiplicity = 1:

       Center              X                  Y                   Z               Mass
    ------------   -----------------  -----------------  -----------------  -----------------
         O            2.528356678504    -0.831358978561     0.283588327447    15.994914619570
         O            1.730496678504     1.271424021439    -0.059400672553    15.994914619570
         C           -2.269768321496    -0.371706978561    -0.497308672553    12.000000000000
         C           -3.210709321496     0.186423021439     0.575553327447    12.000000000000
         C           -0.875962321496     0.162983021439    -0.356325672553    12.000000000000
         C            0.218633678504    -0.571444978561    -0.106842672553    12.000000000000
         C            1.793937278504     0.091213721439     0.072045327447    12.000000000000
         H           -2.250086321496    -1.466875978561    -0.442521672553     1.007825032230
         H           -2.668865321496    -0.110991978561    -1.487265672553     1.007825032230
         H           -2.860245321496    -0.090386978561     1.574173327447     1.007825032230
         H           -3.253713321496     1.278706021439     0.524692327447     1.007825032230
         H           -4.227617321496    -0.198207978561     0.450640327447     1.007825032230
         H           -0.747037321496     1.242883021439    -0.443848672553     1.007825032230
         H            0.138175678504    -1.655712978561    -0.008501672553     1.007825032230

  Basis Set: AUG-CC-PVTZ
    Blend: AUG-CC-PVTZ
  Basis Set: (AUG-CC-PVTZ AUX)
    Blend: AUG-CC-PVTZ-JKFIT
	 Reference Energy          =    -343.2672581077815721 [Eh]
	 Singles Energy            =      -0.0000000000000000 [Eh]
	 Same-Spin Energy          =      -0.3466249576910782 [Eh]
	 Opposite-Spin Energy      =      -1.1009384089432692 [Eh]
	 Correlation Energy        =      -1.4475633666343475 [Eh]
	 Total Energy              =    -344.7148214744159418 [Eh]

	 ================> DF-SCS-MP2 Energies <==================
	-----------------------------------------------------------
	 SCS Same-Spin Scale       =       0.3333333333333333 [-]
	 SCS Opposite-Spin Scale   =       1.2000000000000000 [-]
	 SCS Same-Spin Energy      =      -0.1155416525636927 [Eh]
	 SCS Opposite-Spin Energy  =      -1.3211260907319231 [Eh]
	 SCS Correlation Energy    =      -1.4366677432956159 [Eh]
	 SCS Total Energy          =    -344.7039258510772015 [Eh]
	-----------------------------------------------------------

  Dipole Moment: [D]
     X:    -7.6720      Y:    -0.6374      Z:    -0.3954     Total:     7.7086

*** Psi4 exiting successfully. Buy a developer a beer!
