                               Psi4 1.3.2 release

  ==> Input File <==

--------------------------------------------------------------------------
#psi4
#
memory 32 gb

molecule  {
-1 1
  O        2.6974490    -0.8132830     0.2843680
  O        1.8995890     1.2895000    -0.0586210
  C       -2.1006760    -0.3536310    -0.4965290
  C       -3.0416170     0.2044990     0.5763330
  C       -0.6936709     0.2003980    -0.3554278
  C        0.3877260    -0.5533690    -0.1060630
  C        1.7796780     0.0321620     0.0520040
  H       -2.0809940    -1.4488000    -0.4417420
  H       -2.4997730    -0.0929160    -1.4864860
  H       -2.6911530    -0.0723110     1.5749530
  H       -3.0846210     1.2967820     0.5254720
  H       -4.0585250    -0.1801320     0.4514200
  H       -0.5779450     1.2609590    -0.4430690
  H        0.3260460    -1.6385832    -0.0046366
units angstrom
no_reorient  #important for SAPT in psi4, default
symmetry c1  #important for SAPT in psi4, default
}

set PROPERTIES_ORIGIN ["COM"]
properties('MP2/aug-cc-pvtz', properties = ['dipole'])
--------------------------------------------------------------------------

    Molecular point group: c1
  Charge       = -1
  Multiplicity = 1
  Basis Set: AUG-CC-PVTZ
    Blend: AUG-CC-PVTZ
  Basis Set: (AUG-CC-PVTZ AUX)
    Blend: AUG-CC-PVTZ-JKFIT

    Orbital Energies [Eh]
    ---------------------

    Doubly Occupied:

       1A    -20.295024     2A    -20.291074     3A    -11.140914
       4A    -11.115374     5A    -11.114320     6A    -11.085130
       7A    -11.070018     8A     -1.161463     9A     -1.060685
      10A     -0.951423    11A     -0.862448    12A     -0.741549
      13A     -0.635903    14A     -0.548240    15A     -0.493017
      16A     -0.486046    17A     -0.446209    18A     -0.420528
      19A     -0.407672    20A     -0.382490    21A     -0.373334
      22A     -0.357733    23A     -0.352186    24A     -0.210312
      25A     -0.208479    26A     -0.204991    27A     -0.190915

  @DF-RHF Final Energy:  -343.28548282894610

   => Energetics <=

    Nuclear Repulsion Energy =            270.7804792862015120
    One-Electron Energy =               -1014.9169681021348879
    Two-Electron Energy =                 400.8510059869872748
    Total Energy =                       -343.2854828289461011
  Basis Set: (AUG-CC-PVTZ AUX)
    Blend: AUG-CC-PVTZ-RI
    Molecular point group: c1

    Geometry (in Angstrom), charge = -1, multiplicity = 1:

       Center              X                  Y                   Z               Mass
    ------------   -----------------  -----------------  -----------------  -----------------
         O            2.548780860845    -0.824347814169     0.286065232251    15.994914619570
         O            1.750920860845     1.278435185831    -0.056923767749    15.994914619570
         C           -2.249344139155    -0.364695814169    -0.494831767749    12.000000000000
         C           -3.190285139155     0.193434185831     0.578030232251    12.000000000000
         C           -0.842339039155     0.189333185831    -0.353730567749    12.000000000000
         C            0.239057860845    -0.564433814169    -0.104365767749    12.000000000000
         C            1.631009860845     0.021097185831     0.053701232251    12.000000000000
         H           -2.229662139155    -1.459864814169    -0.440044767749     1.007825032230
         H           -2.648441139155    -0.103980814169    -1.484788767749     1.007825032230
         H           -2.839821139155    -0.083375814169     1.576650232251     1.007825032230
         H           -3.233289139155     1.285717185831     0.527169232251     1.007825032230
         H           -4.207193139155    -0.191196814169     0.453117232251     1.007825032230
         H           -0.726613139155     1.249894185831    -0.441371767749     1.007825032230
         H            0.177377860845    -1.649648014169    -0.002939367749     1.007825032230

  Basis Set: AUG-CC-PVTZ
    Blend: AUG-CC-PVTZ
  Basis Set: (AUG-CC-PVTZ AUX)
    Blend: AUG-CC-PVTZ-JKFIT
	 Reference Energy          =    -343.2854828289461011 [Eh]
	 Singles Energy            =      -0.0000000000000000 [Eh]
	 Same-Spin Energy          =      -0.3479067283003758 [Eh]
	 Opposite-Spin Energy      =      -1.1053221087780380 [Eh]
	 Correlation Energy        =      -1.4532288370784139 [Eh]
	 Total Energy              =    -344.7387116660245283 [Eh]

	 ================> DF-SCS-MP2 Energies <==================
	-----------------------------------------------------------
	 SCS Same-Spin Scale       =       0.3333333333333333 [-]
	 SCS Opposite-Spin Scale   =       1.2000000000000000 [-]
	 SCS Same-Spin Energy      =      -0.1159689094334586 [Eh]
	 SCS Opposite-Spin Energy  =      -1.3263865305336455 [Eh]
	 SCS Correlation Energy    =      -1.4423554399671041 [Eh]
	 SCS Total Energy          =    -344.7278382689132172 [Eh]
	-----------------------------------------------------------

  Dipole Moment: [D]
     X:    -9.4967      Y:    -1.1444      Z:    -0.5796     Total:     9.5830

*** Psi4 exiting successfully. Buy a developer a beer!
