                               Psi4 1.4a3.dev225

  ==> Input File <==

--------------------------------------------------------------------------
#psi4
#
memory 32 gb

molecule  {
-1 1
  O        2.6993700    -0.8109490     0.2832770
  O        1.8994270     1.2905180    -0.0615170
  C       -2.1001690    -0.3616000    -0.4913260
  C       -3.0433460     0.2119310     0.5709670
  C       -0.7080250     0.1770830    -0.3546910
  C        0.3885780    -0.5541740    -0.1016640
  C        1.7798570     0.0330080     0.0518740
  H       -2.0812530    -1.4558260    -0.4203270
  H       -2.4968010    -0.1155520    -1.4857470
  H       -2.6986290    -0.0550030     1.5741980
  H       -3.0817280     1.3037570     0.5071410
  H       -4.0608920    -0.1705790     0.4451360
  H       -0.5806440     1.2564400    -0.4499950
  H        0.2949702    -1.6522718     0.0041300
units angstrom
no_reorient  #important for SAPT in psi4, default
symmetry c1  #important for SAPT in psi4, default
}

set PROPERTIES_ORIGIN ["COM"]
properties('MP2/aug-cc-pvtz', properties = ['dipole'])
--------------------------------------------------------------------------

    Molecular point group: c1
  Charge       = -1
  Multiplicity = 1
  Basis Set: AUG-CC-PVTZ
    Blend: AUG-CC-PVTZ
  Basis Set: (AUG-CC-PVTZ AUX)
    Blend: AUG-CC-PVTZ-JKFIT

    Orbital Energies [Eh]
    ---------------------

    Doubly Occupied:

       1A    -20.295394     2A    -20.291982     3A    -11.142548
       4A    -11.115799     5A    -11.113998     6A    -11.085590
       7A    -11.072066     8A     -1.161864     9A     -1.061008
      10A     -0.954461    11A     -0.862112    12A     -0.743505
      13A     -0.632390    14A     -0.548987    15A     -0.494823
      16A     -0.484744    17A     -0.446031    18A     -0.418381
      19A     -0.408886    20A     -0.382818    21A     -0.375852
      22A     -0.358083    23A     -0.348270    24A     -0.211561
      25A     -0.209175    26A     -0.204709    27A     -0.191268

  @DF-RHF Final Energy:  -343.28516703227609

   => Energetics <=

    Nuclear Repulsion Energy =            270.7620940804210363
    One-Electron Energy =               -1014.8619175866633668
    Two-Electron Energy =                 400.8146564739661812
    Total Energy =                       -343.2851670322760924
  Basis Set: (AUG-CC-PVTZ AUX)
    Blend: AUG-CC-PVTZ-RI
    Molecular point group: c1

    Geometry (in Angstrom), charge = -1, multiplicity = 1:

       Center              X                  Y                   Z               Mass
    ------------   -----------------  -----------------  -----------------  -----------------
         O            2.552566832590    -0.819527455008     0.285045354622    15.994914619570
         O            1.752623832590     1.281939544992    -0.059748645378    15.994914619570
         C           -2.246972167410    -0.370178455008    -0.489557645378    12.000000000000
         C           -3.190149167410     0.203352544992     0.572735354622    12.000000000000
         C           -0.854828167410     0.168504544992    -0.352922645378    12.000000000000
         C            0.241774832590    -0.562752455008    -0.099895645378    12.000000000000
         C            1.633053832590     0.024429544992     0.053642354622    12.000000000000
         H           -2.228056167410    -1.464404455008    -0.418558645378     1.007825032230
         H           -2.643604167410    -0.124130455008    -1.483978645378     1.007825032230
         H           -2.845432167410    -0.063581455008     1.575966354622     1.007825032230
         H           -3.228531167410     1.295178544992     0.508909354622     1.007825032230
         H           -4.207695167410    -0.179157455008     0.446904354622     1.007825032230
         H           -0.727447167410     1.247861544992    -0.448226645378     1.007825032230
         H            0.148167032590    -1.660850255008     0.005898354622     1.007825032230

  Basis Set: AUG-CC-PVTZ
    Blend: AUG-CC-PVTZ
  Basis Set: (AUG-CC-PVTZ AUX)
    Blend: AUG-CC-PVTZ-JKFIT
	 Reference Energy          =    -343.2851670322760924 [Eh]
	 Singles Energy            =      -0.0000000000000000 [Eh]
	 Same-Spin Energy          =      -0.3482086532283040 [Eh]
	 Opposite-Spin Energy      =      -1.1057350903792384 [Eh]
	 Correlation Energy        =      -1.4539437436075424 [Eh]
	 Total Energy              =    -344.7391107758836597 [Eh]

	 ================> DF-SCS-MP2 Energies <==================
	-----------------------------------------------------------
	 SCS Same-Spin Scale       =       0.3333333333333333 [-]
	 SCS Opposite-Spin Scale   =       1.2000000000000000 [-]
	 SCS Same-Spin Energy      =      -0.1160695510761013 [Eh]
	 SCS Opposite-Spin Energy  =      -1.3268821084550861 [Eh]
	 SCS Correlation Energy    =      -1.4429516595311875 [Eh]
	 SCS Total Energy          =    -344.7281186918072535 [Eh]
	-----------------------------------------------------------

  Dipole Moment: [D]
     X:    -9.5138      Y:    -1.1500      Z:    -0.5699     Total:     9.6000

*** Psi4 exiting successfully. Buy a developer a beer!
