                               Psi4 1.3.2 release

  ==> Input File <==

--------------------------------------------------------------------------
#psi4
#
memory 32 gb

molecule  {
-1 1
  O        2.6974490    -0.8132830     0.2843680
  O        1.8995890     1.2895000    -0.0586210
  C       -2.0915001    -0.3778689    -0.4928919
  C       -3.0416170     0.2044990     0.5763330
  C       -0.7068700     0.1810590    -0.3555460
  C        0.3877260    -0.5533690    -0.1060630
  C        1.7796780     0.0321620     0.0520040
  H       -2.0809940    -1.4488000    -0.4417420
  H       -2.4997730    -0.0929160    -1.4864860
  H       -2.6911530    -0.0723110     1.5749530
  H       -3.0846210     1.2967820     0.5254720
  H       -4.0585250    -0.1801320     0.4514200
  H       -0.5592359     1.2587848    -0.4402640
  H        0.3072680    -1.6376370    -0.0077220
units angstrom
no_reorient  #important for SAPT in psi4, default
symmetry c1  #important for SAPT in psi4, default
}

set PROPERTIES_ORIGIN ["COM"]
properties('MP2/aug-cc-pvtz', properties = ['dipole'])
--------------------------------------------------------------------------

    Molecular point group: c1
  Charge       = -1
  Multiplicity = 1
  Basis Set: AUG-CC-PVTZ
    Blend: AUG-CC-PVTZ
  Basis Set: (AUG-CC-PVTZ AUX)
    Blend: AUG-CC-PVTZ-JKFIT

    Orbital Energies [Eh]
    ---------------------

    Doubly Occupied:

       1A    -20.295235     2A    -20.291758     3A    -11.141801
       4A    -11.116071     5A    -11.114062     6A    -11.085053
       7A    -11.069134     8A     -1.161796     9A     -1.061044
      10A     -0.953264    11A     -0.861426    12A     -0.744084
      13A     -0.633882    14A     -0.548782    15A     -0.492826
      16A     -0.486998    17A     -0.446078    18A     -0.417913
      19A     -0.405627    20A     -0.385933    21A     -0.374804
      22A     -0.357707    23A     -0.352174    24A     -0.210999
      25A     -0.209105    26A     -0.203810    27A     -0.191247

  @DF-RHF Final Energy:  -343.28512063264787

   => Energetics <=

    Nuclear Repulsion Energy =            270.8411879613371411
    One-Electron Energy =               -1015.0273921227422989
    Two-Electron Energy =                 400.9010835287572831
    Total Energy =                       -343.2851206326478746
  Basis Set: (AUG-CC-PVTZ AUX)
    Blend: AUG-CC-PVTZ-RI
    Molecular point group: c1

    Geometry (in Angstrom), charge = -1, multiplicity = 1:

       Center              X                  Y                   Z               Mass
    ------------   -----------------  -----------------  -----------------  -----------------
         O            2.549269002924    -0.819055648967     0.285641744207    15.994914619570
         O            1.751409002924     1.283727351033    -0.057347255793    15.994914619570
         C           -2.239680097076    -0.383641548967    -0.491618155793    12.000000000000
         C           -3.189796997076     0.198726351033     0.577606744207    12.000000000000
         C           -0.855049997076     0.175286351033    -0.354272255793    12.000000000000
         C            0.239546002924    -0.559141648967    -0.104789255793    12.000000000000
         C            1.631498002924     0.026389351033     0.053277744207    12.000000000000
         H           -2.229173997076    -1.454572648967    -0.440468255793     1.007825032230
         H           -2.647952997076    -0.098688648967    -1.485212255793     1.007825032230
         H           -2.839332997076    -0.078083648967     1.576226744207     1.007825032230
         H           -3.232800997076     1.291009351033     0.526745744207     1.007825032230
         H           -4.206704997076    -0.185904648967     0.452693744207     1.007825032230
         H           -0.707415897076     1.253012151033    -0.438990255793     1.007825032230
         H            0.159088002924    -1.643409648967    -0.006448255793     1.007825032230

  Basis Set: AUG-CC-PVTZ
    Blend: AUG-CC-PVTZ
  Basis Set: (AUG-CC-PVTZ AUX)
    Blend: AUG-CC-PVTZ-JKFIT
	 Reference Energy          =    -343.2851206326478746 [Eh]
	 Singles Energy            =      -0.0000000000000000 [Eh]
	 Same-Spin Energy          =      -0.3481260042386184 [Eh]
	 Opposite-Spin Energy      =      -1.1054998175052211 [Eh]
	 Correlation Energy        =      -1.4536258217438396 [Eh]
	 Total Energy              =    -344.7387464543917304 [Eh]

	 ================> DF-SCS-MP2 Energies <==================
	-----------------------------------------------------------
	 SCS Same-Spin Scale       =       0.3333333333333333 [-]
	 SCS Opposite-Spin Scale   =       1.2000000000000000 [-]
	 SCS Same-Spin Energy      =      -0.1160420014128728 [Eh]
	 SCS Opposite-Spin Energy  =      -1.3265997810062653 [Eh]
	 SCS Correlation Energy    =      -1.4426417824191382 [Eh]
	 SCS Total Energy          =    -344.7277624150669908 [Eh]
	-----------------------------------------------------------

  Dipole Moment: [D]
     X:    -9.4977      Y:    -1.1812      Z:    -0.5742     Total:     9.5881

*** Psi4 exiting successfully. Buy a developer a beer!
