                               Psi4 1.4a3.dev225

  ==> Input File <==

--------------------------------------------------------------------------
#psi4
#
memory 32 gb

molecule  {
-1 1
  O        2.6993700    -0.8109490     0.2832770
  O        1.8994270     1.2905180    -0.0615170
  C       -2.1001690    -0.3616000    -0.4913260
  C       -3.0433460     0.2119310     0.5709670
  C       -0.7080250     0.1770830    -0.3546910
  C        0.3885780    -0.5541740    -0.1016640
  C        1.7798570     0.0330080     0.0518740
  H       -2.0812530    -1.4558260    -0.4203270
  H       -2.4968010    -0.1155520    -1.4857470
  H       -2.6986290    -0.0550030     1.5741980
  H       -3.0817280     1.3037570     0.5071410
  H       -4.0608920    -0.1705790     0.4451360
  H       -0.5783089     1.2762262    -0.4517421
  H        0.3081890    -1.6372690     0.0045550
units angstrom
no_reorient  #important for SAPT in psi4, default
symmetry c1  #important for SAPT in psi4, default
}

set PROPERTIES_ORIGIN ["COM"]
properties('MP2/aug-cc-pvtz', properties = ['dipole'])
--------------------------------------------------------------------------

    Molecular point group: c1
  Charge       = -1
  Multiplicity = 1
  Basis Set: AUG-CC-PVTZ
    Blend: AUG-CC-PVTZ
  Basis Set: (AUG-CC-PVTZ AUX)
    Blend: AUG-CC-PVTZ-JKFIT

    Orbital Energies [Eh]
    ---------------------

    Doubly Occupied:

       1A    -20.295374     2A    -20.291609     3A    -11.142080
       4A    -11.115771     5A    -11.114167     6A    -11.087808
       7A    -11.070271     8A     -1.161687     9A     -1.060829
      10A     -0.954182    11A     -0.862099    12A     -0.743894
      13A     -0.631259    14A     -0.547948    15A     -0.494902
      16A     -0.485905    17A     -0.445633    18A     -0.418528
      19A     -0.408979    20A     -0.383040    21A     -0.375882
      22A     -0.357898    23A     -0.347174    24A     -0.211365
      25A     -0.208931    26A     -0.204689    27A     -0.191110

  @DF-RHF Final Energy:  -343.28502725300979

   => Energetics <=

    Nuclear Repulsion Energy =            270.7495724631554026
    One-Electron Energy =               -1014.8431695874606930
    Two-Electron Energy =                 400.8085698712954468
    Total Energy =                       -343.2850272530097868
  Basis Set: (AUG-CC-PVTZ AUX)
    Blend: AUG-CC-PVTZ-RI
    Molecular point group: c1

    Geometry (in Angstrom), charge = -1, multiplicity = 1:

       Center              X                  Y                   Z               Mass
    ------------   -----------------  -----------------  -----------------  -----------------
         O            2.552408564405    -0.819881449305     0.285058807606    15.994914619570
         O            1.752465564405     1.281585550695    -0.059735192394    15.994914619570
         C           -2.247130435595    -0.370532449305    -0.489544192394    12.000000000000
         C           -3.190307435595     0.202998550695     0.572748807606    12.000000000000
         C           -0.854986435595     0.168150550695    -0.352909192394    12.000000000000
         C            0.241616564405    -0.563106449305    -0.099882192394    12.000000000000
         C            1.632895564405     0.024075550695     0.053655807606    12.000000000000
         H           -2.228214435595    -1.464758449305    -0.418545192394     1.007825032230
         H           -2.643762435595    -0.124484449305    -1.483965192394     1.007825032230
         H           -2.845590435595    -0.063935449305     1.575979807606     1.007825032230
         H           -3.228689435595     1.294824550695     0.508922807606     1.007825032230
         H           -4.207853435595    -0.179511449305     0.446917807606     1.007825032230
         H           -0.725270335595     1.267293750695    -0.449960292394     1.007825032230
         H            0.161227564405    -1.646201449305     0.006336807606     1.007825032230

  Basis Set: AUG-CC-PVTZ
    Blend: AUG-CC-PVTZ
  Basis Set: (AUG-CC-PVTZ AUX)
    Blend: AUG-CC-PVTZ-JKFIT
	 Reference Energy          =    -343.2850272530097868 [Eh]
	 Singles Energy            =      -0.0000000000000000 [Eh]
	 Same-Spin Energy          =      -0.3482215695962765 [Eh]
	 Opposite-Spin Energy      =      -1.1057586145554299 [Eh]
	 Correlation Energy        =      -1.4539801841517064 [Eh]
	 Total Energy              =    -344.7390074371614901 [Eh]

	 ================> DF-SCS-MP2 Energies <==================
	-----------------------------------------------------------
	 SCS Same-Spin Scale       =       0.3333333333333333 [-]
	 SCS Opposite-Spin Scale   =       1.2000000000000000 [-]
	 SCS Same-Spin Energy      =      -0.1160738565320922 [Eh]
	 SCS Opposite-Spin Energy  =      -1.3269103374665159 [Eh]
	 SCS Correlation Energy    =      -1.4429841939986081 [Eh]
	 SCS Total Energy          =    -344.7280114470083845 [Eh]
	-----------------------------------------------------------

  Dipole Moment: [D]
     X:    -9.5150      Y:    -1.1702      Z:    -0.5681     Total:     9.6035

*** Psi4 exiting successfully. Buy a developer a beer!
