                               Psi4 1.3.2 release

  ==> Input File <==

--------------------------------------------------------------------------
#psi4
#
memory 32 gb

molecule  {
-1 1
  O        2.6974490    -0.8132830     0.2843680
  O        1.8995890     1.2895000    -0.0586210
  C       -2.1006760    -0.3536310    -0.4965290
  C       -3.0416170     0.2044990     0.5763330
  C       -0.7068700     0.1810590    -0.3555460
  C        0.3877260    -0.5533690    -0.1060630
  C        1.7696988     0.0563762     0.0479637
  H       -2.0809940    -1.4488000    -0.4417420
  H       -2.4997730    -0.0929160    -1.4864860
  H       -2.6911530    -0.0723110     1.5749530
  H       -3.0846210     1.2967820     0.5254720
  H       -4.0585250    -0.1801320     0.4514200
  H       -0.5779450     1.2609590    -0.4430690
  H        0.2885072    -1.6363558    -0.0107910
units angstrom
no_reorient  #important for SAPT in psi4, default
symmetry c1  #important for SAPT in psi4, default
}

set PROPERTIES_ORIGIN ["COM"]
properties('MP2/aug-cc-pvtz', properties = ['dipole'])
--------------------------------------------------------------------------

    Molecular point group: c1
  Charge       = -1
  Multiplicity = 1
  Basis Set: AUG-CC-PVTZ
    Blend: AUG-CC-PVTZ
  Basis Set: (AUG-CC-PVTZ AUX)
    Blend: AUG-CC-PVTZ-JKFIT

    Orbital Energies [Eh]
    ---------------------

    Doubly Occupied:

       1A    -20.297986     2A    -20.289359     3A    -11.142331
       4A    -11.116004     5A    -11.114178     6A    -11.085141
       7A    -11.070282     8A     -1.165109     9A     -1.058178
      10A     -0.954712    11A     -0.863136    12A     -0.743911
      13A     -0.631623    14A     -0.550638    15A     -0.494995
      16A     -0.486268    17A     -0.447301    18A     -0.418342
      19A     -0.409131    20A     -0.383598    21A     -0.375115
      22A     -0.359082    23A     -0.350007    24A     -0.212712
      25A     -0.207039    26A     -0.204884    27A     -0.190691

  @DF-RHF Final Energy:  -343.28453418132182

   => Energetics <=

    Nuclear Repulsion Energy =            270.9171877435659326
    One-Electron Energy =               -1015.1599355095224837
    Two-Electron Energy =                 400.9582135846347342
    Total Energy =                       -343.2845341813218170
  Basis Set: (AUG-CC-PVTZ AUX)
    Blend: AUG-CC-PVTZ-RI
    Molecular point group: c1

    Geometry (in Angstrom), charge = -1, multiplicity = 1:

       Center              X                  Y                   Z               Mass
    ------------   -----------------  -----------------  -----------------  -----------------
         O            2.551971061301    -0.824961146210     0.286631689745    15.994914619570
         O            1.754111061301     1.277821853790    -0.056357310255    15.994914619570
         C           -2.246153938699    -0.365309146210    -0.494265310255    12.000000000000
         C           -3.187094938699     0.192820853790     0.578596689745    12.000000000000
         C           -0.852347938699     0.169380853790    -0.353282310255    12.000000000000
         C            0.242248061301    -0.565047146210    -0.103799310255    12.000000000000
         C            1.624220861301     0.044698053790     0.050227389745    12.000000000000
         H           -2.226471938699    -1.460478146210    -0.439478310255     1.007825032230
         H           -2.645250938699    -0.104594146210    -1.484222310255     1.007825032230
         H           -2.836630938699    -0.083989146210     1.577216689745     1.007825032230
         H           -3.230098938699     1.285103853790     0.527735689745     1.007825032230
         H           -4.204002938699    -0.191810146210     0.453683689745     1.007825032230
         H           -0.723422938699     1.249280853790    -0.440805310255     1.007825032230
         H            0.143029261301    -1.648033946210    -0.008527310255     1.007825032230

  Basis Set: AUG-CC-PVTZ
    Blend: AUG-CC-PVTZ
  Basis Set: (AUG-CC-PVTZ AUX)
    Blend: AUG-CC-PVTZ-JKFIT
	 Reference Energy          =    -343.2845341813218170 [Eh]
	 Singles Energy            =      -0.0000000000000000 [Eh]
	 Same-Spin Energy          =      -0.3482282855791213 [Eh]
	 Opposite-Spin Energy      =      -1.1056708843358711 [Eh]
	 Correlation Energy        =      -1.4538991699149926 [Eh]
	 Total Energy              =    -344.7384333512368357 [Eh]

	 ================> DF-SCS-MP2 Energies <==================
	-----------------------------------------------------------
	 SCS Same-Spin Scale       =       0.3333333333333333 [-]
	 SCS Opposite-Spin Scale   =       1.2000000000000000 [-]
	 SCS Same-Spin Energy      =      -0.1160760951930404 [Eh]
	 SCS Opposite-Spin Energy  =      -1.3268050612030453 [Eh]
	 SCS Correlation Energy    =      -1.4428811563960857 [Eh]
	 SCS Total Energy          =    -344.7274153377179005 [Eh]
	-----------------------------------------------------------

  Dipole Moment: [D]
     X:    -9.6110      Y:    -0.9048      Z:    -0.6204     Total:     9.6734

*** Psi4 exiting successfully. Buy a developer a beer!
