                               Psi4 1.3.2 release

  ==> Input File <==

--------------------------------------------------------------------------
#psi4
#
memory 32 gb

molecule  {
-1 1
  O        2.6974490    -0.8132830     0.2843680
  O        1.8995890     1.2895000    -0.0586210
  C       -2.1006760    -0.3536310    -0.4965290
  C       -3.0416170     0.2044990     0.5763330
  C       -0.7068700     0.1810590    -0.3555460
  C        0.3877260    -0.5533690    -0.1060630
  C        1.7607628    -0.1661753     0.0694544
  H       -2.0809940    -1.4488000    -0.4417420
  H       -2.4997730    -0.0929160    -1.4864860
  H       -2.6911530    -0.0723110     1.5749530
  H       -3.0846210     1.2967820     0.5254720
  H       -4.0585250    -0.1801320     0.4514200
  H       -0.5779450     1.2609590    -0.4430690
  H        0.3072680    -1.6376370    -0.0077220
units angstrom
no_reorient  #important for SAPT in psi4, default
symmetry c1  #important for SAPT in psi4, default
}

set PROPERTIES_ORIGIN ["COM"]
properties('MP2/aug-cc-pvtz', properties = ['dipole'])
--------------------------------------------------------------------------

    Molecular point group: c1
  Charge       = -1
  Multiplicity = 1
  Basis Set: AUG-CC-PVTZ
    Blend: AUG-CC-PVTZ
  Basis Set: (AUG-CC-PVTZ AUX)
    Blend: AUG-CC-PVTZ-JKFIT

    Orbital Energies [Eh]
    ---------------------

    Doubly Occupied:

       1A    -20.331292     2A    -20.248177     3A    -11.138233
       4A    -11.119540     5A    -11.118945     6A    -11.097957
       7A    -11.074367     8A     -1.219749     9A     -0.980385
      10A     -0.954517    11A     -0.869726    12A     -0.756976
      13A     -0.657884    14A     -0.556758    15A     -0.501889
      16A     -0.489079    17A     -0.466745    18A     -0.426166
      19A     -0.414357    20A     -0.386794    21A     -0.376574
      22A     -0.374274    23A     -0.350005    24A     -0.218427
      25A     -0.196622    26A     -0.166705    27A     -0.153759

  @DF-RHF Final Energy:  -343.23087492877323

   => Energetics <=

    Nuclear Repulsion Energy =            270.8689344324969284
    One-Electron Energy =               -1014.9078154267373293
    Two-Electron Energy =                 400.8080060654671115
    Total Energy =                       -343.2308749287732326
  Basis Set: (AUG-CC-PVTZ AUX)
    Blend: AUG-CC-PVTZ-RI
    Molecular point group: c1

    Geometry (in Angstrom), charge = -1, multiplicity = 1:

       Center              X                  Y                   Z               Mass
    ------------   -----------------  -----------------  -----------------  -----------------
         O            2.552862825135    -0.797984318549     0.283996701030    15.994914619570
         O            1.755002825135     1.304798681451    -0.058992298970    15.994914619570
         C           -2.245262174865    -0.338332318549    -0.496900298970    12.000000000000
         C           -3.186203174865     0.219797681451     0.575961701030    12.000000000000
         C           -0.851456174865     0.196357681451    -0.355917298970    12.000000000000
         C            0.243139825135    -0.538070318549    -0.106434298970    12.000000000000
         C            1.616176625135    -0.150876618549     0.069083101030    12.000000000000
         H           -2.225580174865    -1.433501318549    -0.442113298970     1.007825032230
         H           -2.644359174865    -0.077617318549    -1.486857298970     1.007825032230
         H           -2.835739174865    -0.057012318549     1.574581701030     1.007825032230
         H           -3.229207174865     1.312080681451     0.525100701030     1.007825032230
         H           -4.203111174865    -0.164833318549     0.451048701030     1.007825032230
         H           -0.722531174865     1.276257681451    -0.443440298970     1.007825032230
         H            0.162681825135    -1.622338318549    -0.008093298970     1.007825032230

  Basis Set: AUG-CC-PVTZ
    Blend: AUG-CC-PVTZ
  Basis Set: (AUG-CC-PVTZ AUX)
    Blend: AUG-CC-PVTZ-JKFIT
	 Reference Energy          =    -343.2308749287732326 [Eh]
	 Singles Energy            =      -0.0000000000000000 [Eh]
	 Same-Spin Energy          =      -0.3500497055436658 [Eh]
	 Opposite-Spin Energy      =      -1.1104841823300917 [Eh]
	 Correlation Energy        =      -1.4605338878737575 [Eh]
	 Total Energy              =    -344.6914088166469696 [Eh]

	 ================> DF-SCS-MP2 Energies <==================
	-----------------------------------------------------------
	 SCS Same-Spin Scale       =       0.3333333333333333 [-]
	 SCS Opposite-Spin Scale   =       1.2000000000000000 [-]
	 SCS Same-Spin Energy      =      -0.1166832351812219 [Eh]
	 SCS Opposite-Spin Energy  =      -1.3325810187961100 [Eh]
	 SCS Correlation Energy    =      -1.4492642539773319 [Eh]
	 SCS Total Energy          =    -344.6801391827505654 [Eh]
	-----------------------------------------------------------

  Dipole Moment: [D]
     X:    -9.5550      Y:    -2.9177      Z:    -0.3795     Total:     9.9977

*** Psi4 exiting successfully. Buy a developer a beer!
