                               Psi4 1.3.2 release

  ==> Input File <==

--------------------------------------------------------------------------
#psi4
#
memory 32 gb

molecule  {
-1 1
  O        2.6974490    -0.8132830     0.2843680
  O        1.8995890     1.2895000    -0.0586210
  C       -2.1006760    -0.3536310    -0.4965290
  C       -3.0416170     0.2044990     0.5763330
  C       -0.7322641     0.1417159    -0.3555544
  C        0.3877260    -0.5533690    -0.1060630
  C        1.7796780     0.0321620     0.0520040
  H       -2.0809940    -1.4488000    -0.4417420
  H       -2.4997730    -0.0929160    -1.4864860
  H       -2.6911530    -0.0723110     1.5749530
  H       -3.0846210     1.2967820     0.5254720
  H       -4.0585250    -0.1801320     0.4514200
  H       -0.5779450     1.2609590    -0.4430690
  H        0.2697912    -1.6347542    -0.0139817
units angstrom
no_reorient  #important for SAPT in psi4, default
symmetry c1  #important for SAPT in psi4, default
}

set PROPERTIES_ORIGIN ["COM"]
properties('MP2/aug-cc-pvtz', properties = ['dipole'])
--------------------------------------------------------------------------

    Molecular point group: c1
  Charge       = -1
  Multiplicity = 1
  Basis Set: AUG-CC-PVTZ
    Blend: AUG-CC-PVTZ
  Basis Set: (AUG-CC-PVTZ AUX)
    Blend: AUG-CC-PVTZ-JKFIT

    Orbital Energies [Eh]
    ---------------------

    Doubly Occupied:

       1A    -20.296142     2A    -20.292929     3A    -11.144328
       4A    -11.116647     5A    -11.113252     6A    -11.086291
       7A    -11.070389     8A     -1.162648     9A     -1.061866
      10A     -0.960311    11A     -0.862448    12A     -0.748596
      13A     -0.627897    14A     -0.550696    15A     -0.498687
      16A     -0.485109    17A     -0.446425    18A     -0.418222
      19A     -0.410907    20A     -0.385433    21A     -0.380666
      22A     -0.358619    23A     -0.337583    24A     -0.213291
      25A     -0.210022    26A     -0.204236    27A     -0.191858

  @DF-RHF Final Energy:  -343.28202554305750

   => Energetics <=

    Nuclear Repulsion Energy =            271.0138297456512646
    One-Electron Energy =               -1015.3207085081469359
    Two-Electron Energy =                 401.0248532194381710
    Total Energy =                       -343.2820255430575003
  Basis Set: (AUG-CC-PVTZ AUX)
    Blend: AUG-CC-PVTZ-RI
    Molecular point group: c1

    Geometry (in Angstrom), charge = -1, multiplicity = 1:

       Center              X                  Y                   Z               Mass
    ------------   -----------------  -----------------  -----------------  -----------------
         O            2.554029136594    -0.817276997522     0.286175661545    15.994914619570
         O            1.756169136594     1.285506002478    -0.056813338455    15.994914619570
         C           -2.244095863406    -0.357624997522    -0.494721338455    12.000000000000
         C           -3.185036863406     0.200505002478     0.578140661545    12.000000000000
         C           -0.875683963406     0.137721902478    -0.353746738455    12.000000000000
         C            0.244306136594    -0.557362997522    -0.104255338455    12.000000000000
         C            1.636258136594     0.028168002478     0.053811661545    12.000000000000
         H           -2.224413863406    -1.452793997522    -0.439934338455     1.007825032230
         H           -2.643192863406    -0.096909997522    -1.484678338455     1.007825032230
         H           -2.834572863406    -0.076304997522     1.576760661545     1.007825032230
         H           -3.228040863406     1.292788002478     0.527279661545     1.007825032230
         H           -4.201944863406    -0.184125997522     0.453227661545     1.007825032230
         H           -0.721364863406     1.256965002478    -0.441261338455     1.007825032230
         H            0.126371336594    -1.638748197522    -0.012174038455     1.007825032230

  Basis Set: AUG-CC-PVTZ
    Blend: AUG-CC-PVTZ
  Basis Set: (AUG-CC-PVTZ AUX)
    Blend: AUG-CC-PVTZ-JKFIT
	 Reference Energy          =    -343.2820255430575003 [Eh]
	 Singles Energy            =      -0.0000000000000000 [Eh]
	 Same-Spin Energy          =      -0.3487473789696933 [Eh]
	 Opposite-Spin Energy      =      -1.1063373200438757 [Eh]
	 Correlation Energy        =      -1.4550846990135691 [Eh]
	 Total Energy              =    -344.7371102420710827 [Eh]

	 ================> DF-SCS-MP2 Energies <==================
	-----------------------------------------------------------
	 SCS Same-Spin Scale       =       0.3333333333333333 [-]
	 SCS Opposite-Spin Scale   =       1.2000000000000000 [-]
	 SCS Same-Spin Energy      =      -0.1162491263232311 [Eh]
	 SCS Opposite-Spin Energy  =      -1.3276047840526508 [Eh]
	 SCS Correlation Energy    =      -1.4438539103758818 [Eh]
	 SCS Total Energy          =    -344.7258794534333788 [Eh]
	-----------------------------------------------------------

  Dipole Moment: [D]
     X:    -9.5298      Y:    -1.1725      Z:    -0.5754     Total:     9.6189

*** Psi4 exiting successfully. Buy a developer a beer!
