                               Psi4 1.3.2 release

  ==> Input File <==

--------------------------------------------------------------------------
#psi4
#
memory 32 gb

molecule  {
-1 1
  O        2.6974490    -0.8132830     0.2843680
  O        1.8995890     1.2895000    -0.0586210
  C       -2.1006760    -0.3536310    -0.4965290
  C       -3.0416170     0.2044990     0.5763330
  C       -0.7068700     0.1810590    -0.3555460
  C        0.3877260    -0.5533690    -0.1060630
  C        1.8070602    -0.0415209     0.0638311
  H       -2.0809940    -1.4488000    -0.4417420
  H       -2.4997730    -0.0929160    -1.4864860
  H       -2.6911530    -0.0723110     1.5749530
  H       -3.0846210     1.2967820     0.5254720
  H       -4.0585250    -0.1801320     0.4514200
  H       -0.5779450     1.2609590    -0.4430690
  H        0.3636746    -1.6394979     0.0013016
units angstrom
no_reorient  #important for SAPT in psi4, default
symmetry c1  #important for SAPT in psi4, default
}

set PROPERTIES_ORIGIN ["COM"]
properties('MP2/aug-cc-pvtz', properties = ['dipole'])
--------------------------------------------------------------------------

    Molecular point group: c1
  Charge       = -1
  Multiplicity = 1
  Basis Set: AUG-CC-PVTZ
    Blend: AUG-CC-PVTZ
  Basis Set: (AUG-CC-PVTZ AUX)
    Blend: AUG-CC-PVTZ-JKFIT

    Orbital Energies [Eh]
    ---------------------

    Doubly Occupied:

       1A    -20.313315     2A    -20.272809     3A    -11.139706
       4A    -11.115203     5A    -11.113577     6A    -11.086497
       7A    -11.069719     8A     -1.188806     9A     -1.038846
      10A     -0.952908    11A     -0.860275    12A     -0.743896
      13A     -0.637691    14A     -0.545400    15A     -0.495393
      16A     -0.484802    17A     -0.452390    18A     -0.421093
      19A     -0.408984    20A     -0.381965    21A     -0.376996
      22A     -0.365883    23A     -0.347436    24A     -0.214553
      25A     -0.209678    26A     -0.193801    27A     -0.181254

  @DF-RHF Final Energy:  -343.27555237963344

   => Energetics <=

    Nuclear Repulsion Energy =            270.7902953753389284
    One-Electron Energy =               -1014.9059417509893137
    Two-Electron Energy =                 400.8400939960169467
    Total Energy =                       -343.2755523796334387
  Basis Set: (AUG-CC-PVTZ AUX)
    Blend: AUG-CC-PVTZ-RI
    Molecular point group: c1

    Geometry (in Angstrom), charge = -1, multiplicity = 1:

       Center              X                  Y                   Z               Mass
    ------------   -----------------  -----------------  -----------------  -----------------
         O            2.546679582879    -0.813068202688     0.284586186851    15.994914619570
         O            1.748819582879     1.289714797312    -0.058402813149    15.994914619570
         C           -2.251445417121    -0.353416202688    -0.496310813149    12.000000000000
         C           -3.192386417121     0.204713797312     0.576551186851    12.000000000000
         C           -0.857639417121     0.181273797312    -0.355327813149    12.000000000000
         C            0.236956582879    -0.553154202688    -0.105844813149    12.000000000000
         C            1.656290782879    -0.041306102688     0.064049286851    12.000000000000
         H           -2.231763417121    -1.448585202688    -0.441523813149     1.007825032230
         H           -2.650542417121    -0.092701202688    -1.486267813149     1.007825032230
         H           -2.841922417121    -0.072096202688     1.575171186851     1.007825032230
         H           -3.235390417121     1.296996797312     0.525690186851     1.007825032230
         H           -4.209294417121    -0.179917202688     0.451638186851     1.007825032230
         H           -0.728714417121     1.261173797312    -0.442850813149     1.007825032230
         H            0.212905182879    -1.639283102688     0.001519786851     1.007825032230

  Basis Set: AUG-CC-PVTZ
    Blend: AUG-CC-PVTZ
  Basis Set: (AUG-CC-PVTZ AUX)
    Blend: AUG-CC-PVTZ-JKFIT
	 Reference Energy          =    -343.2755523796334387 [Eh]
	 Singles Energy            =      -0.0000000000000000 [Eh]
	 Same-Spin Energy          =      -0.3479634589477196 [Eh]
	 Opposite-Spin Energy      =      -1.1054611621917081 [Eh]
	 Correlation Energy        =      -1.4534246211394277 [Eh]
	 Total Energy              =    -344.7289770007728862 [Eh]

	 ================> DF-SCS-MP2 Energies <==================
	-----------------------------------------------------------
	 SCS Same-Spin Scale       =       0.3333333333333333 [-]
	 SCS Opposite-Spin Scale   =       1.2000000000000000 [-]
	 SCS Same-Spin Energy      =      -0.1159878196492398 [Eh]
	 SCS Opposite-Spin Energy  =      -1.3265533946300496 [Eh]
	 SCS Correlation Energy    =      -1.4425412142792895 [Eh]
	 SCS Total Energy          =    -344.7180935939127266 [Eh]
	-----------------------------------------------------------

  Dipole Moment: [D]
     X:    -9.2409      Y:    -1.9055      Z:    -0.4568     Total:     9.4464

*** Psi4 exiting successfully. Buy a developer a beer!
