                               Psi4 1.3.2 release

  ==> Input File <==

--------------------------------------------------------------------------
#psi4
#
memory 32 gb

molecule  {
-1 1
  O        2.6974490    -0.8132830     0.2843680
  O        1.8995890     1.2895000    -0.0586210
  C       -2.1006760    -0.3536310    -0.4965290
  C       -3.0416170     0.2044990     0.5763330
  C       -0.7361842     0.2535498    -0.3625203
  C        0.3877260    -0.5533690    -0.1060630
  C        1.7796780     0.0321620     0.0520040
  H       -2.1380046    -1.4486606    -0.4485624
  H       -2.4997730    -0.0929160    -1.4864860
  H       -2.6911530    -0.0723110     1.5749530
  H       -3.0846210     1.2967820     0.5254720
  H       -4.0585250    -0.1801320     0.4514200
  H       -0.5779450     1.2609590    -0.4430690
  H        0.3072680    -1.6376370    -0.0077220
units angstrom
no_reorient  #important for SAPT in psi4, default
symmetry c1  #important for SAPT in psi4, default
}

set PROPERTIES_ORIGIN ["COM"]
properties('MP2/aug-cc-pvtz', properties = ['dipole'])
--------------------------------------------------------------------------

    Molecular point group: c1
  Charge       = -1
  Multiplicity = 1
  Basis Set: AUG-CC-PVTZ
    Blend: AUG-CC-PVTZ
  Basis Set: (AUG-CC-PVTZ AUX)
    Blend: AUG-CC-PVTZ-JKFIT

    Orbital Energies [Eh]
    ---------------------

    Doubly Occupied:

       1A    -20.295380     2A    -20.291360     3A    -11.141448
       4A    -11.114845     5A    -11.114150     6A    -11.090093
       7A    -11.080118     8A     -1.161650     9A     -1.060955
      10A     -0.952325    11A     -0.852109    12A     -0.741019
      13A     -0.646855    14A     -0.546075    15A     -0.492045
      16A     -0.489396    17A     -0.446115    18A     -0.418981
      19A     -0.407282    20A     -0.383868    21A     -0.371260
      22A     -0.363498    23A     -0.357084    24A     -0.210298
      25A     -0.208948    26A     -0.192983    27A     -0.188947

  @DF-RHF Final Energy:  -343.27375460014866

   => Energetics <=

    Nuclear Repulsion Energy =            270.1615568711877700
    One-Electron Energy =               -1013.6324466161503324
    Two-Electron Energy =                 400.1971351448138421
    Total Energy =                       -343.2737546001486635
  Basis Set: (AUG-CC-PVTZ AUX)
    Blend: AUG-CC-PVTZ-RI
    Molecular point group: c1

    Geometry (in Angstrom), charge = -1, multiplicity = 1:

       Center              X                  Y                   Z               Mass
    ------------   -----------------  -----------------  -----------------  -----------------
         O            2.554702851765    -0.830798601653     0.287025338193    15.994914619570
         O            1.756842851765     1.271984398347    -0.055963661807    15.994914619570
         C           -2.243422148235    -0.371146601653    -0.493871661807    12.000000000000
         C           -3.184363148235     0.186983398347     0.578990338193    12.000000000000
         C           -0.878930348235     0.236034198347    -0.359862961807    12.000000000000
         C            0.244979851765    -0.570884601653    -0.103405661807    12.000000000000
         C            1.636931851765     0.014646398347     0.054661338193    12.000000000000
         H           -2.280750748235    -1.466176201653    -0.445905061807     1.007825032230
         H           -2.642519148235    -0.110431601653    -1.483828661807     1.007825032230
         H           -2.833899148235    -0.089826601653     1.577610338193     1.007825032230
         H           -3.227367148235     1.279266398347     0.528129338193     1.007825032230
         H           -4.201271148235    -0.197647601653     0.454077338193     1.007825032230
         H           -0.720691148235     1.243443398347    -0.440411661807     1.007825032230
         H            0.164521851765    -1.655152601653    -0.005064661807     1.007825032230

  Basis Set: AUG-CC-PVTZ
    Blend: AUG-CC-PVTZ
  Basis Set: (AUG-CC-PVTZ AUX)
    Blend: AUG-CC-PVTZ-JKFIT
	 Reference Energy          =    -343.2737546001486635 [Eh]
	 Singles Energy            =      -0.0000000000000000 [Eh]
	 Same-Spin Energy          =      -0.3487735524346294 [Eh]
	 Opposite-Spin Energy      =      -1.1074022337047329 [Eh]
	 Correlation Energy        =      -1.4561757861393623 [Eh]
	 Total Energy              =    -344.7299303862880038 [Eh]

	 ================> DF-SCS-MP2 Energies <==================
	-----------------------------------------------------------
	 SCS Same-Spin Scale       =       0.3333333333333333 [-]
	 SCS Opposite-Spin Scale   =       1.2000000000000000 [-]
	 SCS Same-Spin Energy      =      -0.1162578508115431 [Eh]
	 SCS Opposite-Spin Energy  =      -1.3288826804456795 [Eh]
	 SCS Correlation Energy    =      -1.4451405312572225 [Eh]
	 SCS Total Energy          =    -344.7188951314058727 [Eh]
	-----------------------------------------------------------

  Dipole Moment: [D]
     X:    -9.5013      Y:    -1.1370      Z:    -0.6013     Total:     9.5880

*** Psi4 exiting successfully. Buy a developer a beer!
