                               Psi4 1.3.2 release

  ==> Input File <==

--------------------------------------------------------------------------
#psi4
#
memory 32 gb

molecule  {
-1 1
  O        2.6974490    -0.8132830     0.2843680
  O        1.8995890     1.2895000    -0.0586210
  C       -2.1006760    -0.3536310    -0.4965290
  C       -3.0416170     0.2044990     0.5763330
  C       -0.7068700     0.1810590    -0.3555460
  C        0.3877260    -0.5533690    -0.1060630
  C        1.8519844    -0.0344462     0.0703107
  H       -2.0809940    -1.4488000    -0.4417420
  H       -2.4997730    -0.0929160    -1.4864860
  H       -2.6911530    -0.0723110     1.5749530
  H       -3.0846210     1.2967820     0.5254720
  H       -4.0585250    -0.1801320     0.4514200
  H       -0.5779450     1.2609590    -0.4430690
  H        0.3072680    -1.6376370    -0.0077220
units angstrom
no_reorient  #important for SAPT in psi4, default
symmetry c1  #important for SAPT in psi4, default
}

set PROPERTIES_ORIGIN ["COM"]
properties('MP2/aug-cc-pvtz', properties = ['dipole'])
--------------------------------------------------------------------------

    Molecular point group: c1
  Charge       = -1
  Multiplicity = 1
  Basis Set: AUG-CC-PVTZ
    Blend: AUG-CC-PVTZ
  Basis Set: (AUG-CC-PVTZ AUX)
    Blend: AUG-CC-PVTZ-JKFIT

    Orbital Energies [Eh]
    ---------------------

    Doubly Occupied:

       1A    -20.318287     2A    -20.273959     3A    -11.141260
       4A    -11.112604     5A    -11.110302     6A    -11.079943
       7A    -11.065749     8A     -1.210395     9A     -1.047689
      10A     -0.949141    11A     -0.854199    12A     -0.737149
      13A     -0.627854    14A     -0.541844    15A     -0.494650
      16A     -0.480587    17A     -0.457320    18A     -0.418679
      19A     -0.406824    20A     -0.385330    21A     -0.378620
      22A     -0.376801    23A     -0.346153    24A     -0.216776
      25A     -0.208935    26A     -0.191815    27A     -0.184534

  @DF-RHF Final Energy:  -343.27402587228687

   => Energetics <=

    Nuclear Repulsion Energy =            270.7968788943465483
    One-Electron Energy =               -1014.9070083556468944
    Two-Electron Energy =                 400.8361035890135327
    Total Energy =                       -343.2740258722868703
  Basis Set: (AUG-CC-PVTZ AUX)
    Blend: AUG-CC-PVTZ-RI
    Molecular point group: c1

    Geometry (in Angstrom), charge = -1, multiplicity = 1:

       Center              X                  Y                   Z               Mass
    ------------   -----------------  -----------------  -----------------  -----------------
         O            2.541810641061    -0.813944291417     0.283892953834    15.994914619570
         O            1.743950641061     1.288838708583    -0.059096046166    15.994914619570
         C           -2.256314358939    -0.354292291417    -0.497004046166    12.000000000000
         C           -3.197255358939     0.203837708583     0.575857953834    12.000000000000
         C           -0.862508358939     0.180397708583    -0.356021046166    12.000000000000
         C            0.232087641061    -0.554030291417    -0.106538046166    12.000000000000
         C            1.696346041061    -0.035107491417     0.069835653834    12.000000000000
         H           -2.236632358939    -1.449461291417    -0.442217046166     1.007825032230
         H           -2.655411358939    -0.093577291417    -1.486961046166     1.007825032230
         H           -2.846791358939    -0.072972291417     1.574477953834     1.007825032230
         H           -3.240259358939     1.296120708583     0.524996953834     1.007825032230
         H           -4.214163358939    -0.180793291417     0.450944953834     1.007825032230
         H           -0.733583358939     1.260297708583    -0.443544046166     1.007825032230
         H            0.151629641061    -1.638298291417    -0.008197046166     1.007825032230

  Basis Set: AUG-CC-PVTZ
    Blend: AUG-CC-PVTZ
  Basis Set: (AUG-CC-PVTZ AUX)
    Blend: AUG-CC-PVTZ-JKFIT
	 Reference Energy          =    -343.2740258722868703 [Eh]
	 Singles Energy            =      -0.0000000000000000 [Eh]
	 Same-Spin Energy          =      -0.3471591175850247 [Eh]
	 Opposite-Spin Energy      =      -1.1036567633609540 [Eh]
	 Correlation Energy        =      -1.4508158809459788 [Eh]
	 Total Energy              =    -344.7248417532328517 [Eh]

	 ================> DF-SCS-MP2 Energies <==================
	-----------------------------------------------------------
	 SCS Same-Spin Scale       =       0.3333333333333333 [-]
	 SCS Opposite-Spin Scale   =       1.2000000000000000 [-]
	 SCS Same-Spin Energy      =      -0.1157197058616749 [Eh]
	 SCS Opposite-Spin Energy  =      -1.3243881160331448 [Eh]
	 SCS Correlation Energy    =      -1.4401078218948196 [Eh]
	 SCS Total Energy          =    -344.7141336941816689 [Eh]
	-----------------------------------------------------------

  Dipole Moment: [D]
     X:    -8.8529      Y:    -1.9300      Z:    -0.4033     Total:     9.0698

*** Psi4 exiting successfully. Buy a developer a beer!
