                               Psi4 1.3.2 release

  ==> Input File <==

--------------------------------------------------------------------------
#psi4
#
memory 32 gb

molecule  {
-1 1
  O        2.6974490    -0.8132830     0.2843680
  O        1.8995890     1.2895000    -0.0586210
  C       -2.1006760    -0.3536310    -0.4965290
  C       -3.0416170     0.2044990     0.5763330
  C       -0.7133448     0.1713053    -0.3555766
  C        0.3877260    -0.5533690    -0.1060630
  C        1.7796780     0.0321620     0.0520040
  H       -2.0809940    -1.4488000    -0.4417420
  H       -2.4997730    -0.0929160    -1.4864860
  H       -2.6911530    -0.0723110     1.5749530
  H       -3.0846210     1.2967820     0.5254720
  H       -4.0585250    -0.1801320     0.4514200
  H       -0.5779450     1.2609590    -0.4430690
  H        0.2978878    -1.6370400    -0.0092760
units angstrom
no_reorient  #important for SAPT in psi4, default
symmetry c1  #important for SAPT in psi4, default
}

set PROPERTIES_ORIGIN ["COM"]
properties('MP2/aug-cc-pvtz', properties = ['dipole'])
--------------------------------------------------------------------------

    Molecular point group: c1
  Charge       = -1
  Multiplicity = 1
  Basis Set: AUG-CC-PVTZ
    Blend: AUG-CC-PVTZ
  Basis Set: (AUG-CC-PVTZ AUX)
    Blend: AUG-CC-PVTZ-JKFIT

    Orbital Energies [Eh]
    ---------------------

    Doubly Occupied:

       1A    -20.295536     2A    -20.291965     3A    -11.142573
       4A    -11.115988     5A    -11.113821     6A    -11.085571
       7A    -11.070064     8A     -1.162007     9A     -1.061230
      10A     -0.955709    11A     -0.862352    12A     -0.744968
      13A     -0.631597    14A     -0.549363    15A     -0.495580
      16A     -0.485891    17A     -0.445960    18A     -0.418716
      19A     -0.409446    20A     -0.383365    21A     -0.377263
      22A     -0.358125    23A     -0.346485    24A     -0.211739
      25A     -0.209268    26A     -0.204539    27A     -0.191349

  @DF-RHF Final Energy:  -343.28532238666435

   => Energetics <=

    Nuclear Repulsion Energy =            270.8912641490083502
    One-Electron Energy =               -1015.1122367304736827
    Two-Electron Energy =                 400.9356501948009281
    Total Energy =                       -343.2853223866643475
  Basis Set: (AUG-CC-PVTZ AUX)
    Blend: AUG-CC-PVTZ-RI
    Molecular point group: c1

    Geometry (in Angstrom), charge = -1, multiplicity = 1:

       Center              X                  Y                   Z               Mass
    ------------   -----------------  -----------------  -----------------  -----------------
         O            2.551451024861    -0.820838717168     0.286130468550    15.994914619570
         O            1.753591024861     1.281944282832    -0.056858531450    15.994914619570
         C           -2.246673975139    -0.361186717168    -0.494766531450    12.000000000000
         C           -3.187614975139     0.196943282832     0.578095468550    12.000000000000
         C           -0.859342775139     0.163749582832    -0.353814131450    12.000000000000
         C            0.241728024861    -0.560924717168    -0.104300531450    12.000000000000
         C            1.633680024861     0.024606282832     0.053766468550    12.000000000000
         H           -2.226991975139    -1.456355717168    -0.439979531450     1.007825032230
         H           -2.645770975139    -0.100471717168    -1.484723531450     1.007825032230
         H           -2.837150975139    -0.079866717168     1.576715468550     1.007825032230
         H           -3.230618975139     1.289226282832     0.527234468550     1.007825032230
         H           -4.204522975139    -0.187687717168     0.453182468550     1.007825032230
         H           -0.723942975139     1.253403282832    -0.441306531450     1.007825032230
         H            0.151889824861    -1.644595717168    -0.007513531450     1.007825032230

  Basis Set: AUG-CC-PVTZ
    Blend: AUG-CC-PVTZ
  Basis Set: (AUG-CC-PVTZ AUX)
    Blend: AUG-CC-PVTZ-JKFIT
	 Reference Energy          =    -343.2853223866643475 [Eh]
	 Singles Energy            =      -0.0000000000000000 [Eh]
	 Same-Spin Energy          =      -0.3482767270905017 [Eh]
	 Opposite-Spin Energy      =      -1.1057205907181036 [Eh]
	 Correlation Energy        =      -1.4539973178086054 [Eh]
	 Total Energy              =    -344.7393197044729618 [Eh]

	 ================> DF-SCS-MP2 Energies <==================
	-----------------------------------------------------------
	 SCS Same-Spin Scale       =       0.3333333333333333 [-]
	 SCS Opposite-Spin Scale   =       1.2000000000000000 [-]
	 SCS Same-Spin Energy      =      -0.1160922423635006 [Eh]
	 SCS Opposite-Spin Energy  =      -1.3268647088617243 [Eh]
	 SCS Correlation Energy    =      -1.4429569512252249 [Eh]
	 SCS Total Energy          =    -344.7282793378895462 [Eh]
	-----------------------------------------------------------

  Dipole Moment: [D]
     X:    -9.5169      Y:    -1.1576      Z:    -0.5782     Total:     9.6045

*** Psi4 exiting successfully. Buy a developer a beer!
