                               Psi4 1.3.2 release

  ==> Input File <==

--------------------------------------------------------------------------
#psi4
#
memory 32 gb

molecule  {
-1 1
  O        2.6974490    -0.8132830     0.2843680
  O        1.8341634     1.2930523    -0.0692494
  C       -2.1006760    -0.3536310    -0.4965290
  C       -3.0416170     0.2044990     0.5763330
  C       -0.7068700     0.1810590    -0.3555460
  C        0.3603518    -0.4796914    -0.1179416
  C        1.7796780     0.0321620     0.0520040
  H       -2.0809940    -1.4488000    -0.4417420
  H       -2.4997730    -0.0929160    -1.4864860
  H       -2.6911530    -0.0723110     1.5749530
  H       -3.0846210     1.2967820     0.5254720
  H       -4.0585250    -0.1801320     0.4514200
  H       -0.5779450     1.2609590    -0.4430690
  H        0.3072680    -1.6376370    -0.0077220
units angstrom
no_reorient  #important for SAPT in psi4, default
symmetry c1  #important for SAPT in psi4, default
}

set PROPERTIES_ORIGIN ["COM"]
properties('MP2/aug-cc-pvtz', properties = ['dipole'])
--------------------------------------------------------------------------

    Molecular point group: c1
  Charge       = -1
  Multiplicity = 1
  Basis Set: AUG-CC-PVTZ
    Blend: AUG-CC-PVTZ
  Basis Set: (AUG-CC-PVTZ AUX)
    Blend: AUG-CC-PVTZ-JKFIT

    Orbital Energies [Eh]
    ---------------------

    Doubly Occupied:

       1A    -20.302102     2A    -20.293236     3A    -11.144950
       4A    -11.114602     5A    -11.112652     6A    -11.072319
       7A    -11.063371     8A     -1.163809     9A     -1.068065
      10A     -0.956909    11A     -0.869858    12A     -0.741489
      13A     -0.630184    14A     -0.547494    15A     -0.496031
      16A     -0.478470    17A     -0.449022    18A     -0.418590
      19A     -0.407831    20A     -0.382475    21A     -0.379836
      22A     -0.361385    23A     -0.330412    24A     -0.218213
      25A     -0.217725    26A     -0.205550    27A     -0.194999

  @DF-RHF Final Energy:  -343.27741489724411

   => Energetics <=

    Nuclear Repulsion Energy =            272.0814878837440460
    One-Electron Energy =               -1017.4746472066923388
    Two-Electron Energy =                 402.1157444257042357
    Total Energy =                       -343.2774148972441139
  Basis Set: (AUG-CC-PVTZ AUX)
    Blend: AUG-CC-PVTZ-RI
    Molecular point group: c1

    Geometry (in Angstrom), charge = -1, multiplicity = 1:

       Center              X                  Y                   Z               Mass
    ------------   -----------------  -----------------  -----------------  -----------------
         O            2.564453409923    -0.831514641106     0.289266532268    15.994914619570
         O            1.701167809923     1.274820658894    -0.064350867732    15.994914619570
         C           -2.233671590077    -0.371862641106    -0.491630467732    12.000000000000
         C           -3.174612590077     0.186267358894     0.581231532268    12.000000000000
         C           -0.839865590077     0.162827358894    -0.350647467732    12.000000000000
         C            0.227356209923    -0.497923041106    -0.113043067732    12.000000000000
         C            1.646682409923     0.013930358894     0.056902532268    12.000000000000
         H           -2.213989590077    -1.467031641106    -0.436843467732     1.007825032230
         H           -2.632768590077    -0.111147641106    -1.481587467732     1.007825032230
         H           -2.824148590077    -0.090542641106     1.579851532268     1.007825032230
         H           -3.217616590077     1.278550358894     0.530370532268     1.007825032230
         H           -4.191520590077    -0.198363641106     0.456318532268     1.007825032230
         H           -0.710940590077     1.242727358894    -0.438170467732     1.007825032230
         H            0.174272409923    -1.655868641106    -0.002823467732     1.007825032230

  Basis Set: AUG-CC-PVTZ
    Blend: AUG-CC-PVTZ
  Basis Set: (AUG-CC-PVTZ AUX)
    Blend: AUG-CC-PVTZ-JKFIT
	 Reference Energy          =    -343.2774148972441139 [Eh]
	 Singles Energy            =      -0.0000000000000000 [Eh]
	 Same-Spin Energy          =      -0.3481487902830691 [Eh]
	 Opposite-Spin Energy      =      -1.1051330932376162 [Eh]
	 Correlation Energy        =      -1.4532818835206853 [Eh]
	 Total Energy              =    -344.7306967807647879 [Eh]

	 ================> DF-SCS-MP2 Energies <==================
	-----------------------------------------------------------
	 SCS Same-Spin Scale       =       0.3333333333333333 [-]
	 SCS Opposite-Spin Scale   =       1.2000000000000000 [-]
	 SCS Same-Spin Energy      =      -0.1160495967610230 [Eh]
	 SCS Opposite-Spin Energy  =      -1.3261597118851394 [Eh]
	 SCS Correlation Energy    =      -1.4422093086461625 [Eh]
	 SCS Total Energy          =    -344.7196242058902840 [Eh]
	-----------------------------------------------------------

  Dipole Moment: [D]
     X:    -9.2870      Y:    -0.9970      Z:    -0.5601     Total:     9.3572

*** Psi4 exiting successfully. Buy a developer a beer!
