                               Psi4 1.3.2 release

  ==> Input File <==

--------------------------------------------------------------------------
#psi4
#
memory 32 gb

molecule  {
-1 1
  O        2.6974490    -0.8132830     0.2843680
  O        1.8995890     1.2895000    -0.0586210
  C       -2.1177515    -0.3046739    -0.5036733
  C       -3.0416170     0.2044990     0.5763330
  C       -0.7068700     0.1810590    -0.3555460
  C        0.3877260    -0.5533690    -0.1060630
  C        1.7796780     0.0321620     0.0520040
  H       -2.0809940    -1.4488000    -0.4417420
  H       -2.4997730    -0.0929160    -1.4864860
  H       -2.6911530    -0.0723110     1.5749530
  H       -3.0846210     1.2967820     0.5254720
  H       -4.0585250    -0.1801320     0.4514200
  H       -0.6154754     1.2643199    -0.4485983
  H        0.3072680    -1.6376370    -0.0077220
units angstrom
no_reorient  #important for SAPT in psi4, default
symmetry c1  #important for SAPT in psi4, default
}

set PROPERTIES_ORIGIN ["COM"]
properties('MP2/aug-cc-pvtz', properties = ['dipole'])
--------------------------------------------------------------------------

    Molecular point group: c1
  Charge       = -1
  Multiplicity = 1
  Basis Set: AUG-CC-PVTZ
    Blend: AUG-CC-PVTZ
  Basis Set: (AUG-CC-PVTZ AUX)
    Blend: AUG-CC-PVTZ-JKFIT

    Orbital Energies [Eh]
    ---------------------

    Doubly Occupied:

       1A    -20.295672     2A    -20.291569     3A    -11.142503
       4A    -11.115523     5A    -11.114536     6A    -11.086378
       7A    -11.071919     8A     -1.161946     9A     -1.061117
      10A     -0.956678    11A     -0.864291    12A     -0.743987
      13A     -0.632052    14A     -0.549182    15A     -0.498674
      16A     -0.484532    17A     -0.445781    18A     -0.425548
      19A     -0.413889    20A     -0.377650    21A     -0.376771
      22A     -0.358490    23A     -0.339044    24A     -0.211795
      25A     -0.208920    26A     -0.206397    27A     -0.191177

  @DF-RHF Final Energy:  -343.28198949845427

   => Energetics <=

    Nuclear Repulsion Energy =            270.8814218104792531
    One-Electron Energy =               -1015.0747806970775855
    Two-Electron Energy =                 400.9113693881441236
    Total Energy =                       -343.2819894984542657
  Basis Set: (AUG-CC-PVTZ AUX)
    Blend: AUG-CC-PVTZ-RI
    Molecular point group: c1

    Geometry (in Angstrom), charge = -1, multiplicity = 1:

       Center              X                  Y                   Z               Mass
    ------------   -----------------  -----------------  -----------------  -----------------
         O            2.553021820939    -0.827980096867     0.287032797429    15.994914619570
         O            1.755161820939     1.274802903133    -0.055956202571    15.994914619570
         C           -2.262178679061    -0.319370996867    -0.501008502571    12.000000000000
         C           -3.186044179061     0.189801903133     0.578997797429    12.000000000000
         C           -0.851297179061     0.166361903133    -0.352881202571    12.000000000000
         C            0.243298820939    -0.568066096867    -0.103398202571    12.000000000000
         C            1.635250820939     0.017464903133     0.054668797429    12.000000000000
         H           -2.225421179061    -1.463497096867    -0.439077202571     1.007825032230
         H           -2.644200179061    -0.107613096867    -1.483821202571     1.007825032230
         H           -2.835580179061    -0.087008096867     1.577617797429     1.007825032230
         H           -3.229048179061     1.282084903133     0.528136797429     1.007825032230
         H           -4.202952179061    -0.194829096867     0.454084797429     1.007825032230
         H           -0.759902579061     1.249622803133    -0.445933502571     1.007825032230
         H            0.162840820939    -1.652334096867    -0.005057202571     1.007825032230

  Basis Set: AUG-CC-PVTZ
    Blend: AUG-CC-PVTZ
  Basis Set: (AUG-CC-PVTZ AUX)
    Blend: AUG-CC-PVTZ-JKFIT
	 Reference Energy          =    -343.2819894984542657 [Eh]
	 Singles Energy            =      -0.0000000000000000 [Eh]
	 Same-Spin Energy          =      -0.3482875972443660 [Eh]
	 Opposite-Spin Energy      =      -1.1059711539884636 [Eh]
	 Correlation Energy        =      -1.4542587512328295 [Eh]
	 Total Energy              =    -344.7362482496870939 [Eh]

	 ================> DF-SCS-MP2 Energies <==================
	-----------------------------------------------------------
	 SCS Same-Spin Scale       =       0.3333333333333333 [-]
	 SCS Opposite-Spin Scale   =       1.2000000000000000 [-]
	 SCS Same-Spin Energy      =      -0.1160958657481220 [Eh]
	 SCS Opposite-Spin Energy  =      -1.3271653847861562 [Eh]
	 SCS Correlation Energy    =      -1.4432612505342781 [Eh]
	 SCS Total Energy          =    -344.7252507489885716 [Eh]
	-----------------------------------------------------------

  Dipole Moment: [D]
     X:    -9.5294      Y:    -1.0894      Z:    -0.5838     Total:     9.6092

*** Psi4 exiting successfully. Buy a developer a beer!
