                               Psi4 1.3.2 release

  ==> Input File <==

--------------------------------------------------------------------------
#psi4
#
memory 32 gb

molecule  {
-1 1
  O        2.6974490    -0.8132830     0.2843680
  O        1.9430345     1.2852162    -0.0513651
  C       -2.1006760    -0.3536310    -0.4965290
  C       -3.0416170     0.2044990     0.5763330
  C       -0.7068700     0.1810590    -0.3555460
  C        0.4081001    -0.6016081    -0.0979012
  C        1.7796780     0.0321620     0.0520040
  H       -2.0809940    -1.4488000    -0.4417420
  H       -2.4997730    -0.0929160    -1.4864860
  H       -2.6911530    -0.0723110     1.5749530
  H       -3.0846210     1.2967820     0.5254720
  H       -4.0585250    -0.1801320     0.4514200
  H       -0.5779450     1.2609590    -0.4430690
  H        0.3072680    -1.6376370    -0.0077220
units angstrom
no_reorient  #important for SAPT in psi4, default
symmetry c1  #important for SAPT in psi4, default
}

set PROPERTIES_ORIGIN ["COM"]
properties('MP2/aug-cc-pvtz', properties = ['dipole'])
--------------------------------------------------------------------------

    Molecular point group: c1
  Charge       = -1
  Multiplicity = 1
  Basis Set: AUG-CC-PVTZ
    Blend: AUG-CC-PVTZ
  Basis Set: (AUG-CC-PVTZ AUX)
    Blend: AUG-CC-PVTZ-JKFIT

    Orbital Energies [Eh]
    ---------------------

    Doubly Occupied:

       1A    -20.291131     2A    -20.291016     3A    -11.140795
       4A    -11.116598     5A    -11.115007     6A    -11.094168
       7A    -11.074978     8A     -1.161202     9A     -1.056924
      10A     -0.953111    11A     -0.857873    12A     -0.745839
      13A     -0.635680    14A     -0.551119    15A     -0.497205
      16A     -0.487869    17A     -0.444338    18A     -0.420425
      19A     -0.409768    20A     -0.384933    21A     -0.371356
      22A     -0.358087    23A     -0.356219    24A     -0.211828
      25A     -0.205202    26A     -0.196414    27A     -0.188721

  @DF-RHF Final Energy:  -343.27903651618749

   => Energetics <=

    Nuclear Repulsion Energy =            270.1035558549235134
    One-Electron Energy =               -1013.5295758215712567
    Two-Electron Energy =                 400.1469834504603114
    Total Energy =                       -343.2790365161874888
  Basis Set: (AUG-CC-PVTZ AUX)
    Blend: AUG-CC-PVTZ-RI
    Molecular point group: c1

    Geometry (in Angstrom), charge = -1, multiplicity = 1:

       Center              X                  Y                   Z               Mass
    ------------   -----------------  -----------------  -----------------  -----------------
         O            2.541086528289    -0.815478046694     0.283950314848    15.994914619570
         O            1.786672028289     1.283021153306    -0.051782785152    15.994914619570
         C           -2.257038471711    -0.355826046694    -0.496946685152    12.000000000000
         C           -3.197979471711     0.202303953306     0.575915314848    12.000000000000
         C           -0.863232471711     0.178863953306    -0.355963685152    12.000000000000
         C            0.251737628289    -0.603803146694    -0.098318885152    12.000000000000
         C            1.623315528289     0.029966953306     0.051586314848    12.000000000000
         H           -2.237356471711    -1.450995046694    -0.442159685152     1.007825032230
         H           -2.656135471711    -0.095111046694    -1.486903685152     1.007825032230
         H           -2.847515471711    -0.074506046694     1.574535314848     1.007825032230
         H           -3.240983471711     1.294586953306     0.525054314848     1.007825032230
         H           -4.214887471711    -0.182327046694     0.451002314848     1.007825032230
         H           -0.734307471711     1.258763953306    -0.443486685152     1.007825032230
         H            0.150905528289    -1.639832046694    -0.008139685152     1.007825032230

  Basis Set: AUG-CC-PVTZ
    Blend: AUG-CC-PVTZ
  Basis Set: (AUG-CC-PVTZ AUX)
    Blend: AUG-CC-PVTZ-JKFIT
	 Reference Energy          =    -343.2790365161874888 [Eh]
	 Singles Energy            =      -0.0000000000000000 [Eh]
	 Same-Spin Energy          =      -0.3484855968504520 [Eh]
	 Opposite-Spin Energy      =      -1.1066086301670945 [Eh]
	 Correlation Energy        =      -1.4550942270175464 [Eh]
	 Total Energy              =    -344.7341307432050144 [Eh]

	 ================> DF-SCS-MP2 Energies <==================
	-----------------------------------------------------------
	 SCS Same-Spin Scale       =       0.3333333333333333 [-]
	 SCS Opposite-Spin Scale   =       1.2000000000000000 [-]
	 SCS Same-Spin Energy      =      -0.1161618656168173 [Eh]
	 SCS Opposite-Spin Energy  =      -1.3279303562005134 [Eh]
	 SCS Correlation Energy    =      -1.4440922218173307 [Eh]
	 SCS Total Energy          =    -344.7231287380048457 [Eh]
	-----------------------------------------------------------

  Dipole Moment: [D]
     X:    -9.6340      Y:    -1.2269      Z:    -0.5903     Total:     9.7297

*** Psi4 exiting successfully. Buy a developer a beer!
