                               Psi4 1.4a3.dev225

  ==> Input File <==

--------------------------------------------------------------------------
#psi4
#
memory 32 gb

molecule  {
-1 1
  O        2.6993700    -0.8109490     0.2832770
  O        1.8994270     1.2905180    -0.0615170
  C       -2.1001690    -0.3616000    -0.4913260
  C       -3.0433460     0.2119310     0.5709670
  C       -0.7080250     0.1770830    -0.3546910
  C        0.4049193    -0.5650710    -0.0978935
  C        1.7798570     0.0330080     0.0518740
  H       -2.0812530    -1.4558260    -0.4203270
  H       -2.4968010    -0.1155520    -1.4857470
  H       -2.6986290    -0.0550030     1.5741980
  H       -3.0817280     1.3037570     0.5071410
  H       -4.0608920    -0.1705790     0.4451360
  H       -0.5806440     1.2564400    -0.4499950
  H        0.3081890    -1.6372690     0.0045550
units angstrom
no_reorient  #important for SAPT in psi4, default
symmetry c1  #important for SAPT in psi4, default
}

set PROPERTIES_ORIGIN ["COM"]
properties('MP2/aug-cc-pvtz', properties = ['dipole'])
--------------------------------------------------------------------------

    Molecular point group: c1
  Charge       = -1
  Multiplicity = 1
  Basis Set: AUG-CC-PVTZ
    Blend: AUG-CC-PVTZ
  Basis Set: (AUG-CC-PVTZ AUX)
    Blend: AUG-CC-PVTZ-JKFIT

    Orbital Energies [Eh]
    ---------------------

    Doubly Occupied:

       1A    -20.294608     2A    -20.291453     3A    -11.141103
       4A    -11.116026     5A    -11.114434     6A    -11.088840
       7A    -11.071792     8A     -1.161772     9A     -1.060636
      10A     -0.953404    11A     -0.859924    12A     -0.744906
      13A     -0.634653    14A     -0.549827    15A     -0.495266
      16A     -0.486342    17A     -0.445461    18A     -0.418902
      19A     -0.409304    20A     -0.383743    21A     -0.374562
      22A     -0.358066    23A     -0.351005    24A     -0.211750
      25A     -0.208985    26A     -0.200038    27A     -0.190846

  @DF-RHF Final Energy:  -343.28410278626484

   => Energetics <=

    Nuclear Repulsion Energy =            270.7257089120559499
    One-Electron Energy =               -1014.7843238152795493
    Two-Electron Energy =                 400.7745121169587037
    Total Energy =                       -343.2841027862648389
  Basis Set: (AUG-CC-PVTZ AUX)
    Blend: AUG-CC-PVTZ-RI
    Molecular point group: c1

    Geometry (in Angstrom), charge = -1, multiplicity = 1:

       Center              X                  Y                   Z               Mass
    ------------   -----------------  -----------------  -----------------  -----------------
         O            2.550452453531    -0.818359861849     0.284584205569    15.994914619570
         O            1.750509453531     1.283107138151    -0.060209794431    15.994914619570
         C           -2.249086546469    -0.369010861849    -0.490018794431    12.000000000000
         C           -3.192263546469     0.204520138151     0.572274205569    12.000000000000
         C           -0.856942546469     0.169672138151    -0.353383794431    12.000000000000
         C            0.256001753531    -0.572481861849    -0.096586294431    12.000000000000
         C            1.630939453531     0.025597138151     0.053181205569    12.000000000000
         H           -2.230170546469    -1.463236861849    -0.419019794431     1.007825032230
         H           -2.645718546469    -0.122962861849    -1.484439794431     1.007825032230
         H           -2.847546546469    -0.062413861849     1.575505205569     1.007825032230
         H           -3.230645546469     1.296346138151     0.508448205569     1.007825032230
         H           -4.209809546469    -0.177989861849     0.446443205569     1.007825032230
         H           -0.729561546469     1.249029138151    -0.448687794431     1.007825032230
         H            0.159271453531    -1.644679861849     0.005862205569     1.007825032230

  Basis Set: AUG-CC-PVTZ
    Blend: AUG-CC-PVTZ
  Basis Set: (AUG-CC-PVTZ AUX)
    Blend: AUG-CC-PVTZ-JKFIT
	 Reference Energy          =    -343.2841027862648389 [Eh]
	 Singles Energy            =      -0.0000000000000000 [Eh]
	 Same-Spin Energy          =      -0.3483897551905658 [Eh]
	 Opposite-Spin Energy      =      -1.1061477976126608 [Eh]
	 Correlation Energy        =      -1.4545375528032265 [Eh]
	 Total Energy              =    -344.7386403390680698 [Eh]

	 ================> DF-SCS-MP2 Energies <==================
	-----------------------------------------------------------
	 SCS Same-Spin Scale       =       0.3333333333333333 [-]
	 SCS Opposite-Spin Scale   =       1.2000000000000000 [-]
	 SCS Same-Spin Energy      =      -0.1161299183968553 [Eh]
	 SCS Opposite-Spin Energy  =      -1.3273773571351930 [Eh]
	 SCS Correlation Energy    =      -1.4435072755320482 [Eh]
	 SCS Total Energy          =    -344.7276100617968950 [Eh]
	-----------------------------------------------------------

  Dipole Moment: [D]
     X:    -9.5256      Y:    -1.1870      Z:    -0.5675     Total:     9.6160

*** Psi4 exiting successfully. Buy a developer a beer!
