                               Psi4 1.3.2 release

  ==> Input File <==

--------------------------------------------------------------------------
#psi4
#
memory 32 gb

molecule  {
-1 1
  O        2.6974490    -0.8132830     0.2843680
  O        1.8995890     1.2895000    -0.0586210
  C       -2.1006760    -0.3536310    -0.4965290
  C       -3.0416170     0.2044990     0.5763330
  C       -0.6936611     0.2003916    -0.3554893
  C        0.3877260    -0.5533690    -0.1060630
  C        1.7697093     0.0563692     0.0478965
  H       -2.0809940    -1.4488000    -0.4417420
  H       -2.4997730    -0.0929160    -1.4864860
  H       -2.6911530    -0.0723110     1.5749530
  H       -3.0846210     1.2967820     0.5254720
  H       -4.0585250    -0.1801320     0.4514200
  H       -0.5779450     1.2609590    -0.4430690
  H        0.3072680    -1.6376370    -0.0077220
units angstrom
no_reorient  #important for SAPT in psi4, default
symmetry c1  #important for SAPT in psi4, default
}

set PROPERTIES_ORIGIN ["COM"]
properties('MP2/aug-cc-pvtz', properties = ['dipole'])
--------------------------------------------------------------------------

    Molecular point group: c1
  Charge       = -1
  Multiplicity = 1
  Basis Set: AUG-CC-PVTZ
    Blend: AUG-CC-PVTZ
  Basis Set: (AUG-CC-PVTZ AUX)
    Blend: AUG-CC-PVTZ-JKFIT

    Orbital Energies [Eh]
    ---------------------

    Doubly Occupied:

       1A    -20.297397     2A    -20.289021     3A    -11.141236
       4A    -11.115595     5A    -11.114491     6A    -11.084862
       7A    -11.070283     8A     -1.164728     9A     -1.057839
      10A     -0.951887    11A     -0.863223    12A     -0.741633
      13A     -0.634588    14A     -0.549840    15A     -0.493503
      16A     -0.486157    17A     -0.447526    18A     -0.419545
      19A     -0.407976    20A     -0.382948    21A     -0.372935
      22A     -0.358825    23A     -0.353288    24A     -0.211897
      25A     -0.206392    26A     -0.205153    27A     -0.190453

  @DF-RHF Final Energy:  -343.28439787591748

   => Energetics <=

    Nuclear Repulsion Energy =            270.8441495798667802
    One-Electron Energy =               -1015.0306529207135782
    Two-Electron Energy =                 400.9021054649293205
    Total Energy =                       -343.2843978759174774
  Basis Set: (AUG-CC-PVTZ AUX)
    Blend: AUG-CC-PVTZ-RI
    Molecular point group: c1

    Geometry (in Angstrom), charge = -1, multiplicity = 1:

       Center              X                  Y                   Z               Mass
    ------------   -----------------  -----------------  -----------------  -----------------
         O            2.550178531513    -0.827289551435     0.286601733393    15.994914619570
         O            1.752318531513     1.275493448565    -0.056387266607    15.994914619570
         C           -2.247946468487    -0.367637551435    -0.494295266607    12.000000000000
         C           -3.188887468487     0.190492448565     0.578566733393    12.000000000000
         C           -0.840931568487     0.186385048565    -0.353255566607    12.000000000000
         C            0.240455531513    -0.567375551435    -0.103829266607    12.000000000000
         C            1.622438831513     0.042362648565     0.050130233393    12.000000000000
         H           -2.228264468487    -1.462806551435    -0.439508266607     1.007825032230
         H           -2.647043468487    -0.106922551435    -1.484252266607     1.007825032230
         H           -2.838423468487    -0.086317551435     1.577186733393     1.007825032230
         H           -3.231891468487     1.282775448565     0.527705733393     1.007825032230
         H           -4.205795468487    -0.194138551435     0.453653733393     1.007825032230
         H           -0.725215468487     1.246952448565    -0.440835266607     1.007825032230
         H            0.159997531513    -1.651643551435    -0.005488266607     1.007825032230

  Basis Set: AUG-CC-PVTZ
    Blend: AUG-CC-PVTZ
  Basis Set: (AUG-CC-PVTZ AUX)
    Blend: AUG-CC-PVTZ-JKFIT
	 Reference Energy          =    -343.2843978759174774 [Eh]
	 Singles Energy            =      -0.0000000000000000 [Eh]
	 Same-Spin Energy          =      -0.3479886207776535 [Eh]
	 Opposite-Spin Energy      =      -1.1054225330383283 [Eh]
	 Correlation Energy        =      -1.4534111538159817 [Eh]
	 Total Energy              =    -344.7378090297334552 [Eh]

	 ================> DF-SCS-MP2 Energies <==================
	-----------------------------------------------------------
	 SCS Same-Spin Scale       =       0.3333333333333333 [-]
	 SCS Opposite-Spin Scale   =       1.2000000000000000 [-]
	 SCS Same-Spin Energy      =      -0.1159962069258845 [Eh]
	 SCS Opposite-Spin Energy  =      -1.3265070396459939 [Eh]
	 SCS Correlation Energy    =      -1.4425032465718783 [Eh]
	 SCS Total Energy          =    -344.7269011224893802 [Eh]
	-----------------------------------------------------------

  Dipole Moment: [D]
     X:    -9.5966      Y:    -0.8962      Z:    -0.6213     Total:     9.6583

*** Psi4 exiting successfully. Buy a developer a beer!
