                               Psi4 1.3.2 release

  ==> Input File <==

--------------------------------------------------------------------------
#psi4
#
memory 32 gb

molecule  {
-1 1
  O        2.6974490    -0.8132830     0.2843680
  O        1.8995890     1.2895000    -0.0586210
  C       -2.1006760    -0.3536310    -0.4965290
  C       -3.0516668     0.1973634     0.5711477
  C       -0.7031763     0.1740090    -0.3659327
  C        0.3877260    -0.5533690    -0.1060630
  C        1.7796780     0.0321620     0.0520040
  H       -2.0809940    -1.4488000    -0.4417420
  H       -2.4997730    -0.0929160    -1.4864860
  H       -2.6911530    -0.0723110     1.5749530
  H       -3.0846210     1.2967820     0.5254720
  H       -4.0585250    -0.1801320     0.4514200
  H       -0.5779450     1.2609590    -0.4430690
  H        0.3072680    -1.6376370    -0.0077220
units angstrom
no_reorient  #important for SAPT in psi4, default
symmetry c1  #important for SAPT in psi4, default
}

set PROPERTIES_ORIGIN ["COM"]
properties('MP2/aug-cc-pvtz', properties = ['dipole'])
--------------------------------------------------------------------------

    Molecular point group: c1
  Charge       = -1
  Multiplicity = 1
  Basis Set: AUG-CC-PVTZ
    Blend: AUG-CC-PVTZ
  Basis Set: (AUG-CC-PVTZ AUX)
    Blend: AUG-CC-PVTZ-JKFIT

    Orbital Energies [Eh]
    ---------------------

    Doubly Occupied:

       1A    -20.295467     2A    -20.291783     3A    -11.142181
       4A    -11.116009     5A    -11.113979     6A    -11.085308
       7A    -11.069493     8A     -1.161931     9A     -1.061143
      10A     -0.954197    11A     -0.863568    12A     -0.744291
      13A     -0.631905    14A     -0.548941    15A     -0.494741
      16A     -0.486379    17A     -0.446041    18A     -0.420871
      19A     -0.407736    20A     -0.381694    21A     -0.377010
      22A     -0.358102    23A     -0.347036    24A     -0.211481
      25A     -0.209113    26A     -0.205921    27A     -0.191291

  @DF-RHF Final Energy:  -343.28559818363556

   => Energetics <=

    Nuclear Repulsion Energy =            270.8231105263793097
    One-Electron Energy =               -1014.9821957717631449
    Two-Electron Energy =                 400.8734870617482784
    Total Energy =                       -343.2855981836355568
  Basis Set: (AUG-CC-PVTZ AUX)
    Blend: AUG-CC-PVTZ-RI
    Molecular point group: c1

    Geometry (in Angstrom), charge = -1, multiplicity = 1:

       Center              X                  Y                   Z               Mass
    ------------   -----------------  -----------------  -----------------  -----------------
         O            2.551341195553    -0.820295684342     0.287997613570    15.994914619570
         O            1.753481195553     1.282487315658    -0.054991386430    15.994914619570
         C           -2.246783804447    -0.360643684342    -0.492899386430    12.000000000000
         C           -3.197774604447     0.190350715658     0.574777313570    12.000000000000
         C           -0.849284104447     0.166996315658    -0.362303086430    12.000000000000
         C            0.241618195553    -0.560381684342    -0.102433386430    12.000000000000
         C            1.633570195553     0.025149315658     0.055633613570    12.000000000000
         H           -2.227101804447    -1.455812684342    -0.438112386430     1.007825032230
         H           -2.645880804447    -0.099928684342    -1.482856386430     1.007825032230
         H           -2.837260804447    -0.079323684342     1.578582613570     1.007825032230
         H           -3.230728804447     1.289769315658     0.529101613570     1.007825032230
         H           -4.204632804447    -0.187144684342     0.455049613570     1.007825032230
         H           -0.724052804447     1.253946315658    -0.439439386430     1.007825032230
         H            0.161160195553    -1.644649684342    -0.004092386430     1.007825032230

  Basis Set: AUG-CC-PVTZ
    Blend: AUG-CC-PVTZ
  Basis Set: (AUG-CC-PVTZ AUX)
    Blend: AUG-CC-PVTZ-JKFIT
	 Reference Energy          =    -343.2855981836355568 [Eh]
	 Singles Energy            =      -0.0000000000000000 [Eh]
	 Same-Spin Energy          =      -0.3481131386123840 [Eh]
	 Opposite-Spin Energy      =      -1.1054729373015113 [Eh]
	 Correlation Energy        =      -1.4535860759138952 [Eh]
	 Total Energy              =    -344.7391842595494609 [Eh]

	 ================> DF-SCS-MP2 Energies <==================
	-----------------------------------------------------------
	 SCS Same-Spin Scale       =       0.3333333333333333 [-]
	 SCS Opposite-Spin Scale   =       1.2000000000000000 [-]
	 SCS Same-Spin Energy      =      -0.1160377128707947 [Eh]
	 SCS Opposite-Spin Energy  =      -1.3265675247618136 [Eh]
	 SCS Correlation Energy    =      -1.4426052376326082 [Eh]
	 SCS Total Energy          =    -344.7282034212681765 [Eh]
	-----------------------------------------------------------

  Dipole Moment: [D]
     X:    -9.5211      Y:    -1.1642      Z:    -0.5726     Total:     9.6090

*** Psi4 exiting successfully. Buy a developer a beer!
