                               Psi4 1.3.2 release

  ==> Input File <==

--------------------------------------------------------------------------
#psi4
#
memory 32 gb

molecule  {
-1 1
  O        2.6974490    -0.8132830     0.2843680
  O        1.8995890     1.2895000    -0.0586210
  C       -2.1006760    -0.3536310    -0.4965290
  C       -3.0416170     0.2044990     0.5763330
  C       -0.7068700     0.1810590    -0.3555460
  C        0.3877260    -0.5533690    -0.1060630
  C        1.7985932     0.2304993     0.0345536
  H       -2.0809940    -1.4488000    -0.4417420
  H       -2.4997730    -0.0929160    -1.4864860
  H       -2.6911530    -0.0723110     1.5749530
  H       -3.0846210     1.2967820     0.5254720
  H       -4.0585250    -0.1801320     0.4514200
  H       -0.5779450     1.2609590    -0.4430690
  H        0.3072680    -1.6376370    -0.0077220
units angstrom
no_reorient  #important for SAPT in psi4, default
symmetry c1  #important for SAPT in psi4, default
}

set PROPERTIES_ORIGIN ["COM"]
properties('MP2/aug-cc-pvtz', properties = ['dipole'])
--------------------------------------------------------------------------

    Molecular point group: c1
  Charge       = -1
  Multiplicity = 1
  Basis Set: AUG-CC-PVTZ
    Blend: AUG-CC-PVTZ
  Basis Set: (AUG-CC-PVTZ AUX)
    Blend: AUG-CC-PVTZ-JKFIT

    Orbital Energies [Eh]
    ---------------------

    Doubly Occupied:

       1A    -20.341522     2A    -20.261209     3A    -11.138752
       4A    -11.111568     5A    -11.107687     6A    -11.073155
       7A    -11.062097     8A     -1.297026     9A     -1.013034
      10A     -0.947402    11A     -0.852489    12A     -0.732576
      13A     -0.611341    14A     -0.548512    15A     -0.509152
      16A     -0.482874    17A     -0.474289    18A     -0.426266
      19A     -0.420213    20A     -0.404795    21A     -0.394794
      22A     -0.377514    23A     -0.350692    24A     -0.207945
      25A     -0.207567    26A     -0.175614    27A     -0.169722

  @DF-RHF Final Energy:  -343.21882032229058

   => Energetics <=

    Nuclear Repulsion Energy =            271.7600989353385330
    One-Electron Energy =               -1016.5582229884566914
    Two-Electron Energy =                 401.5793037308275757
    Total Energy =                       -343.2188203222905827
  Basis Set: (AUG-CC-PVTZ AUX)
    Blend: AUG-CC-PVTZ-RI
    Molecular point group: c1

    Geometry (in Angstrom), charge = -1, multiplicity = 1:

       Center              X                  Y                   Z               Mass
    ------------   -----------------  -----------------  -----------------  -----------------
         O            2.548279387173    -0.846044434753     0.288225195881    15.994914619570
         O            1.750419387173     1.256738565247    -0.054763804119    15.994914619570
         C           -2.249845612827    -0.386392434753    -0.492671804119    12.000000000000
         C           -3.190786612827     0.171737565247     0.580190195881    12.000000000000
         C           -0.856039612827     0.148297565247    -0.351688804119    12.000000000000
         C            0.238556387173    -0.586130434753    -0.102205804119    12.000000000000
         C            1.649423587173     0.197737865247     0.038410795881    12.000000000000
         H           -2.230163612827    -1.481561434753    -0.437884804119     1.007825032230
         H           -2.648942612827    -0.125677434753    -1.482628804119     1.007825032230
         H           -2.840322612827    -0.105072434753     1.578810195881     1.007825032230
         H           -3.233790612827     1.264020565247     0.529329195881     1.007825032230
         H           -4.207694612827    -0.212893434753     0.455277195881     1.007825032230
         H           -0.727114612827     1.228197565247    -0.439211804119     1.007825032230
         H            0.158098387173    -1.670398434753    -0.003864804119     1.007825032230

  Basis Set: AUG-CC-PVTZ
    Blend: AUG-CC-PVTZ
  Basis Set: (AUG-CC-PVTZ AUX)
    Blend: AUG-CC-PVTZ-JKFIT
	 Reference Energy          =    -343.2188203222905827 [Eh]
	 Singles Energy            =      -0.0000000000000000 [Eh]
	 Same-Spin Energy          =      -0.3469306459800034 [Eh]
	 Opposite-Spin Energy      =      -1.1026063230913592 [Eh]
	 Correlation Energy        =      -1.4495369690713626 [Eh]
	 Total Energy              =    -344.6683572913619287 [Eh]

	 ================> DF-SCS-MP2 Energies <==================
	-----------------------------------------------------------
	 SCS Same-Spin Scale       =       0.3333333333333333 [-]
	 SCS Opposite-Spin Scale   =       1.2000000000000000 [-]
	 SCS Same-Spin Energy      =      -0.1156435486600011 [Eh]
	 SCS Opposite-Spin Energy  =      -1.3231275877096309 [Eh]
	 SCS Correlation Energy    =      -1.4387711363696321 [Eh]
	 SCS Total Energy          =    -344.6575914586601925 [Eh]
	-----------------------------------------------------------

  Dipole Moment: [D]
     X:    -9.5215      Y:     0.8168      Z:    -0.8066     Total:     9.5905

*** Psi4 exiting successfully. Buy a developer a beer!
