                               Psi4 1.3.2 release

  ==> Input File <==

--------------------------------------------------------------------------
#psi4
#
memory 32 gb

molecule  {
-1 1
  O        2.6974490    -0.8132830     0.2843680
  O        1.8995890     1.2895000    -0.0586210
  C       -2.1006760    -0.3536310    -0.4965290
  C       -3.0416170     0.2044990     0.5763330
  C       -0.6894451     0.1319051    -0.3511100
  C        0.3877260    -0.5533690    -0.1060630
  C        1.7796780     0.0321620     0.0520040
  H       -2.0430072    -1.4472249    -0.4372774
  H       -2.4997730    -0.0929160    -1.4864860
  H       -2.6911530    -0.0723110     1.5749530
  H       -3.0846210     1.2967820     0.5254720
  H       -4.0585250    -0.1801320     0.4514200
  H       -0.5779450     1.2609590    -0.4430690
  H        0.3072680    -1.6376370    -0.0077220
units angstrom
no_reorient  #important for SAPT in psi4, default
symmetry c1  #important for SAPT in psi4, default
}

set PROPERTIES_ORIGIN ["COM"]
properties('MP2/aug-cc-pvtz', properties = ['dipole'])
--------------------------------------------------------------------------

    Molecular point group: c1
  Charge       = -1
  Multiplicity = 1
  Basis Set: AUG-CC-PVTZ
    Blend: AUG-CC-PVTZ
  Basis Set: (AUG-CC-PVTZ AUX)
    Blend: AUG-CC-PVTZ-JKFIT

    Orbital Energies [Eh]
    ---------------------

    Doubly Occupied:

       1A    -20.295566     2A    -20.292035     3A    -11.142680
       4A    -11.116792     5A    -11.114244     6A    -11.082739
       7A    -11.063616     8A     -1.162099     9A     -1.061255
      10A     -0.956562    11A     -0.869897    12A     -0.746076
      13A     -0.625628    14A     -0.550108    15A     -0.497567
      16A     -0.484396    17A     -0.446103    18A     -0.420306
      19A     -0.409698    20A     -0.385800    21A     -0.378659
      22A     -0.358820    23A     -0.331835    24A     -0.214474
      25A     -0.211928    26A     -0.209193    27A     -0.191393

  @DF-RHF Final Energy:  -343.28267432320752

   => Energetics <=

    Nuclear Repulsion Energy =            271.3259136873537614
    One-Electron Energy =               -1015.9782326835103277
    Two-Electron Energy =                 401.3696446729489935
    Total Energy =                       -343.2826743232075160
  Basis Set: (AUG-CC-PVTZ AUX)
    Blend: AUG-CC-PVTZ-RI
    Molecular point group: c1

    Geometry (in Angstrom), charge = -1, multiplicity = 1:

       Center              X                  Y                   Z               Mass
    ------------   -----------------  -----------------  -----------------  -----------------
         O            2.548073414843    -0.816075038734     0.285528064249    15.994914619570
         O            1.750213414843     1.286707961266    -0.057460935751    15.994914619570
         C           -2.250051585157    -0.356423038734    -0.495368935751    12.000000000000
         C           -3.190992585157     0.201706961266     0.577493064249    12.000000000000
         C           -0.838820685157     0.129113061266    -0.349949935751    12.000000000000
         C            0.238350414843    -0.556161038734    -0.104902935751    12.000000000000
         C            1.630302414843     0.029369961266     0.053164064249    12.000000000000
         H           -2.192382785157    -1.450016938734    -0.436117335751     1.007825032230
         H           -2.649148585157    -0.095708038734    -1.485325935751     1.007825032230
         H           -2.840528585157    -0.075103038734     1.576113064249     1.007825032230
         H           -3.233996585157     1.293989961266     0.526632064249     1.007825032230
         H           -4.207900585157    -0.182924038734     0.452580064249     1.007825032230
         H           -0.727320585157     1.258166961266    -0.441908935751     1.007825032230
         H            0.157892414843    -1.640429038734    -0.006561935751     1.007825032230

  Basis Set: AUG-CC-PVTZ
    Blend: AUG-CC-PVTZ
  Basis Set: (AUG-CC-PVTZ AUX)
    Blend: AUG-CC-PVTZ-JKFIT
	 Reference Energy          =    -343.2826743232075160 [Eh]
	 Singles Energy            =      -0.0000000000000000 [Eh]
	 Same-Spin Energy          =      -0.3480503594631954 [Eh]
	 Opposite-Spin Energy      =      -1.1050555273788045 [Eh]
	 Correlation Energy        =      -1.4531058868419999 [Eh]
	 Total Energy              =    -344.7357802100495405 [Eh]

	 ================> DF-SCS-MP2 Energies <==================
	-----------------------------------------------------------
	 SCS Same-Spin Scale       =       0.3333333333333333 [-]
	 SCS Opposite-Spin Scale   =       1.2000000000000000 [-]
	 SCS Same-Spin Energy      =      -0.1160167864877318 [Eh]
	 SCS Opposite-Spin Energy  =      -1.3260666328545654 [Eh]
	 SCS Correlation Energy    =      -1.4420834193422971 [Eh]
	 SCS Total Energy          =    -344.7247577425497980 [Eh]
	-----------------------------------------------------------

  Dipole Moment: [D]
     X:    -9.5082      Y:    -1.1774      Z:    -0.5609     Total:     9.5972

*** Psi4 exiting successfully. Buy a developer a beer!
