                               Psi4 1.3.2 release

  ==> Input File <==

--------------------------------------------------------------------------
#psi4
#
memory 32 gb

molecule  {
-1 1
  O        2.6974490    -0.8132830     0.2843680
  O        1.8995890     1.2895000    -0.0586210
  C       -2.0819024    -0.4019366    -0.4892129
  C       -3.0416170     0.2044990     0.5763330
  C       -0.7068700     0.1810590    -0.3555460
  C        0.3877260    -0.5533690    -0.1060630
  C        1.7796780     0.0321620     0.0520040
  H       -2.0809940    -1.4488000    -0.4417420
  H       -2.4997730    -0.0929160    -1.4864860
  H       -2.6911530    -0.0723110     1.5749530
  H       -3.0846210     1.2967820     0.5254720
  H       -4.0585250    -0.1801320     0.4514200
  H       -0.5405717     1.2562824    -0.4374331
  H        0.3072680    -1.6376370    -0.0077220
units angstrom
no_reorient  #important for SAPT in psi4, default
symmetry c1  #important for SAPT in psi4, default
}

set PROPERTIES_ORIGIN ["COM"]
properties('MP2/aug-cc-pvtz', properties = ['dipole'])
--------------------------------------------------------------------------

    Molecular point group: c1
  Charge       = -1
  Multiplicity = 1
  Basis Set: AUG-CC-PVTZ
    Blend: AUG-CC-PVTZ
  Basis Set: (AUG-CC-PVTZ AUX)
    Blend: AUG-CC-PVTZ-JKFIT

    Orbital Energies [Eh]
    ---------------------

    Doubly Occupied:

       1A    -20.295143     2A    -20.291893     3A    -11.141619
       4A    -11.116456     5A    -11.114347     6A    -11.084817
       7A    -11.068297     8A     -1.161809     9A     -1.061083
      10A     -0.952448    11A     -0.860511    12A     -0.744635
      13A     -0.635107    14A     -0.548528    15A     -0.491663
      16A     -0.487646    17A     -0.446227    18A     -0.417895
      19A     -0.402668    20A     -0.387802    21A     -0.373577
      22A     -0.357399    23A     -0.354639    24A     -0.210775
      25A     -0.209230    26A     -0.202940    27A     -0.191327

  @DF-RHF Final Energy:  -343.28272973650434

   => Energetics <=

    Nuclear Repulsion Energy =            270.8317370051844932
    One-Electron Energy =               -1015.0079749827890510
    Two-Electron Energy =                 400.8935082411002782
    Total Energy =                       -343.2827297365043364
  Basis Set: (AUG-CC-PVTZ AUX)
    Blend: AUG-CC-PVTZ-RI
    Molecular point group: c1

    Geometry (in Angstrom), charge = -1, multiplicity = 1:

       Center              X                  Y                   Z               Mass
    ------------   -----------------  -----------------  -----------------  -----------------
         O            2.547916252326    -0.816114202707     0.285167199913    15.994914619570
         O            1.750056252326     1.286668797293    -0.057821800087    15.994914619570
         C           -2.231435147674    -0.404767802707    -0.488413700087    12.000000000000
         C           -3.191149747674     0.201667797293     0.577132199913    12.000000000000
         C           -0.856402747674     0.178227797293    -0.354746800087    12.000000000000
         C            0.238193252326    -0.556200202707    -0.105263800087    12.000000000000
         C            1.630145252326     0.029330797293     0.052803199913    12.000000000000
         H           -2.230526747674    -1.451631202707    -0.440942800087     1.007825032230
         H           -2.649305747674    -0.095747202707    -1.485686800087     1.007825032230
         H           -2.840685747674    -0.075142202707     1.575752199913     1.007825032230
         H           -3.234153747674     1.293950797293     0.526271199913     1.007825032230
         H           -4.208057747674    -0.182963202707     0.452219199913     1.007825032230
         H           -0.690104447674     1.253451197293    -0.436633900087     1.007825032230
         H            0.157735252326    -1.640468202707    -0.006922800087     1.007825032230

  Basis Set: AUG-CC-PVTZ
    Blend: AUG-CC-PVTZ
  Basis Set: (AUG-CC-PVTZ AUX)
    Blend: AUG-CC-PVTZ-JKFIT
	 Reference Energy          =    -343.2827297365043364 [Eh]
	 Singles Energy            =      -0.0000000000000000 [Eh]
	 Same-Spin Energy          =      -0.3481487236832490 [Eh]
	 Opposite-Spin Energy      =      -1.1055363835186309 [Eh]
	 Correlation Energy        =      -1.4536851072018799 [Eh]
	 Total Energy              =    -344.7364148437061999 [Eh]

	 ================> DF-SCS-MP2 Energies <==================
	-----------------------------------------------------------
	 SCS Same-Spin Scale       =       0.3333333333333333 [-]
	 SCS Opposite-Spin Scale   =       1.2000000000000000 [-]
	 SCS Same-Spin Energy      =      -0.1160495745610830 [Eh]
	 SCS Opposite-Spin Energy  =      -1.3266436602223570 [Eh]
	 SCS Correlation Energy    =      -1.4426932347834400 [Eh]
	 SCS Total Energy          =    -344.7254229712877986 [Eh]
	-----------------------------------------------------------

  Dipole Moment: [D]
     X:    -9.4814      Y:    -1.2069      Z:    -0.5680     Total:     9.5748

*** Psi4 exiting successfully. Buy a developer a beer!
