                               Psi4 1.3.2 release

  ==> Input File <==

--------------------------------------------------------------------------
#psi4
#
memory 32 gb

molecule  {
-1 1
  O        2.7409016    -0.7630353     0.2860644
  O        1.9646722     1.2825104    -0.0476023
  C       -2.1006760    -0.3536310    -0.4965290
  C       -3.0416170     0.2044990     0.5763330
  C       -0.7068700     0.1810590    -0.3555460
  C        0.3877260    -0.5533690    -0.1060630
  C        1.7796780     0.0321620     0.0520040
  H       -2.0809940    -1.4488000    -0.4417420
  H       -2.4997730    -0.0929160    -1.4864860
  H       -2.6911530    -0.0723110     1.5749530
  H       -3.0846210     1.2967820     0.5254720
  H       -4.0585250    -0.1801320     0.4514200
  H       -0.5779450     1.2609590    -0.4430690
  H        0.3072680    -1.6376370    -0.0077220
units angstrom
no_reorient  #important for SAPT in psi4, default
symmetry c1  #important for SAPT in psi4, default
}

set PROPERTIES_ORIGIN ["COM"]
properties('MP2/aug-cc-pvtz', properties = ['dipole'])
--------------------------------------------------------------------------

    Molecular point group: c1
  Charge       = -1
  Multiplicity = 1
  Basis Set: AUG-CC-PVTZ
    Blend: AUG-CC-PVTZ
  Basis Set: (AUG-CC-PVTZ AUX)
    Blend: AUG-CC-PVTZ-JKFIT

    Orbital Energies [Eh]
    ---------------------

    Doubly Occupied:

       1A    -20.288995     2A    -20.285528     3A    -11.139005
       4A    -11.118323     5A    -11.117303     6A    -11.091056
       7A    -11.076817     8A     -1.160936     9A     -1.048910
      10A     -0.958119    11A     -0.866997    12A     -0.747528
      13A     -0.636935    14A     -0.551921    15A     -0.496514
      16A     -0.489363    17A     -0.444568    18A     -0.420790
      19A     -0.411404    20A     -0.384136    21A     -0.372749
      22A     -0.354918    23A     -0.352567    24A     -0.215424
      25A     -0.209199    26A     -0.197221    27A     -0.183341

  @DF-RHF Final Energy:  -343.28207994868029

   => Energetics <=

    Nuclear Repulsion Energy =            270.3392989103408581
    One-Electron Energy =               -1014.0016248884820698
    Two-Electron Energy =                 400.3802460294609205
    Total Energy =                       -343.2820799486802912
  Basis Set: (AUG-CC-PVTZ AUX)
    Blend: AUG-CC-PVTZ-RI
    Molecular point group: c1

    Geometry (in Angstrom), charge = -1, multiplicity = 1:

       Center              X                  Y                   Z               Mass
    ------------   -----------------  -----------------  -----------------  -----------------
         O            2.576496039063    -0.778752515202     0.285753961095    15.994914619570
         O            1.800266639063     1.266793184798    -0.047912738905    15.994914619570
         C           -2.265081560937    -0.369348215202    -0.496839438905    12.000000000000
         C           -3.206022560937     0.188781784798     0.576022561095    12.000000000000
         C           -0.871275560937     0.165341784798    -0.355856438905    12.000000000000
         C            0.223320439063    -0.569086215202    -0.106373438905    12.000000000000
         C            1.615272439063     0.016444784798     0.051693561095    12.000000000000
         H           -2.245399560937    -1.464517215202    -0.442052438905     1.007825032230
         H           -2.664178560937    -0.108633215202    -1.486796438905     1.007825032230
         H           -2.855558560937    -0.088028215202     1.574642561095     1.007825032230
         H           -3.249026560937     1.281064784798     0.525161561095     1.007825032230
         H           -4.222930560937    -0.195849215202     0.451109561095     1.007825032230
         H           -0.742350560937     1.245241784798    -0.443379438905     1.007825032230
         H            0.142862439063    -1.653354215202    -0.008032438905     1.007825032230

  Basis Set: AUG-CC-PVTZ
    Blend: AUG-CC-PVTZ
  Basis Set: (AUG-CC-PVTZ AUX)
    Blend: AUG-CC-PVTZ-JKFIT
	 Reference Energy          =    -343.2820799486802912 [Eh]
	 Singles Energy            =      -0.0000000000000000 [Eh]
	 Same-Spin Energy          =      -0.3480547157435615 [Eh]
	 Opposite-Spin Energy      =      -1.1055511063952643 [Eh]
	 Correlation Energy        =      -1.4536058221388259 [Eh]
	 Total Energy              =    -344.7356857708191455 [Eh]

	 ================> DF-SCS-MP2 Energies <==================
	-----------------------------------------------------------
	 SCS Same-Spin Scale       =       0.3333333333333333 [-]
	 SCS Opposite-Spin Scale   =       1.2000000000000000 [-]
	 SCS Same-Spin Energy      =      -0.1160182385811872 [Eh]
	 SCS Opposite-Spin Energy  =      -1.3266613276743171 [Eh]
	 SCS Correlation Energy    =      -1.4426795662555043 [Eh]
	 SCS Total Energy          =    -344.7247595149357835 [Eh]
	-----------------------------------------------------------

  Dipole Moment: [D]
     X:    -9.8833      Y:    -1.2620      Z:    -0.6154     Total:     9.9826

*** Psi4 exiting successfully. Buy a developer a beer!
