                               Psi4 1.3.2 release

  ==> Input File <==

--------------------------------------------------------------------------
#psi4
#
memory 32 gb

molecule  {
-1 1
  O        2.6514673    -0.8612045     0.2821202
  O        1.8995890     1.2895000    -0.0586210
  C       -2.1006760    -0.3536310    -0.4965290
  C       -3.0416170     0.2044990     0.5763330
  C       -0.7068700     0.1810590    -0.3555460
  C        0.4189010    -0.6254323    -0.0936598
  C        1.7796780     0.0321620     0.0520040
  H       -2.0809940    -1.4488000    -0.4417420
  H       -2.4997730    -0.0929160    -1.4864860
  H       -2.6911530    -0.0723110     1.5749530
  H       -3.0846210     1.2967820     0.5254720
  H       -4.0585250    -0.1801320     0.4514200
  H       -0.5779450     1.2609590    -0.4430690
  H        0.3072680    -1.6376370    -0.0077220
units angstrom
no_reorient  #important for SAPT in psi4, default
symmetry c1  #important for SAPT in psi4, default
}

set PROPERTIES_ORIGIN ["COM"]
properties('MP2/aug-cc-pvtz', properties = ['dipole'])
--------------------------------------------------------------------------

    Molecular point group: c1
  Charge       = -1
  Multiplicity = 1
  Basis Set: AUG-CC-PVTZ
    Blend: AUG-CC-PVTZ
  Basis Set: (AUG-CC-PVTZ AUX)
    Blend: AUG-CC-PVTZ-JKFIT

    Orbital Energies [Eh]
    ---------------------

    Doubly Occupied:

       1A    -20.296744     2A    -20.295289     3A    -11.143521
       4A    -11.114356     5A    -11.112042     6A    -11.092505
       7A    -11.070750     8A     -1.162482     9A     -1.066685
      10A     -0.948822    11A     -0.850967    12A     -0.743071
      13A     -0.633113    14A     -0.550310    15A     -0.497401
      16A     -0.484471    17A     -0.444644    18A     -0.419586
      19A     -0.407426    20A     -0.387141    21A     -0.369728
      22A     -0.358997    23A     -0.357366    24A     -0.215574
      25A     -0.205851    26A     -0.195363    27A     -0.187479

  @DF-RHF Final Energy:  -343.27264565825590

   => Energetics <=

    Nuclear Repulsion Energy =            270.3261108362229379
    One-Electron Energy =               -1013.9741421719631944
    Two-Electron Energy =                 400.3753856774843598
    Total Energy =                       -343.2726456582558967
  Basis Set: (AUG-CC-PVTZ AUX)
    Blend: AUG-CC-PVTZ-RI
    Molecular point group: c1

    Geometry (in Angstrom), charge = -1, multiplicity = 1:

       Center              X                  Y                   Z               Mass
    ------------   -----------------  -----------------  -----------------  -----------------
         O            2.508237998296    -0.853465924454     0.282723409127    15.994914619570
         O            1.756359698296     1.297238575546    -0.058017790873    15.994914619570
         C           -2.243905301704    -0.345892424454    -0.495925790873    12.000000000000
         C           -3.184846301704     0.212237575546     0.576936209127    12.000000000000
         C           -0.850099301704     0.188797575546    -0.354942790873    12.000000000000
         C            0.275671698296    -0.617693724454    -0.093056590873    12.000000000000
         C            1.636448698296     0.039900575546     0.052607209127    12.000000000000
         H           -2.224223301704    -1.441061424454    -0.441138790873     1.007825032230
         H           -2.643002301704    -0.085177424454    -1.485882790873     1.007825032230
         H           -2.834382301704    -0.064572424454     1.575556209127     1.007825032230
         H           -3.227850301704     1.304520575546     0.526075209127     1.007825032230
         H           -4.201754301704    -0.172393424454     0.452023209127     1.007825032230
         H           -0.721174301704     1.268697575546    -0.442465790873     1.007825032230
         H            0.164038698296    -1.629898424454    -0.007118790873     1.007825032230

  Basis Set: AUG-CC-PVTZ
    Blend: AUG-CC-PVTZ
  Basis Set: (AUG-CC-PVTZ AUX)
    Blend: AUG-CC-PVTZ-JKFIT
	 Reference Energy          =    -343.2726456582558967 [Eh]
	 Singles Energy            =      -0.0000000000000000 [Eh]
	 Same-Spin Energy          =      -0.3489741989594504 [Eh]
	 Opposite-Spin Energy      =      -1.1075930085650989 [Eh]
	 Correlation Energy        =      -1.4565672075245493 [Eh]
	 Total Energy              =    -344.7292128657804255 [Eh]

	 ================> DF-SCS-MP2 Energies <==================
	-----------------------------------------------------------
	 SCS Same-Spin Scale       =       0.3333333333333333 [-]
	 SCS Opposite-Spin Scale   =       1.2000000000000000 [-]
	 SCS Same-Spin Energy      =      -0.1163247329864835 [Eh]
	 SCS Opposite-Spin Energy  =      -1.3291116102781186 [Eh]
	 SCS Correlation Energy    =      -1.4454363432646020 [Eh]
	 SCS Total Energy          =    -344.7180820015204858 [Eh]
	-----------------------------------------------------------

  Dipole Moment: [D]
     X:    -9.3032      Y:    -1.1552      Z:    -0.5574     Total:     9.3912

*** Psi4 exiting successfully. Buy a developer a beer!
