                               Psi4 1.3.2 release

  ==> Input File <==

--------------------------------------------------------------------------
#psi4
#
memory 32 gb

molecule  {
-1 1
  O        2.6514808    -0.8612134     0.2820347
  O        1.8341771     1.2930433    -0.0693365
  C       -2.1006760    -0.3536310    -0.4965290
  C       -3.0416170     0.2044990     0.5763330
  C       -0.7068700     0.1810590    -0.3555460
  C        0.3877260    -0.5533690    -0.1060630
  C        1.7796780     0.0321620     0.0520040
  H       -2.0809940    -1.4488000    -0.4417420
  H       -2.4997730    -0.0929160    -1.4864860
  H       -2.6911530    -0.0723110     1.5749530
  H       -3.0846210     1.2967820     0.5254720
  H       -4.0585250    -0.1801320     0.4514200
  H       -0.5779450     1.2609590    -0.4430690
  H        0.3072680    -1.6376370    -0.0077220
units angstrom
no_reorient  #important for SAPT in psi4, default
symmetry c1  #important for SAPT in psi4, default
}

set PROPERTIES_ORIGIN ["COM"]
properties('MP2/aug-cc-pvtz', properties = ['dipole'])
--------------------------------------------------------------------------

    Molecular point group: c1
  Charge       = -1
  Multiplicity = 1
  Basis Set: AUG-CC-PVTZ
    Blend: AUG-CC-PVTZ
  Basis Set: (AUG-CC-PVTZ AUX)
    Blend: AUG-CC-PVTZ-JKFIT

    Orbital Energies [Eh]
    ---------------------

    Doubly Occupied:

       1A    -20.301286     2A    -20.297302     3A    -11.145141
       4A    -11.113142     5A    -11.110509     6A    -11.079434
       7A    -11.062921     8A     -1.163474     9A     -1.072085
      10A     -0.950224    11A     -0.857519    12A     -0.739923
      13A     -0.628988    14A     -0.546074    15A     -0.492864
      16A     -0.482600    17A     -0.447080    18A     -0.418424
      19A     -0.406204    20A     -0.383979    21A     -0.375543
      22A     -0.361248    23A     -0.344399    24A     -0.219786
      25A     -0.205573    26A     -0.201326    27A     -0.196955

  @DF-RHF Final Energy:  -343.28382793398055

   => Energetics <=

    Nuclear Repulsion Energy =            271.4916685486155075
    One-Electron Energy =               -1016.3429894414540513
    Two-Electron Energy =                 401.5674929588579971
    Total Energy =                       -343.2838279339805467
  Basis Set: (AUG-CC-PVTZ AUX)
    Blend: AUG-CC-PVTZ-RI
    Molecular point group: c1

    Geometry (in Angstrom), charge = -1, multiplicity = 1:

       Center              X                  Y                   Z               Mass
    ------------   -----------------  -----------------  -----------------  -----------------
         O            2.522589905036    -0.862776613594     0.285884925707    15.994914619570
         O            1.705286205036     1.291480086406    -0.065486274293    15.994914619570
         C           -2.229566894964    -0.355194213594    -0.492678774293    12.000000000000
         C           -3.170507894964     0.202935786406     0.580183225707    12.000000000000
         C           -0.835760894964     0.179495786406    -0.351695774293    12.000000000000
         C            0.258835105036    -0.554932213594    -0.102212774293    12.000000000000
         C            1.650787105036     0.030598786406     0.055854225707    12.000000000000
         H           -2.209884894964    -1.450363213594    -0.437891774293     1.007825032230
         H           -2.628663894964    -0.094479213594    -1.482635774293     1.007825032230
         H           -2.820043894964    -0.073874213594     1.578803225707     1.007825032230
         H           -3.213511894964     1.295218786406     0.529322225707     1.007825032230
         H           -4.187415894964    -0.181695213594     0.455270225707     1.007825032230
         H           -0.706835894964     1.259395786406    -0.439218774293     1.007825032230
         H            0.178377105036    -1.639200213594    -0.003871774293     1.007825032230

  Basis Set: AUG-CC-PVTZ
    Blend: AUG-CC-PVTZ
  Basis Set: (AUG-CC-PVTZ AUX)
    Blend: AUG-CC-PVTZ-JKFIT
	 Reference Energy          =    -343.2838279339805467 [Eh]
	 Singles Energy            =      -0.0000000000000000 [Eh]
	 Same-Spin Energy          =      -0.3484585792222772 [Eh]
	 Opposite-Spin Energy      =      -1.1059792079526456 [Eh]
	 Correlation Energy        =      -1.4544377871749228 [Eh]
	 Total Energy              =    -344.7382657211554715 [Eh]

	 ================> DF-SCS-MP2 Energies <==================
	-----------------------------------------------------------
	 SCS Same-Spin Scale       =       0.3333333333333333 [-]
	 SCS Opposite-Spin Scale   =       1.2000000000000000 [-]
	 SCS Same-Spin Energy      =      -0.1161528597407591 [Eh]
	 SCS Opposite-Spin Energy  =      -1.3271750495431747 [Eh]
	 SCS Correlation Energy    =      -1.4433279092839337 [Eh]
	 SCS Total Energy          =    -344.7271558432644838 [Eh]
	-----------------------------------------------------------

  Dipole Moment: [D]
     X:    -9.1250      Y:    -1.0406      Z:    -0.5410     Total:     9.2001

*** Psi4 exiting successfully. Buy a developer a beer!
