                               Psi4 1.3.2 release

  ==> Input File <==

--------------------------------------------------------------------------
#psi4
#
memory 32 gb

molecule  {
-1 1
  O        2.6974490    -0.8132830     0.2843680
  O        1.8995890     1.2895000    -0.0586210
  C       -2.1006760    -0.3536310    -0.4965290
  C       -3.0416170     0.2044990     0.5763330
  C       -0.7444805     0.1217428    -0.3552601
  C        0.3877260    -0.5533690    -0.1060630
  C        1.8070286    -0.0415000     0.0640326
  H       -2.0809940    -1.4488000    -0.4417420
  H       -2.4997730    -0.0929160    -1.4864860
  H       -2.6911530    -0.0723110     1.5749530
  H       -3.0846210     1.2967820     0.5254720
  H       -4.0585250    -0.1801320     0.4514200
  H       -0.5779450     1.2609590    -0.4430690
  H        0.3072680    -1.6376370    -0.0077220
units angstrom
no_reorient  #important for SAPT in psi4, default
symmetry c1  #important for SAPT in psi4, default
}

set PROPERTIES_ORIGIN ["COM"]
properties('MP2/aug-cc-pvtz', properties = ['dipole'])
--------------------------------------------------------------------------

    Molecular point group: c1
  Charge       = -1
  Multiplicity = 1
  Basis Set: AUG-CC-PVTZ
    Blend: AUG-CC-PVTZ
  Basis Set: (AUG-CC-PVTZ AUX)
    Blend: AUG-CC-PVTZ-JKFIT

    Orbital Energies [Eh]
    ---------------------

    Doubly Occupied:

       1A    -20.314477     2A    -20.274720     3A    -11.143194
       4A    -11.116476     5A    -11.112362     6A    -11.087837
       7A    -11.070439     8A     -1.189933     9A     -1.040150
      10A     -0.962160    11A     -0.860519    12A     -0.750982
      13A     -0.630520    14A     -0.547587    15A     -0.501817
      16A     -0.483076    17A     -0.453488    18A     -0.419619
      19A     -0.412164    20A     -0.388662    21A     -0.381295
      22A     -0.366874    23A     -0.329672    24A     -0.217302
      25A     -0.208993    26A     -0.195708    27A     -0.182322

  @DF-RHF Final Energy:  -343.26905768287014

   => Energetics <=

    Nuclear Repulsion Energy =            271.0347810293541215
    One-Electron Energy =               -1015.3229778864908894
    Two-Electron Energy =                 401.0191391742666269
    Total Energy =                       -343.2690576828701410
  Basis Set: (AUG-CC-PVTZ AUX)
    Blend: AUG-CC-PVTZ-RI
    Molecular point group: c1

    Geometry (in Angstrom), charge = -1, multiplicity = 1:

       Center              X                  Y                   Z               Mass
    ------------   -----------------  -----------------  -----------------  -----------------
         O            2.551814170333    -0.805903065908     0.284618954007    15.994914619570
         O            1.753954170333     1.296879934092    -0.058370045993    15.994914619570
         C           -2.246310829667    -0.346251065908    -0.496278045993    12.000000000000
         C           -3.187251829667     0.211878934092     0.576583954007    12.000000000000
         C           -0.890115329667     0.129122734092    -0.355009145993    12.000000000000
         C            0.242091170333    -0.545989065908    -0.105812045993    12.000000000000
         C            1.661393770333    -0.034120065908     0.064283554007    12.000000000000
         H           -2.226628829667    -1.441420065908    -0.441491045993     1.007825032230
         H           -2.645407829667    -0.085536065908    -1.486235045993     1.007825032230
         H           -2.836787829667    -0.064931065908     1.575203954007     1.007825032230
         H           -3.230255829667     1.304161934092     0.525722954007     1.007825032230
         H           -4.204159829667    -0.172752065908     0.451670954007     1.007825032230
         H           -0.723579829667     1.268338934092    -0.442818045993     1.007825032230
         H            0.161633170333    -1.630257065908    -0.007471045993     1.007825032230

  Basis Set: AUG-CC-PVTZ
    Blend: AUG-CC-PVTZ
  Basis Set: (AUG-CC-PVTZ AUX)
    Blend: AUG-CC-PVTZ-JKFIT
	 Reference Energy          =    -343.2690576828701410 [Eh]
	 Singles Energy            =      -0.0000000000000000 [Eh]
	 Same-Spin Energy          =      -0.3488897903745445 [Eh]
	 Opposite-Spin Energy      =      -1.1066883337866622 [Eh]
	 Correlation Energy        =      -1.4555781241612067 [Eh]
	 Total Energy              =    -344.7246358070313477 [Eh]

	 ================> DF-SCS-MP2 Energies <==================
	-----------------------------------------------------------
	 SCS Same-Spin Scale       =       0.3333333333333333 [-]
	 SCS Opposite-Spin Scale   =       1.2000000000000000 [-]
	 SCS Same-Spin Energy      =      -0.1162965967915148 [Eh]
	 SCS Opposite-Spin Energy  =      -1.3280260005439946 [Eh]
	 SCS Correlation Energy    =      -1.4443225973355094 [Eh]
	 SCS Total Energy          =    -344.7133802802056266 [Eh]
	-----------------------------------------------------------

  Dipole Moment: [D]
     X:    -9.2627      Y:    -1.9359      Z:    -0.4507     Total:     9.4736

*** Psi4 exiting successfully. Buy a developer a beer!
