                               Psi4 1.3.2 release

  ==> Input File <==

--------------------------------------------------------------------------
#psi4
#
memory 32 gb

molecule  {
-1 1
  O        2.6974490    -0.8132830     0.2843680
  O        1.8995890     1.2895000    -0.0586210
  C       -2.1006760    -0.3536310    -0.4965290
  C       -3.0416170     0.2044990     0.5763330
  C       -0.7068700     0.1810590    -0.3555460
  C        0.3061343    -0.4986244    -0.1246596
  C        1.7796780     0.0321620     0.0520040
  H       -2.0809940    -1.4488000    -0.4417420
  H       -2.4997730    -0.0929160    -1.4864860
  H       -2.6911530    -0.0723110     1.5749530
  H       -3.0846210     1.2967820     0.5254720
  H       -4.0585250    -0.1801320     0.4514200
  H       -0.5779450     1.2609590    -0.4430690
  H        0.3072680    -1.6376370    -0.0077220
units angstrom
no_reorient  #important for SAPT in psi4, default
symmetry c1  #important for SAPT in psi4, default
}

set PROPERTIES_ORIGIN ["COM"]
properties('MP2/aug-cc-pvtz', properties = ['dipole'])
--------------------------------------------------------------------------

    Molecular point group: c1
  Charge       = -1
  Multiplicity = 1
  Basis Set: AUG-CC-PVTZ
    Blend: AUG-CC-PVTZ
  Basis Set: (AUG-CC-PVTZ AUX)
    Blend: AUG-CC-PVTZ-JKFIT

    Orbital Energies [Eh]
    ---------------------

    Doubly Occupied:

       1A    -20.299446     2A    -20.292730     3A    -11.146830
       4A    -11.114677     5A    -11.111831     6A    -11.067882
       7A    -11.060741     8A     -1.161803     9A     -1.062365
      10A     -0.962608    11A     -0.875675    12A     -0.739554
      13A     -0.623461    14A     -0.547785    15A     -0.495878
      16A     -0.482135    17A     -0.448867    18A     -0.419908
      19A     -0.407284    20A     -0.382112    21A     -0.379195
      22A     -0.357631    23A     -0.336413    24A     -0.229330
      25A     -0.212483    26A     -0.202978    27A     -0.192832

  @DF-RHF Final Energy:  -343.27292980456059

   => Energetics <=

    Nuclear Repulsion Energy =            271.5261836116121685
    One-Electron Energy =               -1016.3693584222813797
    Two-Electron Energy =                 401.5702450061086211
    Total Energy =                       -343.2729298045605901
  Basis Set: (AUG-CC-PVTZ AUX)
    Blend: AUG-CC-PVTZ-RI
    Molecular point group: c1

    Geometry (in Angstrom), charge = -1, multiplicity = 1:

       Center              X                  Y                   Z               Mass
    ------------   -----------------  -----------------  -----------------  -----------------
         O            2.560456555293    -0.828647097369     0.288364066646    15.994914619570
         O            1.762596555293     1.274135902631    -0.054624933354    15.994914619570
         C           -2.237668444707    -0.368995097369    -0.492532933354    12.000000000000
         C           -3.178609444707     0.189134902631     0.580329066646    12.000000000000
         C           -0.843862444707     0.165694902631    -0.351549933354    12.000000000000
         C            0.169141855293    -0.513988497369    -0.120663533354    12.000000000000
         C            1.642685555293     0.016797902631     0.056000066646    12.000000000000
         H           -2.217986444707    -1.464164097369    -0.437745933354     1.007825032230
         H           -2.636765444707    -0.108280097369    -1.482489933354     1.007825032230
         H           -2.828145444707    -0.087675097369     1.578949066646     1.007825032230
         H           -3.221613444707     1.281417902631     0.529468066646     1.007825032230
         H           -4.195517444707    -0.195496097369     0.455416066646     1.007825032230
         H           -0.714937444707     1.245594902631    -0.439072933354     1.007825032230
         H            0.170275555293    -1.653001097369    -0.003725933354     1.007825032230

  Basis Set: AUG-CC-PVTZ
    Blend: AUG-CC-PVTZ
  Basis Set: (AUG-CC-PVTZ AUX)
    Blend: AUG-CC-PVTZ-JKFIT
	 Reference Energy          =    -343.2729298045605901 [Eh]
	 Singles Energy            =      -0.0000000000000000 [Eh]
	 Same-Spin Energy          =      -0.3476384026403586 [Eh]
	 Opposite-Spin Energy      =      -1.1039052112449317 [Eh]
	 Correlation Energy        =      -1.4515436138852902 [Eh]
	 Total Energy              =    -344.7244734184458821 [Eh]

	 ================> DF-SCS-MP2 Energies <==================
	-----------------------------------------------------------
	 SCS Same-Spin Scale       =       0.3333333333333333 [-]
	 SCS Opposite-Spin Scale   =       1.2000000000000000 [-]
	 SCS Same-Spin Energy      =      -0.1158794675467862 [Eh]
	 SCS Opposite-Spin Energy  =      -1.3246862534939179 [Eh]
	 SCS Correlation Energy    =      -1.4405657210407041 [Eh]
	 SCS Total Energy          =    -344.7134955256012745 [Eh]
	-----------------------------------------------------------

  Dipole Moment: [D]
     X:    -9.4362      Y:    -1.0377      Z:    -0.5811     Total:     9.5109

*** Psi4 exiting successfully. Buy a developer a beer!
