                               Psi4 1.4a3.dev225

  ==> Input File <==

--------------------------------------------------------------------------
#psi4
#
memory 32 gb

molecule  {
-1 1
  O        2.6993700    -0.8109490     0.2832770
  O        1.8994270     1.2905180    -0.0615170
  C       -2.1001690    -0.3616000    -0.4913260
  C       -3.0433460     0.2119310     0.5709670
  C       -0.7265997     0.1698956    -0.3565141
  C        0.3885780    -0.5541740    -0.1016640
  C        1.7798570     0.0330080     0.0518740
  H       -2.0812530    -1.4558260    -0.4203270
  H       -2.4968010    -0.1155520    -1.4857470
  H       -2.6986290    -0.0550030     1.5741980
  H       -3.0817280     1.3037570     0.5071410
  H       -4.0608920    -0.1705790     0.4451360
  H       -0.5806440     1.2564400    -0.4499950
  H        0.3081890    -1.6372690     0.0045550
units angstrom
no_reorient  #important for SAPT in psi4, default
symmetry c1  #important for SAPT in psi4, default
}

set PROPERTIES_ORIGIN ["COM"]
properties('MP2/aug-cc-pvtz', properties = ['dipole'])
--------------------------------------------------------------------------

    Molecular point group: c1
  Charge       = -1
  Multiplicity = 1
  Basis Set: AUG-CC-PVTZ
    Blend: AUG-CC-PVTZ
  Basis Set: (AUG-CC-PVTZ AUX)
    Blend: AUG-CC-PVTZ-JKFIT

    Orbital Energies [Eh]
    ---------------------

    Doubly Occupied:

       1A    -20.295666     2A    -20.291906     3A    -11.142638
       4A    -11.116046     5A    -11.113511     6A    -11.086844
       7A    -11.071972     8A     -1.161893     9A     -1.061050
      10A     -0.957079    11A     -0.860200    12A     -0.745888
      13A     -0.632750    14A     -0.548854    15A     -0.496172
      16A     -0.486422    17A     -0.445993    18A     -0.418119
      19A     -0.409972    20A     -0.383523    21A     -0.377899
      22A     -0.357851    23A     -0.347978    24A     -0.212026
      25A     -0.209092    26A     -0.201699    27A     -0.191232

  @DF-RHF Final Energy:  -343.28428311211314

   => Energetics <=

    Nuclear Repulsion Energy =            270.8012116394565965
    One-Electron Energy =               -1014.9224396649290156
    Two-Electron Energy =                 400.8369449133592752
    Total Energy =                       -343.2842831121131439
  Basis Set: (AUG-CC-PVTZ AUX)
    Blend: AUG-CC-PVTZ-RI
    Molecular point group: c1

    Geometry (in Angstrom), charge = -1, multiplicity = 1:

       Center              X                  Y                   Z               Mass
    ------------   -----------------  -----------------  -----------------  -----------------
         O            2.554682789977    -0.818809307836     0.285261912349    15.994914619570
         O            1.754739789977     1.282657692164    -0.059532087651    15.994914619570
         C           -2.244856210023    -0.369460307836    -0.489341087651    12.000000000000
         C           -3.188033210023     0.204070692164     0.572951912349    12.000000000000
         C           -0.871286910023     0.162035292164    -0.354529187651    12.000000000000
         C            0.243890789977    -0.562034307836    -0.099679087651    12.000000000000
         C            1.635169789977     0.025147692164     0.053858912349    12.000000000000
         H           -2.225940210023    -1.463686307836    -0.418342087651     1.007825032230
         H           -2.641488210023    -0.123412307836    -1.483762087651     1.007825032230
         H           -2.843316210023    -0.062863307836     1.576182912349     1.007825032230
         H           -3.226415210023     1.295896692164     0.509125912349     1.007825032230
         H           -4.205579210023    -0.178439307836     0.447120912349     1.007825032230
         H           -0.725331210023     1.248579692164    -0.448010087651     1.007825032230
         H            0.163501789977    -1.645129307836     0.006539912349     1.007825032230

  Basis Set: AUG-CC-PVTZ
    Blend: AUG-CC-PVTZ
  Basis Set: (AUG-CC-PVTZ AUX)
    Blend: AUG-CC-PVTZ-JKFIT
	 Reference Energy          =    -343.2842831121131439 [Eh]
	 Singles Energy            =      -0.0000000000000000 [Eh]
	 Same-Spin Energy          =      -0.3485070378584993 [Eh]
	 Opposite-Spin Energy      =      -1.1061384297692562 [Eh]
	 Correlation Energy        =      -1.4546454676277556 [Eh]
	 Total Energy              =    -344.7389285797409002 [Eh]

	 ================> DF-SCS-MP2 Energies <==================
	-----------------------------------------------------------
	 SCS Same-Spin Scale       =       0.3333333333333333 [-]
	 SCS Opposite-Spin Scale   =       1.2000000000000000 [-]
	 SCS Same-Spin Energy      =      -0.1161690126194998 [Eh]
	 SCS Opposite-Spin Energy  =      -1.3273661157231074 [Eh]
	 SCS Correlation Energy    =      -1.4435351283426072 [Eh]
	 SCS Total Energy          =    -344.7278182404557469 [Eh]
	-----------------------------------------------------------

  Dipole Moment: [D]
     X:    -9.5288      Y:    -1.1723      Z:    -0.5703     Total:     9.6176

*** Psi4 exiting successfully. Buy a developer a beer!
