                               Psi4 1.3.2 release

  ==> Input File <==

--------------------------------------------------------------------------
#psi4
#
memory 32 gb

molecule  {
-1 1
  O        2.6974490    -0.8132830     0.2843680
  O        1.8995890     1.2895000    -0.0586210
  C       -2.1006760    -0.3536310    -0.4965290
  C       -3.0416170     0.2044990     0.5763330
  C       -0.7068700     0.1810590    -0.3555460
  C        0.3877260    -0.5533690    -0.1060630
  C        1.7073716     0.0987702     0.0336973
  H       -2.0809940    -1.4488000    -0.4417420
  H       -2.4997730    -0.0929160    -1.4864860
  H       -2.6911530    -0.0723110     1.5749530
  H       -3.0846210     1.2967820     0.5254720
  H       -4.0585250    -0.1801320     0.4514200
  H       -0.5779450     1.2609590    -0.4430690
  H        0.3072680    -1.6376370    -0.0077220
units angstrom
no_reorient  #important for SAPT in psi4, default
symmetry c1  #important for SAPT in psi4, default
}

set PROPERTIES_ORIGIN ["COM"]
properties('MP2/aug-cc-pvtz', properties = ['dipole'])
--------------------------------------------------------------------------

    Molecular point group: c1
  Charge       = -1
  Multiplicity = 1
  Basis Set: AUG-CC-PVTZ
    Blend: AUG-CC-PVTZ
  Basis Set: (AUG-CC-PVTZ AUX)
    Blend: AUG-CC-PVTZ-JKFIT

    Orbital Energies [Eh]
    ---------------------

    Doubly Occupied:

       1A    -20.309604     2A    -20.273704     3A    -11.140719
       4A    -11.118682     5A    -11.117205     6A    -11.090471
       7A    -11.073497     8A     -1.178992     9A     -1.023577
      10A     -0.959003    11A     -0.870517    12A     -0.750219
      13A     -0.637516    14A     -0.558281    15A     -0.498078
      16A     -0.490757    17A     -0.452852    18A     -0.420294
      19A     -0.412350    20A     -0.384828    21A     -0.367914
      22A     -0.361127    23A     -0.355971    24A     -0.213822
      25A     -0.210967    26A     -0.191896    27A     -0.176520

  @DF-RHF Final Energy:  -343.26898191068619

   => Energetics <=

    Nuclear Repulsion Energy =            271.1593668070003105
    One-Electron Energy =               -1015.5779677807032613
    Two-Electron Energy =                 401.1496190630167575
    Total Energy =                       -343.2689819106861933
  Basis Set: (AUG-CC-PVTZ AUX)
    Blend: AUG-CC-PVTZ-RI
    Molecular point group: c1

    Geometry (in Angstrom), charge = -1, multiplicity = 1:

       Center              X                  Y                   Z               Mass
    ------------   -----------------  -----------------  -----------------  -----------------
         O            2.559331571246    -0.830084461885     0.288328943077    15.994914619570
         O            1.761471571246     1.272698538115    -0.054660056923    15.994914619570
         C           -2.238793428754    -0.370432461885    -0.492568056923    12.000000000000
         C           -3.179734428754     0.187697538115     0.580293943077    12.000000000000
         C           -0.844987428754     0.164257538115    -0.351585056923    12.000000000000
         C            0.249608571246    -0.570170461885    -0.102102056923    12.000000000000
         C            1.569254171246     0.081968738115     0.037658243077    12.000000000000
         H           -2.219111428754    -1.465601461885    -0.437781056923     1.007825032230
         H           -2.637890428754    -0.109717461885    -1.482525056923     1.007825032230
         H           -2.829270428754    -0.089112461885     1.578913943077     1.007825032230
         H           -3.222738428754     1.279980538115     0.529432943077     1.007825032230
         H           -4.196642428754    -0.196933461885     0.455380943077     1.007825032230
         H           -0.716062428754     1.244157538115    -0.439108056923     1.007825032230
         H            0.169150571246    -1.654438461885    -0.003761056923     1.007825032230

  Basis Set: AUG-CC-PVTZ
    Blend: AUG-CC-PVTZ
  Basis Set: (AUG-CC-PVTZ AUX)
    Blend: AUG-CC-PVTZ-JKFIT
	 Reference Energy          =    -343.2689819106861933 [Eh]
	 Singles Energy            =      -0.0000000000000000 [Eh]
	 Same-Spin Energy          =      -0.3493376899767793 [Eh]
	 Opposite-Spin Energy      =      -1.1079577338438082 [Eh]
	 Correlation Energy        =      -1.4572954238205875 [Eh]
	 Total Energy              =    -344.7262773345067899 [Eh]

	 ================> DF-SCS-MP2 Energies <==================
	-----------------------------------------------------------
	 SCS Same-Spin Scale       =       0.3333333333333333 [-]
	 SCS Opposite-Spin Scale   =       1.2000000000000000 [-]
	 SCS Same-Spin Energy      =      -0.1164458966589264 [Eh]
	 SCS Opposite-Spin Energy  =      -1.3295492806125699 [Eh]
	 SCS Correlation Energy    =      -1.4459951772714963 [Eh]
	 SCS Total Energy          =    -344.7149770879576636 [Eh]
	-----------------------------------------------------------

  Dipole Moment: [D]
     X:   -10.1179      Y:    -0.4273      Z:    -0.7419     Total:    10.1541

*** Psi4 exiting successfully. Buy a developer a beer!
