                               Psi4 1.3.2 release

  ==> Input File <==

--------------------------------------------------------------------------
#psi4
#
memory 32 gb

molecule  {
-1 1
  O        2.6974490    -0.8132830     0.2843680
  O        1.8995890     1.2895000    -0.0586210
  C       -2.1006760    -0.3536310    -0.4965290
  C       -3.0416170     0.2044990     0.5763330
  C       -0.6801229     0.2194946    -0.3553567
  C        0.3877260    -0.5533690    -0.1060630
  C        1.7593196     0.0803907     0.0437422
  H       -2.0809940    -1.4488000    -0.4417420
  H       -2.4997730    -0.0929160    -1.4864860
  H       -2.6911530    -0.0723110     1.5749530
  H       -3.0846210     1.2967820     0.5254720
  H       -4.0585250    -0.1801320     0.4514200
  H       -0.5779450     1.2609590    -0.4430690
  H        0.3072680    -1.6376370    -0.0077220
units angstrom
no_reorient  #important for SAPT in psi4, default
symmetry c1  #important for SAPT in psi4, default
}

set PROPERTIES_ORIGIN ["COM"]
properties('MP2/aug-cc-pvtz', properties = ['dipole'])
--------------------------------------------------------------------------

    Molecular point group: c1
  Charge       = -1
  Multiplicity = 1
  Basis Set: AUG-CC-PVTZ
    Blend: AUG-CC-PVTZ
  Basis Set: (AUG-CC-PVTZ AUX)
    Blend: AUG-CC-PVTZ-JKFIT

    Orbital Energies [Eh]
    ---------------------

    Doubly Occupied:

       1A    -20.303150     2A    -20.282742     3A    -11.140290
       4A    -11.115504     5A    -11.114866     6A    -11.084485
       7A    -11.070758     8A     -1.173640     9A     -1.049703
      10A     -0.949680    11A     -0.864209    12A     -0.739575
      13A     -0.636670    14A     -0.550877    15A     -0.493301
      16A     -0.485503    17A     -0.450911    18A     -0.420442
      19A     -0.407275    20A     -0.382632    21A     -0.372353
      22A     -0.361509    23A     -0.354884    24A     -0.213121
      25A     -0.206953    26A     -0.201031    27A     -0.187543

  @DF-RHF Final Energy:  -343.27958576121841

   => Energetics <=

    Nuclear Repulsion Energy =            270.8618368217348689
    One-Electron Energy =               -1015.0556298829487787
    Two-Electron Energy =                 400.9142072999954962
    Total Energy =                       -343.2795857612184136
  Basis Set: (AUG-CC-PVTZ AUX)
    Blend: AUG-CC-PVTZ-RI
    Molecular point group: c1

    Geometry (in Angstrom), charge = -1, multiplicity = 1:

       Center              X                  Y                   Z               Mass
    ------------   -----------------  -----------------  -----------------  -----------------
         O            2.549797067018    -0.832514409496     0.287088992646    15.994914619570
         O            1.751937067018     1.270268590504    -0.055900007354    15.994914619570
         C           -2.248327932982    -0.372862409496    -0.493808007354    12.000000000000
         C           -3.189268932982     0.185267590504     0.579053992646    12.000000000000
         C           -0.827774832982     0.200263190504    -0.352635707354    12.000000000000
         C            0.240074067018    -0.572600409496    -0.103342007354    12.000000000000
         C            1.611667667018     0.061159290504     0.046463192646    12.000000000000
         H           -2.228645932982    -1.468031409496    -0.439021007354     1.007825032230
         H           -2.647424932982    -0.112147409496    -1.483765007354     1.007825032230
         H           -2.838804932982    -0.091542409496     1.577673992646     1.007825032230
         H           -3.232272932982     1.277550590504     0.528192992646     1.007825032230
         H           -4.206176932982    -0.199363409496     0.454140992646     1.007825032230
         H           -0.725596932982     1.241727590504    -0.440348007354     1.007825032230
         H            0.159616067018    -1.656868409496    -0.005001007354     1.007825032230

  Basis Set: AUG-CC-PVTZ
    Blend: AUG-CC-PVTZ
  Basis Set: (AUG-CC-PVTZ AUX)
    Blend: AUG-CC-PVTZ-JKFIT
	 Reference Energy          =    -343.2795857612184136 [Eh]
	 Singles Energy            =      -0.0000000000000000 [Eh]
	 Same-Spin Energy          =      -0.3478851427770321 [Eh]
	 Opposite-Spin Energy      =      -1.1054059579531035 [Eh]
	 Correlation Energy        =      -1.4532911007301355 [Eh]
	 Total Energy              =    -344.7328768619485686 [Eh]

	 ================> DF-SCS-MP2 Energies <==================
	-----------------------------------------------------------
	 SCS Same-Spin Scale       =       0.3333333333333333 [-]
	 SCS Opposite-Spin Scale   =       1.2000000000000000 [-]
	 SCS Same-Spin Energy      =      -0.1159617142590107 [Eh]
	 SCS Opposite-Spin Energy  =      -1.3264871495437240 [Eh]
	 SCS Correlation Energy    =      -1.4424488638027348 [Eh]
	 SCS Total Energy          =    -344.7220346250211378 [Eh]
	-----------------------------------------------------------

  Dipole Moment: [D]
     X:    -9.6839      Y:    -0.6402      Z:    -0.6639     Total:     9.7278

*** Psi4 exiting successfully. Buy a developer a beer!
