                               Psi4 1.3.2 release

  ==> Input File <==

--------------------------------------------------------------------------
#psi4
#
memory 32 gb

molecule  {
-1 1
  O        2.6974490    -0.8132830     0.2843680
  O        1.8995890     1.2895000    -0.0586210
  C       -2.1006760    -0.3536310    -0.4965290
  C       -3.0416170     0.2044990     0.5763330
  C       -0.7068700     0.1810590    -0.3555460
  C        0.3877260    -0.5533690    -0.1060630
  C        1.8713538     0.0707258     0.0624145
  H       -2.0809940    -1.4488000    -0.4417420
  H       -2.4997730    -0.0929160    -1.4864860
  H       -2.6911530    -0.0723110     1.5749530
  H       -3.0846210     1.2967820     0.5254720
  H       -4.0585250    -0.1801320     0.4514200
  H       -0.5779450     1.2609590    -0.4430690
  H        0.3072680    -1.6376370    -0.0077220
units angstrom
no_reorient  #important for SAPT in psi4, default
symmetry c1  #important for SAPT in psi4, default
}

set PROPERTIES_ORIGIN ["COM"]
properties('MP2/aug-cc-pvtz', properties = ['dipole'])
--------------------------------------------------------------------------

    Molecular point group: c1
  Charge       = -1
  Multiplicity = 1
  Basis Set: AUG-CC-PVTZ
    Blend: AUG-CC-PVTZ
  Basis Set: (AUG-CC-PVTZ AUX)
    Blend: AUG-CC-PVTZ-JKFIT

    Orbital Energies [Eh]
    ---------------------

    Doubly Occupied:

       1A    -20.301504     2A    -20.300138     3A    -11.145390
       4A    -11.110073     5A    -11.106645     6A    -11.072503
       7A    -11.059916     8A     -1.189355     9A     -1.097560
      10A     -0.945383    11A     -0.848663    12A     -0.730492
      13A     -0.614723    14A     -0.535707    15A     -0.491473
      16A     -0.477487    17A     -0.452650    18A     -0.420179
      19A     -0.403935    20A     -0.391905    21A     -0.377612
      22A     -0.374890    23A     -0.343838    24A     -0.228237
      25A     -0.208951    26A     -0.196326    27A     -0.193608

  @DF-RHF Final Energy:  -343.28491948060423

   => Energetics <=

    Nuclear Repulsion Energy =            270.8246067322286876
    One-Electron Energy =               -1014.9807656006375964
    Two-Electron Energy =                 400.8712393878047351
    Total Energy =                       -343.2849194806042306
  Basis Set: (AUG-CC-PVTZ AUX)
    Blend: AUG-CC-PVTZ-RI
    Molecular point group: c1

    Geometry (in Angstrom), charge = -1, multiplicity = 1:

       Center              X                  Y                   Z               Mass
    ------------   -----------------  -----------------  -----------------  -----------------
         O            2.539463892329    -0.826686671548     0.284849637951    15.994914619570
         O            1.741603892329     1.276096328452    -0.058139362049    15.994914619570
         C           -2.258661107671    -0.367034671548    -0.496047362049    12.000000000000
         C           -3.199602107671     0.191095328452     0.576814637951    12.000000000000
         C           -0.864855107671     0.167655328452    -0.355064362049    12.000000000000
         C            0.229740892329    -0.566772671548    -0.105581362049    12.000000000000
         C            1.713368692329     0.057322128452     0.062896137951    12.000000000000
         H           -2.238979107671    -1.462203671548    -0.441260362049     1.007825032230
         H           -2.657758107671    -0.106319671548    -1.486004362049     1.007825032230
         H           -2.849138107671    -0.085714671548     1.575434637951     1.007825032230
         H           -3.242606107671     1.283378328452     0.525953637951     1.007825032230
         H           -4.216510107671    -0.193535671548     0.451901637951     1.007825032230
         H           -0.735930107671     1.247555328452    -0.442587362049     1.007825032230
         H            0.149282892329    -1.651040671548    -0.007240362049     1.007825032230

  Basis Set: AUG-CC-PVTZ
    Blend: AUG-CC-PVTZ
  Basis Set: (AUG-CC-PVTZ AUX)
    Blend: AUG-CC-PVTZ-JKFIT
	 Reference Energy          =    -343.2849194806042306 [Eh]
	 Singles Energy            =      -0.0000000000000000 [Eh]
	 Same-Spin Energy          =      -0.3467936622521646 [Eh]
	 Opposite-Spin Energy      =      -1.1022216931239592 [Eh]
	 Correlation Energy        =      -1.4490153553761238 [Eh]
	 Total Energy              =    -344.7339348359803353 [Eh]

	 ================> DF-SCS-MP2 Energies <==================
	-----------------------------------------------------------
	 SCS Same-Spin Scale       =       0.3333333333333333 [-]
	 SCS Opposite-Spin Scale   =       1.2000000000000000 [-]
	 SCS Same-Spin Energy      =      -0.1155978874173882 [Eh]
	 SCS Opposite-Spin Energy  =      -1.3226660317487511 [Eh]
	 SCS Correlation Energy    =      -1.4382639191661393 [Eh]
	 SCS Total Energy          =    -344.7231833997703916 [Eh]
	-----------------------------------------------------------

  Dipole Moment: [D]
     X:    -8.7040      Y:    -0.9241      Z:    -0.4993     Total:     8.7671

*** Psi4 exiting successfully. Buy a developer a beer!
