                               Psi4 1.4a3.dev225

  ==> Input File <==

--------------------------------------------------------------------------
#psi4
#
memory 32 gb

molecule  {
-1 1
  O        2.6993700    -0.8109490     0.2832770
  O        1.8994270     1.2905180    -0.0615170
  C       -2.1001690    -0.3616000    -0.4913260
  C       -3.0433460     0.2119310     0.5709670
  C       -0.7080250     0.1770830    -0.3546910
  C        0.3722367    -0.5432770    -0.1054345
  C        1.7798570     0.0330080     0.0518740
  H       -2.0812530    -1.4558260    -0.4203270
  H       -2.4968010    -0.1155520    -1.4857470
  H       -2.6986290    -0.0550030     1.5741980
  H       -3.0817280     1.3037570     0.5071410
  H       -4.0608920    -0.1705790     0.4451360
  H       -0.5806440     1.2564400    -0.4499950
  H        0.3081890    -1.6372690     0.0045550
units angstrom
no_reorient  #important for SAPT in psi4, default
symmetry c1  #important for SAPT in psi4, default
}

set PROPERTIES_ORIGIN ["COM"]
properties('MP2/aug-cc-pvtz', properties = ['dipole'])
--------------------------------------------------------------------------

    Molecular point group: c1
  Charge       = -1
  Multiplicity = 1
  Basis Set: AUG-CC-PVTZ
    Blend: AUG-CC-PVTZ
  Basis Set: (AUG-CC-PVTZ AUX)
    Blend: AUG-CC-PVTZ-JKFIT

    Orbital Energies [Eh]
    ---------------------

    Doubly Occupied:

       1A    -20.296096     2A    -20.291788     3A    -11.142972
       4A    -11.115552     5A    -11.113534     6A    -11.082160
       7A    -11.068377     8A     -1.161596     9A     -1.061015
      10A     -0.955701    11A     -0.864973    12A     -0.742835
      13A     -0.631680    14A     -0.548516    15A     -0.494727
      16A     -0.485722    17A     -0.446456    18A     -0.419169
      19A     -0.408615    20A     -0.382351    21A     -0.376976
      22A     -0.357716    23A     -0.347019    24A     -0.211219
      25A     -0.209233    26A     -0.208378    27A     -0.191363

  @DF-RHF Final Energy:  -343.28598102394398

   => Energetics <=

    Nuclear Repulsion Energy =            270.9537783106478059
    One-Electron Energy =               -1015.2480387972447033
    Two-Electron Energy =                 401.0082794626528653
    Total Energy =                       -343.2859810239439753
  Basis Set: (AUG-CC-PVTZ AUX)
    Blend: AUG-CC-PVTZ-RI
    Molecular point group: c1

    Geometry (in Angstrom), charge = -1, multiplicity = 1:

       Center              X                  Y                   Z               Mass
    ------------   -----------------  -----------------  -----------------  -----------------
         O            2.554412196741    -0.821000369138     0.285497854530    15.994914619570
         O            1.754469196741     1.280466630862    -0.059296145470    15.994914619570
         C           -2.245126803259    -0.371651369138    -0.489105145470    12.000000000000
         C           -3.188303803259     0.201879630862     0.573187854530    12.000000000000
         C           -0.852982803259     0.167031630862    -0.352470145470    12.000000000000
         C            0.227278896741    -0.553328369138    -0.103213645470    12.000000000000
         C            1.634899196741     0.022956630862     0.054094854530    12.000000000000
         H           -2.226210803259    -1.465877369138    -0.418106145470     1.007825032230
         H           -2.641758803259    -0.125603369138    -1.483526145470     1.007825032230
         H           -2.843586803259    -0.065054369138     1.576418854530     1.007825032230
         H           -3.226685803259     1.293705630862     0.509361854530     1.007825032230
         H           -4.205849803259    -0.180630369138     0.447356854530     1.007825032230
         H           -0.725601803259     1.246388630862    -0.447774145470     1.007825032230
         H            0.163231196741    -1.647320369138     0.006775854530     1.007825032230

  Basis Set: AUG-CC-PVTZ
    Blend: AUG-CC-PVTZ
  Basis Set: (AUG-CC-PVTZ AUX)
    Blend: AUG-CC-PVTZ-JKFIT
	 Reference Energy          =    -343.2859810239439753 [Eh]
	 Singles Energy            =      -0.0000000000000000 [Eh]
	 Same-Spin Energy          =      -0.3479713705687641 [Eh]
	 Opposite-Spin Energy      =      -1.1051255882046243 [Eh]
	 Correlation Energy        =      -1.4530969587733884 [Eh]
	 Total Energy              =    -344.7390779827173901 [Eh]

	 ================> DF-SCS-MP2 Energies <==================
	-----------------------------------------------------------
	 SCS Same-Spin Scale       =       0.3333333333333333 [-]
	 SCS Opposite-Spin Scale   =       1.2000000000000000 [-]
	 SCS Same-Spin Energy      =      -0.1159904568562547 [Eh]
	 SCS Opposite-Spin Energy  =      -1.3261507058455491 [Eh]
	 SCS Correlation Energy    =      -1.4421411627018037 [Eh]
	 SCS Total Energy          =    -344.7281221866458054 [Eh]
	-----------------------------------------------------------

  Dipole Moment: [D]
     X:    -9.5099      Y:    -1.1431      Z:    -0.5705     Total:     9.5953

*** Psi4 exiting successfully. Buy a developer a beer!
