                               Psi4 1.3.2 release

  ==> Input File <==

--------------------------------------------------------------------------
#psi4
#
memory 32 gb

molecule  {
-1 1
  O        2.6974490    -0.8132830     0.2843680
  O        1.8995890     1.2895000    -0.0586210
  C       -2.1006760    -0.3536310    -0.4965290
  C       -3.0416170     0.2044990     0.5763330
  C       -0.7068700     0.1810590    -0.3555460
  C        0.3877260    -0.5533690    -0.1060630
  C        1.7796780     0.0321620     0.0520040
  H       -2.0809940    -1.4488000    -0.4417420
  H       -2.4997730    -0.0929160    -1.4864860
  H       -2.6911530    -0.0723110     1.5749530
  H       -3.0846210     1.2967820     0.5254720
  H       -4.0585250    -0.1801320     0.4514200
  H       -0.5779450     1.2609590    -0.4430690
  H        0.3733826    -1.5626592    -0.0050402
units angstrom
no_reorient  #important for SAPT in psi4, default
symmetry c1  #important for SAPT in psi4, default
}

set PROPERTIES_ORIGIN ["COM"]
properties('MP2/aug-cc-pvtz', properties = ['dipole'])
--------------------------------------------------------------------------

    Molecular point group: c1
  Charge       = -1
  Multiplicity = 1
  Basis Set: AUG-CC-PVTZ
    Blend: AUG-CC-PVTZ
  Basis Set: (AUG-CC-PVTZ AUX)
    Blend: AUG-CC-PVTZ-JKFIT

    Orbital Energies [Eh]
    ---------------------

    Doubly Occupied:

       1A    -20.295224     2A    -20.289939     3A    -11.139540
       4A    -11.115738     5A    -11.113936     6A    -11.085506
       7A    -11.060357     8A     -1.161004     9A     -1.060189
      10A     -0.954370    11A     -0.864212    12A     -0.746024
      13A     -0.638642    14A     -0.549128    15A     -0.496325
      16A     -0.492174    17A     -0.445725    18A     -0.422591
      19A     -0.409034    20A     -0.383748    21A     -0.375677
      22A     -0.357074    23A     -0.352147    24A     -0.210473
      25A     -0.207376    26A     -0.204167    27A     -0.190437

  @DF-RHF Final Energy:  -343.28253483600633

   => Energetics <=

    Nuclear Repulsion Energy =            271.2397503887153789
    One-Electron Energy =               -1015.8030612677044928
    Two-Electron Energy =                 401.2807760429827795
    Total Energy =                       -343.2825348360063344
  Basis Set: (AUG-CC-PVTZ AUX)
    Blend: AUG-CC-PVTZ-RI
    Molecular point group: c1

    Geometry (in Angstrom), charge = -1, multiplicity = 1:

       Center              X                  Y                   Z               Mass
    ------------   -----------------  -----------------  -----------------  -----------------
         O            2.549898359271    -0.822777310726     0.286083659890    15.994914619570
         O            1.752038359271     1.280005689274    -0.056905340110    15.994914619570
         C           -2.248226640729    -0.363125310726    -0.494813340110    12.000000000000
         C           -3.189167640729     0.195004689274     0.578048659890    12.000000000000
         C           -0.854420640729     0.171564689274    -0.353830340110    12.000000000000
         C            0.240175359271    -0.562863310726    -0.104347340110    12.000000000000
         C            1.632127359271     0.022667689274     0.053719659890    12.000000000000
         H           -2.228544640729    -1.458294310726    -0.440026340110     1.007825032230
         H           -2.647323640729    -0.102410310726    -1.484770340110     1.007825032230
         H           -2.838703640729    -0.081805310726     1.576668659890     1.007825032230
         H           -3.232171640729     1.287287689274     0.527187659890     1.007825032230
         H           -4.206075640729    -0.189626310726     0.453135659890     1.007825032230
         H           -0.725495640729     1.251464689274    -0.441353340110     1.007825032230
         H            0.225831959271    -1.572153510726    -0.003324540110     1.007825032230

  Basis Set: AUG-CC-PVTZ
    Blend: AUG-CC-PVTZ
  Basis Set: (AUG-CC-PVTZ AUX)
    Blend: AUG-CC-PVTZ-JKFIT
	 Reference Energy          =    -343.2825348360063344 [Eh]
	 Singles Energy            =      -0.0000000000000000 [Eh]
	 Same-Spin Energy          =      -0.3479674915438186 [Eh]
	 Opposite-Spin Energy      =      -1.1051065538224552 [Eh]
	 Correlation Energy        =      -1.4530740453662738 [Eh]
	 Total Energy              =    -344.7356088813726274 [Eh]

	 ================> DF-SCS-MP2 Energies <==================
	-----------------------------------------------------------
	 SCS Same-Spin Scale       =       0.3333333333333333 [-]
	 SCS Opposite-Spin Scale   =       1.2000000000000000 [-]
	 SCS Same-Spin Energy      =      -0.1159891638479395 [Eh]
	 SCS Opposite-Spin Energy  =      -1.3261278645869461 [Eh]
	 SCS Correlation Energy    =      -1.4421170284348857 [Eh]
	 SCS Total Energy          =    -344.7246518644412276 [Eh]
	-----------------------------------------------------------

  Dipole Moment: [D]
     X:    -9.5336      Y:    -1.2143      Z:    -0.5763     Total:     9.6279

*** Psi4 exiting successfully. Buy a developer a beer!
