                               Psi4 1.3.2 release

  ==> Input File <==

--------------------------------------------------------------------------
#psi4
#
memory 32 gb

molecule  {
-1 1
  O        2.6974490    -0.8132830     0.2843680
  O        1.8995890     1.2895000    -0.0586210
  C       -2.1006760    -0.3536310    -0.4965290
  C       -3.0616442     0.1901859     0.5658811
  C       -0.6995890     0.1669188    -0.3763294
  C        0.3877260    -0.5533690    -0.1060630
  C        1.7796780     0.0321620     0.0520040
  H       -2.0809940    -1.4488000    -0.4417420
  H       -2.4997730    -0.0929160    -1.4864860
  H       -2.6911530    -0.0723110     1.5749530
  H       -3.0846210     1.2967820     0.5254720
  H       -4.0585250    -0.1801320     0.4514200
  H       -0.5779450     1.2609590    -0.4430690
  H        0.3072680    -1.6376370    -0.0077220
units angstrom
no_reorient  #important for SAPT in psi4, default
symmetry c1  #important for SAPT in psi4, default
}

set PROPERTIES_ORIGIN ["COM"]
properties('MP2/aug-cc-pvtz', properties = ['dipole'])
--------------------------------------------------------------------------

    Molecular point group: c1
  Charge       = -1
  Multiplicity = 1
  Basis Set: AUG-CC-PVTZ
    Blend: AUG-CC-PVTZ
  Basis Set: (AUG-CC-PVTZ AUX)
    Blend: AUG-CC-PVTZ-JKFIT

    Orbital Energies [Eh]
    ---------------------

    Doubly Occupied:

       1A    -20.295604     2A    -20.291928     3A    -11.142378
       4A    -11.116313     5A    -11.113989     6A    -11.085278
       7A    -11.069041     8A     -1.162069     9A     -1.061270
      10A     -0.954191    11A     -0.864784    12A     -0.744847
      13A     -0.630884    14A     -0.548936    15A     -0.495478
      16A     -0.486231    17A     -0.446247    18A     -0.422607
      19A     -0.406616    20A     -0.380378    21A     -0.377838
      22A     -0.358213    23A     -0.345117    24A     -0.211796
      25A     -0.209237    26A     -0.207100    27A     -0.191400

  @DF-RHF Final Energy:  -343.28481287509447

   => Energetics <=

    Nuclear Repulsion Energy =            270.7919204321664211
    One-Electron Energy =               -1014.9139280063391197
    Two-Electron Energy =                 400.8371946990782249
    Total Energy =                       -343.2848128750944738
  Basis Set: (AUG-CC-PVTZ AUX)
    Blend: AUG-CC-PVTZ-RI
    Molecular point group: c1

    Geometry (in Angstrom), charge = -1, multiplicity = 1:

       Center              X                  Y                   Z               Mass
    ------------   -----------------  -----------------  -----------------  -----------------
         O            2.552115404309    -0.818567044998     0.289895340367    15.994914619570
         O            1.754255404309     1.284215955002    -0.053093659633    15.994914619570
         C           -2.246009595691    -0.358915044998    -0.491001659633    12.000000000000
         C           -3.206977795691     0.184901855002     0.571408440367    12.000000000000
         C           -0.844922595691     0.161634755002    -0.370802059633    12.000000000000
         C            0.242392404309    -0.558653044998    -0.100535659633    12.000000000000
         C            1.634344404309     0.026877955002     0.057531340367    12.000000000000
         H           -2.226327595691    -1.454084044998    -0.436214659633     1.007825032230
         H           -2.645106595691    -0.098200044998    -1.480958659633     1.007825032230
         H           -2.836486595691    -0.077595044998     1.580480340367     1.007825032230
         H           -3.229954595691     1.291497955002     0.530999340367     1.007825032230
         H           -4.203858595691    -0.185416044998     0.456947340367     1.007825032230
         H           -0.723278595691     1.255674955002    -0.437541659633     1.007825032230
         H            0.161934404309    -1.642921044998    -0.002194659633     1.007825032230

  Basis Set: AUG-CC-PVTZ
    Blend: AUG-CC-PVTZ
  Basis Set: (AUG-CC-PVTZ AUX)
    Blend: AUG-CC-PVTZ-JKFIT
	 Reference Energy          =    -343.2848128750944738 [Eh]
	 Singles Energy            =      -0.0000000000000000 [Eh]
	 Same-Spin Energy          =      -0.3481027054195751 [Eh]
	 Opposite-Spin Energy      =      -1.1054299599045665 [Eh]
	 Correlation Energy        =      -1.4535326653241416 [Eh]
	 Total Energy              =    -344.7383455404186066 [Eh]

	 ================> DF-SCS-MP2 Energies <==================
	-----------------------------------------------------------
	 SCS Same-Spin Scale       =       0.3333333333333333 [-]
	 SCS Opposite-Spin Scale   =       1.2000000000000000 [-]
	 SCS Same-Spin Energy      =      -0.1160342351398584 [Eh]
	 SCS Opposite-Spin Energy  =      -1.3265159518854797 [Eh]
	 SCS Correlation Energy    =      -1.4425501870253381 [Eh]
	 SCS Total Energy          =    -344.7273630621198208 [Eh]
	-----------------------------------------------------------

  Dipole Moment: [D]
     X:    -9.5284      Y:    -1.1758      Z:    -0.5667     Total:     9.6173

*** Psi4 exiting successfully. Buy a developer a beer!
