                               Psi4 1.4a3.dev225

  ==> Input File <==

--------------------------------------------------------------------------
#psi4
#
memory 32 gb

molecule  {
-1 1
  O        2.6993700    -0.8109490     0.2832770
  O        1.8994270     1.2905180    -0.0615170
  C       -2.1001690    -0.3616000    -0.4913260
  C       -3.0433460     0.2119310     0.5709670
  C       -0.7544617     0.1591146    -0.3592486
  C        0.3885780    -0.5541740    -0.1016640
  C        1.7798570     0.0330080     0.0518740
  H       -2.0812530    -1.4558260    -0.4203270
  H       -2.4968010    -0.1155520    -1.4857470
  H       -2.6986290    -0.0550030     1.5741980
  H       -3.0817280     1.3037570     0.5071410
  H       -4.0608920    -0.1705790     0.4451360
  H       -0.5806440     1.2564400    -0.4499950
  H        0.3081890    -1.6372690     0.0045550
units angstrom
no_reorient  #important for SAPT in psi4, default
symmetry c1  #important for SAPT in psi4, default
}

set PROPERTIES_ORIGIN ["COM"]
properties('MP2/aug-cc-pvtz', properties = ['dipole'])
--------------------------------------------------------------------------

    Molecular point group: c1
  Charge       = -1
  Multiplicity = 1
  Basis Set: AUG-CC-PVTZ
    Blend: AUG-CC-PVTZ
  Basis Set: (AUG-CC-PVTZ AUX)
    Blend: AUG-CC-PVTZ-JKFIT

    Orbital Energies [Eh]
    ---------------------

    Doubly Occupied:

       1A    -20.296180     2A    -20.292368     3A    -11.143578
       4A    -11.116459     5A    -11.112642     6A    -11.088905
       7A    -11.074813     8A     -1.162266     9A     -1.061439
      10A     -0.961492    11A     -0.856958    12A     -0.748989
      13A     -0.631984    14A     -0.548722    15A     -0.498424
      16A     -0.486607    17A     -0.446329    18A     -0.417310
      19A     -0.411454    20A     -0.384680    21A     -0.381428
      22A     -0.357875    23A     -0.344317    24A     -0.213036
      25A     -0.209376    26A     -0.197477    27A     -0.191359

  @DF-RHF Final Energy:  -343.28025950441088

   => Energetics <=

    Nuclear Repulsion Energy =            270.7622829239721227
    One-Electron Energy =               -1014.8121595745093373
    Two-Electron Energy =                 400.7696171461263930
    Total Energy =                       -343.2802595044108784
  Basis Set: (AUG-CC-PVTZ AUX)
    Blend: AUG-CC-PVTZ-RI
    Molecular point group: c1

    Geometry (in Angstrom), charge = -1, multiplicity = 1:

       Center              X                  Y                   Z               Mass
    ------------   -----------------  -----------------  -----------------  -----------------
         O            2.558058481180    -0.817503108466     0.285593217625    15.994914619570
         O            1.758115481180     1.283963891534    -0.059200782375    15.994914619570
         C           -2.241480518820    -0.368154108466    -0.489009782375    12.000000000000
         C           -3.184657518820     0.205376891534     0.573283217625    12.000000000000
         C           -0.895773218820     0.152560491534    -0.356932382375    12.000000000000
         C            0.247266481180    -0.560728108466    -0.099347782375    12.000000000000
         C            1.638545481180     0.026453891534     0.054190217625    12.000000000000
         H           -2.222564518820    -1.462380108466    -0.418010782375     1.007825032230
         H           -2.638112518820    -0.122106108466    -1.483430782375     1.007825032230
         H           -2.839940518820    -0.061557108466     1.576514217625     1.007825032230
         H           -3.223039518820     1.297202891534     0.509457217625     1.007825032230
         H           -4.202203518820    -0.177133108466     0.447452217625     1.007825032230
         H           -0.721955518820     1.249885891534    -0.447678782375     1.007825032230
         H            0.166877481180    -1.643823108466     0.006871217625     1.007825032230

  Basis Set: AUG-CC-PVTZ
    Blend: AUG-CC-PVTZ
  Basis Set: (AUG-CC-PVTZ AUX)
    Blend: AUG-CC-PVTZ-JKFIT
	 Reference Energy          =    -343.2802595044108784 [Eh]
	 Singles Energy            =      -0.0000000000000000 [Eh]
	 Same-Spin Energy          =      -0.3491106841655742 [Eh]
	 Opposite-Spin Energy      =      -1.1070815712630839 [Eh]
	 Correlation Energy        =      -1.4561922554286582 [Eh]
	 Total Energy              =    -344.7364517598395537 [Eh]

	 ================> DF-SCS-MP2 Energies <==================
	-----------------------------------------------------------
	 SCS Same-Spin Scale       =       0.3333333333333333 [-]
	 SCS Opposite-Spin Scale   =       1.2000000000000000 [-]
	 SCS Same-Spin Energy      =      -0.1163702280551914 [Eh]
	 SCS Opposite-Spin Energy  =      -1.3284978855157006 [Eh]
	 SCS Correlation Energy    =      -1.4448681135708921 [Eh]
	 SCS Total Energy          =    -344.7251276179817978 [Eh]
	-----------------------------------------------------------

  Dipole Moment: [D]
     X:    -9.5395      Y:    -1.1824      Z:    -0.5717     Total:     9.6295

*** Psi4 exiting successfully. Buy a developer a beer!
