                               Psi4 1.3.2 release

  ==> Input File <==

--------------------------------------------------------------------------
#psi4
#
memory 32 gb

molecule  {
-1 1
  O        2.6974490    -0.8132830     0.2843680
  O        1.8995890     1.2895000    -0.0586210
  C       -2.1006760    -0.3536310    -0.4965290
  C       -3.0416170     0.2044990     0.5763330
  C       -0.7444512     0.1217237    -0.3554445
  C        0.3877260    -0.5533690    -0.1060630
  C        1.7796780     0.0321620     0.0520040
  H       -2.0809940    -1.4488000    -0.4417420
  H       -2.4997730    -0.0929160    -1.4864860
  H       -2.6911530    -0.0723110     1.5749530
  H       -3.0846210     1.2967820     0.5254720
  H       -4.0585250    -0.1801320     0.4514200
  H       -0.5779450     1.2609590    -0.4430690
  H        0.2511039    -1.6328185    -0.0171541
units angstrom
no_reorient  #important for SAPT in psi4, default
symmetry c1  #important for SAPT in psi4, default
}

set PROPERTIES_ORIGIN ["COM"]
properties('MP2/aug-cc-pvtz', properties = ['dipole'])
--------------------------------------------------------------------------

    Molecular point group: c1
  Charge       = -1
  Multiplicity = 1
  Basis Set: AUG-CC-PVTZ
    Blend: AUG-CC-PVTZ
  Basis Set: (AUG-CC-PVTZ AUX)
    Blend: AUG-CC-PVTZ-JKFIT

    Orbital Energies [Eh]
    ---------------------

    Doubly Occupied:

       1A    -20.296596     2A    -20.293609     3A    -11.145547
       4A    -11.117101     5A    -11.112871     6A    -11.086928
       7A    -11.070768     8A     -1.163125     9A     -1.062338
      10A     -0.963557    11A     -0.862627    12A     -0.751128
      13A     -0.625767    14A     -0.551703    15A     -0.500957
      16A     -0.484332    17A     -0.447006    18A     -0.418849
      19A     -0.411536    20A     -0.387832    21A     -0.381760
      22A     -0.359002    23A     -0.330503    24A     -0.214369
      25A     -0.210532    26A     -0.204122    27A     -0.192235

  @DF-RHF Final Energy:  -343.27811982764331

   => Energetics <=

    Nuclear Repulsion Energy =            271.1014666449266883
    One-Electron Energy =               -1015.4657694936757935
    Two-Electron Energy =                 401.0861830211057395
    Total Energy =                       -343.2781198276433088
  Basis Set: (AUG-CC-PVTZ AUX)
    Blend: AUG-CC-PVTZ-RI
    Molecular point group: c1

    Geometry (in Angstrom), charge = -1, multiplicity = 1:

       Center              X                  Y                   Z               Mass
    ------------   -----------------  -----------------  -----------------  -----------------
         O            2.555695847563    -0.814874488528     0.286194626981    15.994914619570
         O            1.757835847563     1.287908511472    -0.056794373019    15.994914619570
         C           -2.242429152437    -0.355222488528    -0.494702373019    12.000000000000
         C           -3.183370152437     0.202907511472     0.578159626981    12.000000000000
         C           -0.886204352437     0.120132211472    -0.353617873019    12.000000000000
         C            0.245972847563    -0.554960488528    -0.104236373019    12.000000000000
         C            1.637924847563     0.030570511472     0.053830626981    12.000000000000
         H           -2.222747152437    -1.450391488528    -0.439915373019     1.007825032230
         H           -2.641526152437    -0.094507488528    -1.484659373019     1.007825032230
         H           -2.832906152437    -0.073902488528     1.576779626981     1.007825032230
         H           -3.226374152437     1.295190511472     0.527298626981     1.007825032230
         H           -4.200278152437    -0.181723488528     0.453246626981     1.007825032230
         H           -0.719698152437     1.259367511472    -0.441242373019     1.007825032230
         H            0.109350747563    -1.634409988528    -0.015327473019     1.007825032230

  Basis Set: AUG-CC-PVTZ
    Blend: AUG-CC-PVTZ
  Basis Set: (AUG-CC-PVTZ AUX)
    Blend: AUG-CC-PVTZ-JKFIT
	 Reference Energy          =    -343.2781198276433088 [Eh]
	 Singles Energy            =      -0.0000000000000000 [Eh]
	 Same-Spin Energy          =      -0.3491165559348244 [Eh]
	 Opposite-Spin Energy      =      -1.1068646063782097 [Eh]
	 Correlation Energy        =      -1.4559811623130341 [Eh]
	 Total Energy              =    -344.7341009899563460 [Eh]

	 ================> DF-SCS-MP2 Energies <==================
	-----------------------------------------------------------
	 SCS Same-Spin Scale       =       0.3333333333333333 [-]
	 SCS Opposite-Spin Scale   =       1.2000000000000000 [-]
	 SCS Same-Spin Energy      =      -0.1163721853116081 [Eh]
	 SCS Opposite-Spin Energy  =      -1.3282375276538516 [Eh]
	 SCS Correlation Energy    =      -1.4446097129654598 [Eh]
	 SCS Total Energy          =    -344.7227295406087819 [Eh]
	-----------------------------------------------------------

  Dipole Moment: [D]
     X:    -9.5346      Y:    -1.1836      Z:    -0.5728     Total:     9.6249

*** Psi4 exiting successfully. Buy a developer a beer!
