                               Psi4 1.3.2 release

  ==> Input File <==

--------------------------------------------------------------------------
#psi4
#
memory 32 gb

molecule  {
-1 1
  O        2.6974490    -0.8132830     0.2843680
  O        1.8995890     1.2895000    -0.0586210
  C       -2.1006760    -0.3536310    -0.4965290
  C       -3.0007089     0.2326109     0.5962533
  C       -0.7227033     0.2088464    -0.3141145
  C        0.3877260    -0.5533690    -0.1060630
  C        1.7796780     0.0321620     0.0520040
  H       -2.0809940    -1.4488000    -0.4417420
  H       -2.4997730    -0.0929160    -1.4864860
  H       -2.6911530    -0.0723110     1.5749530
  H       -3.0846210     1.2967820     0.5254720
  H       -4.0585250    -0.1801320     0.4514200
  H       -0.5779450     1.2609590    -0.4430690
  H        0.3072680    -1.6376370    -0.0077220
units angstrom
no_reorient  #important for SAPT in psi4, default
symmetry c1  #important for SAPT in psi4, default
}

set PROPERTIES_ORIGIN ["COM"]
properties('MP2/aug-cc-pvtz', properties = ['dipole'])
--------------------------------------------------------------------------

    Molecular point group: c1
  Charge       = -1
  Multiplicity = 1
  Basis Set: AUG-CC-PVTZ
    Blend: AUG-CC-PVTZ
  Basis Set: (AUG-CC-PVTZ AUX)
    Blend: AUG-CC-PVTZ-JKFIT

    Orbital Energies [Eh]
    ---------------------

    Doubly Occupied:

       1A    -20.295158     2A    -20.291395     3A    -11.141586
       4A    -11.115571     5A    -11.114390     6A    -11.086271
       7A    -11.072836     8A     -1.161581     9A     -1.060839
      10A     -0.954884    11A     -0.857652    12A     -0.742477
      13A     -0.637508    14A     -0.549301    15A     -0.498664
      16A     -0.481781    17A     -0.446293    18A     -0.415098
      19A     -0.412317    20A     -0.387575    21A     -0.369021
      22A     -0.357513    23A     -0.354161    24A     -0.210801
      25A     -0.208832    26A     -0.199400    27A     -0.190920

  @DF-RHF Final Energy:  -343.27995370911310

   => Energetics <=

    Nuclear Repulsion Energy =            270.9597238188017627
    One-Electron Energy =               -1015.2517020101481648
    Two-Electron Energy =                 401.0120244822333007
    Total Energy =                       -343.2799537091131015
  Basis Set: (AUG-CC-PVTZ AUX)
    Blend: AUG-CC-PVTZ-RI
    Molecular point group: c1

    Geometry (in Angstrom), charge = -1, multiplicity = 1:

       Center              X                  Y                   Z               Mass
    ------------   -----------------  -----------------  -----------------  -----------------
         O            2.547533105229    -0.828786997973     0.278677715681    15.994914619570
         O            1.749673105228     1.273996002027    -0.064311284319    15.994914619570
         C           -2.250591894772    -0.369134997973    -0.502219284319    12.000000000000
         C           -3.150624794771     0.217106902027     0.590563015681    12.000000000000
         C           -0.872619194772     0.193342402027    -0.319804784319    12.000000000000
         C            0.237810105228    -0.568872997973    -0.111753284319    12.000000000000
         C            1.629762105228     0.016658002027     0.046313715681    12.000000000000
         H           -2.230909894772    -1.464303997973    -0.447432284319     1.007825032230
         H           -2.649688894772    -0.108419997973    -1.492176284319     1.007825032230
         H           -2.841068894772    -0.087814997973     1.569262715681     1.007825032230
         H           -3.234536894771     1.281278002027     0.519781715681     1.007825032230
         H           -4.208440894772    -0.195635997973     0.445729715681     1.007825032230
         H           -0.727860894772     1.245455002027    -0.448759284319     1.007825032230
         H            0.157352105228    -1.653140997973    -0.013412284319     1.007825032230

  Basis Set: AUG-CC-PVTZ
    Blend: AUG-CC-PVTZ
  Basis Set: (AUG-CC-PVTZ AUX)
    Blend: AUG-CC-PVTZ-JKFIT
	 Reference Energy          =    -343.2799537091131015 [Eh]
	 Singles Energy            =      -0.0000000000000000 [Eh]
	 Same-Spin Energy          =      -0.3484492431550060 [Eh]
	 Opposite-Spin Energy      =      -1.1063990506977341 [Eh]
	 Correlation Energy        =      -1.4548482938527401 [Eh]
	 Total Energy              =    -344.7348020029658642 [Eh]

	 ================> DF-SCS-MP2 Energies <==================
	-----------------------------------------------------------
	 SCS Same-Spin Scale       =       0.3333333333333333 [-]
	 SCS Opposite-Spin Scale   =       1.2000000000000000 [-]
	 SCS Same-Spin Energy      =      -0.1161497477183353 [Eh]
	 SCS Opposite-Spin Energy  =      -1.3276788608372809 [Eh]
	 SCS Correlation Energy    =      -1.4438286085556162 [Eh]
	 SCS Total Energy          =    -344.7237823176687357 [Eh]
	-----------------------------------------------------------

  Dipole Moment: [D]
     X:    -9.4429      Y:    -1.1130      Z:    -0.6064     Total:     9.5276

*** Psi4 exiting successfully. Buy a developer a beer!
