                               Psi4 1.4a3.dev225

  ==> Input File <==

--------------------------------------------------------------------------
#psi4
#
memory 32 gb

molecule  {
-1 1
  O        2.6993700    -0.8109490     0.2832770
  O        1.8994270     1.2905180    -0.0615170
  C       -2.1001690    -0.3616000    -0.4913260
  C       -3.0433460     0.2119310     0.5709670
  C       -0.7080250     0.1770830    -0.3546910
  C        0.3477247    -0.5269315    -0.1110904
  C        1.7798570     0.0330080     0.0518740
  H       -2.0812530    -1.4558260    -0.4203270
  H       -2.4968010    -0.1155520    -1.4857470
  H       -2.6986290    -0.0550030     1.5741980
  H       -3.0817280     1.3037570     0.5071410
  H       -4.0608920    -0.1705790     0.4451360
  H       -0.5806440     1.2564400    -0.4499950
  H        0.3081890    -1.6372690     0.0045550
units angstrom
no_reorient  #important for SAPT in psi4, default
symmetry c1  #important for SAPT in psi4, default
}

set PROPERTIES_ORIGIN ["COM"]
properties('MP2/aug-cc-pvtz', properties = ['dipole'])
--------------------------------------------------------------------------

    Molecular point group: c1
  Charge       = -1
  Multiplicity = 1
  Basis Set: AUG-CC-PVTZ
    Blend: AUG-CC-PVTZ
  Basis Set: (AUG-CC-PVTZ AUX)
    Blend: AUG-CC-PVTZ-JKFIT

    Orbital Energies [Eh]
    ---------------------

    Doubly Occupied:

       1A    -20.297293     2A    -20.292084     3A    -11.144411
       4A    -11.115210     5A    -11.112868     6A    -11.076950
       7A    -11.065681     8A     -1.161554     9A     -1.061381
      10A     -0.957919    11A     -0.868957    12A     -0.741464
      13A     -0.629023    14A     -0.548005    15A     -0.494987
      16A     -0.484626    17A     -0.447299    18A     -0.419371
      19A     -0.408114    20A     -0.381561    21A     -0.378522
      22A     -0.357561    23A     -0.343432    24A     -0.216479
      25A     -0.211512    26A     -0.206835    27A     -0.191822

  @DF-RHF Final Energy:  -343.28396252376410

   => Energetics <=

    Nuclear Repulsion Energy =            271.1451004870032193
    One-Electron Energy =               -1015.6282791766801665
    Two-Electron Energy =                 401.1992161659128442
    Total Energy =                       -343.2839625237641030
  Basis Set: (AUG-CC-PVTZ AUX)
    Blend: AUG-CC-PVTZ-RI
    Molecular point group: c1

    Geometry (in Angstrom), charge = -1, multiplicity = 1:

       Center              X                  Y                   Z               Mass
    ------------   -----------------  -----------------  -----------------  -----------------
         O            2.557382010206    -0.822980749605     0.286183109425    15.994914619570
         O            1.757439010206     1.278486250395    -0.058610890575    15.994914619570
         C           -2.242156989794    -0.373631749605    -0.488419890575    12.000000000000
         C           -3.185333989794     0.199899250395     0.573873109425    12.000000000000
         C           -0.850012989794     0.165051250395    -0.351784890575    12.000000000000
         C            0.205736710206    -0.538963249605    -0.108184290575    12.000000000000
         C            1.637869010206     0.020976250395     0.054780109425    12.000000000000
         H           -2.223240989794    -1.467857749605    -0.417420890575     1.007825032230
         H           -2.638788989794    -0.127583749605    -1.482840890575     1.007825032230
         H           -2.840616989794    -0.067034749605     1.577104109425     1.007825032230
         H           -3.223715989794     1.291725250395     0.510047109425     1.007825032230
         H           -4.202879989794    -0.182610749605     0.448042109425     1.007825032230
         H           -0.722631989794     1.244408250395    -0.447088890575     1.007825032230
         H            0.166201010206    -1.649300749605     0.007461109425     1.007825032230

  Basis Set: AUG-CC-PVTZ
    Blend: AUG-CC-PVTZ
  Basis Set: (AUG-CC-PVTZ AUX)
    Blend: AUG-CC-PVTZ-JKFIT
	 Reference Energy          =    -343.2839625237641030 [Eh]
	 Singles Energy            =      -0.0000000000000000 [Eh]
	 Same-Spin Energy          =      -0.3477689142196751 [Eh]
	 Opposite-Spin Energy      =      -1.1045475945401160 [Eh]
	 Correlation Energy        =      -1.4523165087597911 [Eh]
	 Total Energy              =    -344.7362790325238961 [Eh]

	 ================> DF-SCS-MP2 Energies <==================
	-----------------------------------------------------------
	 SCS Same-Spin Scale       =       0.3333333333333333 [-]
	 SCS Opposite-Spin Scale   =       1.2000000000000000 [-]
	 SCS Same-Spin Energy      =      -0.1159229714065584 [Eh]
	 SCS Opposite-Spin Energy  =      -1.3254571134481392 [Eh]
	 SCS Correlation Energy    =      -1.4413800848546976 [Eh]
	 SCS Total Energy          =    -344.7253426086188028 [Eh]
	-----------------------------------------------------------

  Dipole Moment: [D]
     X:    -9.4902      Y:    -1.1093      Z:    -0.5718     Total:     9.5720

*** Psi4 exiting successfully. Buy a developer a beer!
