                               Psi4 1.3.2 release

  ==> Input File <==

--------------------------------------------------------------------------
#psi4
#
memory 32 gb

molecule  {
-1 1
  O        2.6974490    -0.8132830     0.2843680
  O        1.8995890     1.2895000    -0.0586210
  C       -2.1006760    -0.3536310    -0.4965290
  C       -3.0416170     0.2044990     0.5763330
  C       -0.7068700     0.1810590    -0.3555460
  C        0.3877260    -0.5533690    -0.1060630
  C        1.7702204    -0.0670067     0.0607292
  H       -2.0809940    -1.4488000    -0.4417420
  H       -2.4997730    -0.0929160    -1.4864860
  H       -2.6911530    -0.0723110     1.5749530
  H       -3.0846210     1.2967820     0.5254720
  H       -4.0585250    -0.1801320     0.4514200
  H       -0.5779450     1.2609590    -0.4430690
  H        0.3072680    -1.6376370    -0.0077220
units angstrom
no_reorient  #important for SAPT in psi4, default
symmetry c1  #important for SAPT in psi4, default
}

set PROPERTIES_ORIGIN ["COM"]
properties('MP2/aug-cc-pvtz', properties = ['dipole'])
--------------------------------------------------------------------------

    Molecular point group: c1
  Charge       = -1
  Multiplicity = 1
  Basis Set: AUG-CC-PVTZ
    Blend: AUG-CC-PVTZ
  Basis Set: (AUG-CC-PVTZ AUX)
    Blend: AUG-CC-PVTZ-JKFIT

    Orbital Energies [Eh]
    ---------------------

    Doubly Occupied:

       1A    -20.313491     2A    -20.269026     3A    -11.140340
       4A    -11.117581     5A    -11.116573     6A    -11.091484
       7A    -11.072099     8A     -1.179812     9A     -1.022839
      10A     -0.956483    11A     -0.866503    12A     -0.750034
      13A     -0.645332    14A     -0.552973    15A     -0.497544
      16A     -0.487416    17A     -0.450745    18A     -0.422497
      19A     -0.411555    20A     -0.383411    21A     -0.372691
      22A     -0.360267    23A     -0.346887    24A     -0.214681
      25A     -0.211552    26A     -0.189605    27A     -0.174751

  @DF-RHF Final Energy:  -343.26881253838383

   => Energetics <=

    Nuclear Repulsion Energy =            270.7898814122619342
    One-Electron Energy =               -1014.8810439564282433
    Two-Electron Energy =                 400.8223500057824822
    Total Energy =                       -343.2688125383838269
  Basis Set: (AUG-CC-PVTZ AUX)
    Blend: AUG-CC-PVTZ-RI
    Molecular point group: c1

    Geometry (in Angstrom), charge = -1, multiplicity = 1:

       Center              X                  Y                   Z               Mass
    ------------   -----------------  -----------------  -----------------  -----------------
         O            2.551716965644    -0.809999341542     0.285053824743    15.994914619570
         O            1.753856965644     1.292783658458    -0.057935175257    15.994914619570
         C           -2.246408034356    -0.350347341542    -0.495843175257    12.000000000000
         C           -3.187349034356     0.207782658458     0.577018824743    12.000000000000
         C           -0.852602034356     0.184342658458    -0.354860175257    12.000000000000
         C            0.241993965644    -0.550085341542    -0.105377175257    12.000000000000
         C            1.624488365644    -0.063723041542     0.061415024743    12.000000000000
         H           -2.226726034356    -1.445516341542    -0.441056175257     1.007825032230
         H           -2.645505034356    -0.089632341542    -1.485800175257     1.007825032230
         H           -2.836885034356    -0.069027341542     1.575638824743     1.007825032230
         H           -3.230353034356     1.300065658458     0.526157824743     1.007825032230
         H           -4.204257034356    -0.176848341542     0.452105824743     1.007825032230
         H           -0.723677034356     1.264242658458    -0.442383175257     1.007825032230
         H            0.161535965644    -1.634353341542    -0.007036175257     1.007825032230

  Basis Set: AUG-CC-PVTZ
    Blend: AUG-CC-PVTZ
  Basis Set: (AUG-CC-PVTZ AUX)
    Blend: AUG-CC-PVTZ-JKFIT
	 Reference Energy          =    -343.2688125383838269 [Eh]
	 Singles Energy            =      -0.0000000000000000 [Eh]
	 Same-Spin Energy          =      -0.3489291083981623 [Eh]
	 Opposite-Spin Energy      =      -1.1076395774638859 [Eh]
	 Correlation Energy        =      -1.4565686858620481 [Eh]
	 Total Energy              =    -344.7253812242458935 [Eh]

	 ================> DF-SCS-MP2 Energies <==================
	-----------------------------------------------------------
	 SCS Same-Spin Scale       =       0.3333333333333333 [-]
	 SCS Opposite-Spin Scale   =       1.2000000000000000 [-]
	 SCS Same-Spin Energy      =      -0.1163097027993874 [Eh]
	 SCS Opposite-Spin Energy  =      -1.3291674929566630 [Eh]
	 SCS Correlation Energy    =      -1.4454771957560504 [Eh]
	 SCS Total Energy          =    -344.7142897341398680 [Eh]
	-----------------------------------------------------------

  Dipole Moment: [D]
     X:    -9.5224      Y:    -2.0426      Z:    -0.4773     Total:     9.7507

*** Psi4 exiting successfully. Buy a developer a beer!
