                               Psi4 1.4a3.dev225

  ==> Input File <==

--------------------------------------------------------------------------
#psi4
#
memory 32 gb

molecule  {
-1 1
  O        2.6993700    -0.8109490     0.2832770
  O        1.8994270     1.2905180    -0.0615170
  C       -2.1001690    -0.3616000    -0.4913260
  C       -3.0433460     0.2119310     0.5709670
  C       -0.7080250     0.1770830    -0.3546910
  C        0.3885780    -0.5541740    -0.1016640
  C        1.7817426     0.0528385     0.0500859
  H       -2.0812530    -1.4558260    -0.4203270
  H       -2.4968010    -0.1155520    -1.4857470
  H       -2.6986290    -0.0550030     1.5741980
  H       -3.0817280     1.3037570     0.5071410
  H       -4.0608920    -0.1705790     0.4451360
  H       -0.5806440     1.2564400    -0.4499950
  H        0.3081890    -1.6372690     0.0045550
units angstrom
no_reorient  #important for SAPT in psi4, default
symmetry c1  #important for SAPT in psi4, default
}

set PROPERTIES_ORIGIN ["COM"]
properties('MP2/aug-cc-pvtz', properties = ['dipole'])
--------------------------------------------------------------------------

    Molecular point group: c1
  Charge       = -1
  Multiplicity = 1
  Basis Set: AUG-CC-PVTZ
    Blend: AUG-CC-PVTZ
  Basis Set: (AUG-CC-PVTZ AUX)
    Blend: AUG-CC-PVTZ-JKFIT

    Orbital Energies [Eh]
    ---------------------

    Doubly Occupied:

       1A    -20.296340     2A    -20.291709     3A    -11.142134
       4A    -11.115417     5A    -11.113436     6A    -11.084340
       7A    -11.069615     8A     -1.165631     9A     -1.062743
      10A     -0.953903    11A     -0.861503    12A     -0.742654
      13A     -0.630857    14A     -0.548302    15A     -0.494592
      16A     -0.485755    17A     -0.447342    18A     -0.418236
      19A     -0.408610    20A     -0.383775    21A     -0.376201
      22A     -0.359894    23A     -0.349563    24A     -0.211735
      25A     -0.208560    26A     -0.203987    27A     -0.192487

  @DF-RHF Final Energy:  -343.28597604323232

   => Energetics <=

    Nuclear Repulsion Energy =            270.8729623721937969
    One-Electron Energy =               -1015.0792343734510723
    Two-Electron Energy =                 400.9202959580249512
    Total Energy =                       -343.2859760432323242
  Basis Set: (AUG-CC-PVTZ AUX)
    Blend: AUG-CC-PVTZ-RI
    Molecular point group: c1

    Geometry (in Angstrom), charge = -1, multiplicity = 1:

       Center              X                  Y                   Z               Mass
    ------------   -----------------  -----------------  -----------------  -----------------
         O            2.552203870491    -0.822082729965     0.285257671835    15.994914619570
         O            1.752260870491     1.279384270035    -0.059536328165    15.994914619570
         C           -2.247335129509    -0.372733729965    -0.489345328165    12.000000000000
         C           -3.190512129509     0.200797270035     0.572947671835    12.000000000000
         C           -0.855191129509     0.165949270035    -0.352710328165    12.000000000000
         C            0.241411870491    -0.565307729965    -0.099683328165    12.000000000000
         C            1.634576470491     0.041704770035     0.052066571835    12.000000000000
         H           -2.228419129509    -1.466959729965    -0.418346328165     1.007825032230
         H           -2.643967129509    -0.126685729965    -1.483766328165     1.007825032230
         H           -2.845795129509    -0.066136729965     1.576178671835     1.007825032230
         H           -3.228894129509     1.292623270035     0.509121671835     1.007825032230
         H           -4.208058129509    -0.181712729965     0.447116671835     1.007825032230
         H           -0.727810129509     1.245306270035    -0.448014328165     1.007825032230
         H            0.161022870491    -1.648402729965     0.006535671835     1.007825032230

  Basis Set: AUG-CC-PVTZ
    Blend: AUG-CC-PVTZ
  Basis Set: (AUG-CC-PVTZ AUX)
    Blend: AUG-CC-PVTZ-JKFIT
	 Reference Energy          =    -343.2859760432323242 [Eh]
	 Singles Energy            =      -0.0000000000000000 [Eh]
	 Same-Spin Energy          =      -0.3480194476760971 [Eh]
	 Opposite-Spin Energy      =      -1.1052338293953077 [Eh]
	 Correlation Energy        =      -1.4532532770714048 [Eh]
	 Total Energy              =    -344.7392293203037070 [Eh]

	 ================> DF-SCS-MP2 Energies <==================
	-----------------------------------------------------------
	 SCS Same-Spin Scale       =       0.3333333333333333 [-]
	 SCS Opposite-Spin Scale   =       1.2000000000000000 [-]
	 SCS Same-Spin Energy      =      -0.1160064825586990 [Eh]
	 SCS Opposite-Spin Energy  =      -1.3262805952743693 [Eh]
	 SCS Correlation Energy    =      -1.4422870778330683 [Eh]
	 SCS Total Energy          =    -344.7282631210653676 [Eh]
	-----------------------------------------------------------

  Dipole Moment: [D]
     X:    -9.5192      Y:    -0.9819      Z:    -0.5905     Total:     9.5879

*** Psi4 exiting successfully. Buy a developer a beer!
