                               Psi4 1.3.2 release

  ==> Input File <==

--------------------------------------------------------------------------
#psi4
#
memory 32 gb

molecule  {
-1 1
  O        2.6974490    -0.8132830     0.2843680
  O        1.8995890     1.2895000    -0.0586210
  C       -2.1253856    -0.2801680    -0.5089990
  C       -3.0416170     0.2044990     0.5763330
  C       -0.7068700     0.1810590    -0.3555460
  C        0.4255286    -0.4941946    -0.1076095
  C        1.7796780     0.0321620     0.0520040
  H       -2.0809940    -1.4488000    -0.4417420
  H       -2.4997730    -0.0929160    -1.4864860
  H       -2.6911530    -0.0723110     1.5749530
  H       -3.0846210     1.2967820     0.5254720
  H       -4.0585250    -0.1801320     0.4514200
  H       -0.5779450     1.2609590    -0.4430690
  H        0.3072680    -1.6376370    -0.0077220
units angstrom
no_reorient  #important for SAPT in psi4, default
symmetry c1  #important for SAPT in psi4, default
}

set PROPERTIES_ORIGIN ["COM"]
properties('MP2/aug-cc-pvtz', properties = ['dipole'])
--------------------------------------------------------------------------

    Molecular point group: c1
  Charge       = -1
  Multiplicity = 1
  Basis Set: AUG-CC-PVTZ
    Blend: AUG-CC-PVTZ
  Basis Set: (AUG-CC-PVTZ AUX)
    Blend: AUG-CC-PVTZ-JKFIT

    Orbital Energies [Eh]
    ---------------------

    Doubly Occupied:

       1A    -20.296222     2A    -20.290319     3A    -11.139089
       4A    -11.119338     5A    -11.116855     6A    -11.087577
       7A    -11.075577     8A     -1.164242     9A     -1.061862
      10A     -0.958551    11A     -0.867846    12A     -0.748675
      13A     -0.639492    14A     -0.548719    15A     -0.504674
      16A     -0.479436    17A     -0.447255    18A     -0.429664
      19A     -0.414292    20A     -0.383210    21A     -0.367571
      22A     -0.362327    23A     -0.324904    24A     -0.217301
      25A     -0.208171    26A     -0.206870    27A     -0.190646

  @DF-RHF Final Energy:  -343.27173724897705

   => Energetics <=

    Nuclear Repulsion Energy =            271.5706284599127684
    One-Electron Energy =               -1016.3833604156490082
    Two-Electron Energy =                 401.5409947067591929
    Total Energy =                       -343.2717372489770469
  Basis Set: (AUG-CC-PVTZ AUX)
    Blend: AUG-CC-PVTZ-RI
    Molecular point group: c1

    Geometry (in Angstrom), charge = -1, multiplicity = 1:

       Center              X                  Y                   Z               Mass
    ------------   -----------------  -----------------  -----------------  -----------------
         O            2.548984790565    -0.838084396907     0.287809153026    15.994914619570
         O            1.751124790565     1.264698603093    -0.055179846974    15.994914619570
         C           -2.273849809435    -0.304969396907    -0.505557846974    12.000000000000
         C           -3.190081209435     0.179697603093     0.579774153026    12.000000000000
         C           -0.855334209435     0.156257603093    -0.352104846974    12.000000000000
         C            0.277064390565    -0.518995996907    -0.104168346974    12.000000000000
         C            1.631213790565     0.007360603093     0.055445153026    12.000000000000
         H           -2.229458209435    -1.473601396907    -0.438300846974     1.007825032230
         H           -2.648237209435    -0.117717396907    -1.483044846974     1.007825032230
         H           -2.839617209435    -0.097112396907     1.578394153026     1.007825032230
         H           -3.233085209435     1.271980603093     0.528913153026     1.007825032230
         H           -4.206989209435    -0.204933396907     0.454861153026     1.007825032230
         H           -0.726409209435     1.236157603093    -0.439627846974     1.007825032230
         H            0.158803790565    -1.662438396907    -0.004280846974     1.007825032230

  Basis Set: AUG-CC-PVTZ
    Blend: AUG-CC-PVTZ
  Basis Set: (AUG-CC-PVTZ AUX)
    Blend: AUG-CC-PVTZ-JKFIT
	 Reference Energy          =    -343.2717372489770469 [Eh]
	 Singles Energy            =      -0.0000000000000000 [Eh]
	 Same-Spin Energy          =      -0.3490950485490710 [Eh]
	 Opposite-Spin Energy      =      -1.1074665240971551 [Eh]
	 Correlation Energy        =      -1.4565615726462262 [Eh]
	 Total Energy              =    -344.7282988216232980 [Eh]

	 ================> DF-SCS-MP2 Energies <==================
	-----------------------------------------------------------
	 SCS Same-Spin Scale       =       0.3333333333333333 [-]
	 SCS Opposite-Spin Scale   =       1.2000000000000000 [-]
	 SCS Same-Spin Energy      =      -0.1163650161830237 [Eh]
	 SCS Opposite-Spin Energy  =      -1.3289598289165860 [Eh]
	 SCS Correlation Energy    =      -1.4453248450996097 [Eh]
	 SCS Total Energy          =    -344.7170620940766526 [Eh]
	-----------------------------------------------------------

  Dipole Moment: [D]
     X:    -9.5610      Y:    -0.9830      Z:    -0.5888     Total:     9.6294

*** Psi4 exiting successfully. Buy a developer a beer!
