                               Psi4 1.3.2 release

  ==> Input File <==

--------------------------------------------------------------------------
#psi4
#
memory 32 gb

molecule  {
-1 1
  O        2.6974490    -0.8132830     0.2843680
  O        1.8995890     1.2895000    -0.0586210
  C       -2.0915868    -0.3778028    -0.4922847
  C       -3.0416170     0.2044990     0.5763330
  C       -0.7068700     0.1810590    -0.3555460
  C        0.3744531    -0.5726543    -0.1056993
  C        1.7796780     0.0321620     0.0520040
  H       -2.0809940    -1.4488000    -0.4417420
  H       -2.4997730    -0.0929160    -1.4864860
  H       -2.6911530    -0.0723110     1.5749530
  H       -3.0846210     1.2967820     0.5254720
  H       -4.0585250    -0.1801320     0.4514200
  H       -0.5779450     1.2609590    -0.4430690
  H        0.3072680    -1.6376370    -0.0077220
units angstrom
no_reorient  #important for SAPT in psi4, default
symmetry c1  #important for SAPT in psi4, default
}

set PROPERTIES_ORIGIN ["COM"]
properties('MP2/aug-cc-pvtz', properties = ['dipole'])
--------------------------------------------------------------------------

    Molecular point group: c1
  Charge       = -1
  Multiplicity = 1
  Basis Set: AUG-CC-PVTZ
    Blend: AUG-CC-PVTZ
  Basis Set: (AUG-CC-PVTZ AUX)
    Blend: AUG-CC-PVTZ-JKFIT

    Orbital Energies [Eh]
    ---------------------

    Doubly Occupied:

       1A    -20.295150     2A    -20.292298     3A    -11.143007
       4A    -11.115547     5A    -11.112792     6A    -11.085123
       7A    -11.068414     8A     -1.161199     9A     -1.060909
      10A     -0.953220    11A     -0.860640    12A     -0.742730
      13A     -0.632810    14A     -0.547983    15A     -0.492986
      16A     -0.487536    17A     -0.445910    18A     -0.419235
      19A     -0.404959    20A     -0.385752    21A     -0.373852
      22A     -0.356764    23A     -0.355656    24A     -0.209684
      25A     -0.208533    26A     -0.203988    27A     -0.191466

  @DF-RHF Final Energy:  -343.28482184836969

   => Energetics <=

    Nuclear Repulsion Energy =            270.6249105911418837
    One-Electron Energy =               -1014.6031775641371269
    Two-Electron Energy =                 400.6934451246255549
    Total Energy =                       -343.2848218483696883
  Basis Set: (AUG-CC-PVTZ AUX)
    Blend: AUG-CC-PVTZ-RI
    Molecular point group: c1

    Geometry (in Angstrom), charge = -1, multiplicity = 1:

       Center              X                  Y                   Z               Mass
    ------------   -----------------  -----------------  -----------------  -----------------
         O            2.551077992927    -0.816749221595     0.285552654540    15.994914619570
         O            1.753217992927     1.286033778405    -0.057436345460    15.994914619570
         C           -2.237957807073    -0.381269021595    -0.491100045460    12.000000000000
         C           -3.187988007073     0.201032778405     0.577517654540    12.000000000000
         C           -0.853241007073     0.177592778405    -0.354361345460    12.000000000000
         C            0.228082092927    -0.576120521595    -0.104514645460    12.000000000000
         C            1.633306992927     0.028695778405     0.053188654540    12.000000000000
         H           -2.227365007073    -1.452266221595    -0.440557345460     1.007825032230
         H           -2.646144007073    -0.096382221595    -1.485301345460     1.007825032230
         H           -2.837524007073    -0.075777221595     1.576137654540     1.007825032230
         H           -3.230992007073     1.293315778405     0.526656654540     1.007825032230
         H           -4.204896007073    -0.183598221595     0.452604654540     1.007825032230
         H           -0.724316007073     1.257492778405    -0.441884345460     1.007825032230
         H            0.160896992927    -1.641103221595    -0.006537345460     1.007825032230

  Basis Set: AUG-CC-PVTZ
    Blend: AUG-CC-PVTZ
  Basis Set: (AUG-CC-PVTZ AUX)
    Blend: AUG-CC-PVTZ-JKFIT
	 Reference Energy          =    -343.2848218483696883 [Eh]
	 Singles Energy            =      -0.0000000000000000 [Eh]
	 Same-Spin Energy          =      -0.3479856341590500 [Eh]
	 Opposite-Spin Energy      =      -1.1053102555754708 [Eh]
	 Correlation Energy        =      -1.4532958897345210 [Eh]
	 Total Energy              =    -344.7381177381042221 [Eh]

	 ================> DF-SCS-MP2 Energies <==================
	-----------------------------------------------------------
	 SCS Same-Spin Scale       =       0.3333333333333333 [-]
	 SCS Opposite-Spin Scale   =       1.2000000000000000 [-]
	 SCS Same-Spin Energy      =      -0.1159952113863500 [Eh]
	 SCS Opposite-Spin Energy  =      -1.3263723066905648 [Eh]
	 SCS Correlation Energy    =      -1.4423675180769149 [Eh]
	 SCS Total Energy          =    -344.7271893664466234 [Eh]
	-----------------------------------------------------------

  Dipole Moment: [D]
     X:    -9.4841      Y:    -1.1957      Z:    -0.5728     Total:     9.5764

*** Psi4 exiting successfully. Buy a developer a beer!
