                               Psi4 1.3.2 release

  ==> Input File <==

--------------------------------------------------------------------------
#psi4
#
memory 32 gb

molecule  {
-1 1
  O        2.6974490    -0.8132830     0.2843680
  O        1.8995890     1.2895000    -0.0586210
  C       -2.1006760    -0.3536310    -0.4965290
  C       -3.0416170     0.2044990     0.5763330
  C       -0.7068700     0.1810590    -0.3555460
  C        0.3877260    -0.5533690    -0.1060630
  C        1.7484805     0.1042400     0.0397436
  H       -2.0809940    -1.4488000    -0.4417420
  H       -2.4997730    -0.0929160    -1.4864860
  H       -2.6911530    -0.0723110     1.5749530
  H       -3.0846210     1.2967820     0.5254720
  H       -4.0585250    -0.1801320     0.4514200
  H       -0.5779450     1.2609590    -0.4430690
  H        0.2510819    -1.6328042    -0.0170151
units angstrom
no_reorient  #important for SAPT in psi4, default
symmetry c1  #important for SAPT in psi4, default
}

set PROPERTIES_ORIGIN ["COM"]
properties('MP2/aug-cc-pvtz', properties = ['dipole'])
--------------------------------------------------------------------------

    Molecular point group: c1
  Charge       = -1
  Multiplicity = 1
  Basis Set: AUG-CC-PVTZ
    Blend: AUG-CC-PVTZ
  Basis Set: (AUG-CC-PVTZ AUX)
    Blend: AUG-CC-PVTZ-JKFIT

    Orbital Energies [Eh]
    ---------------------

    Doubly Occupied:

       1A    -20.310570     2A    -20.277467     3A    -11.142312
       4A    -11.116517     5A    -11.114585     6A    -11.084811
       7A    -11.071059     8A     -1.187698     9A     -1.039429
      10A     -0.955691    11A     -0.864797    12A     -0.744307
      13A     -0.629269    14A     -0.554659    15A     -0.496541
      16A     -0.486366    17A     -0.454699    18A     -0.416773
      19A     -0.410304    20A     -0.384385    21A     -0.374622
      22A     -0.366641    23A     -0.352586    24A     -0.215230
      25A     -0.208480    26A     -0.196898    27A     -0.183766

  @DF-RHF Final Energy:  -343.27534096335455

   => Energetics <=

    Nuclear Repulsion Energy =            271.1097003699971424
    One-Electron Energy =               -1015.4891566613371197
    Two-Electron Energy =                 401.1041153279853688
    Total Energy =                       -343.2753409633545516
  Basis Set: (AUG-CC-PVTZ AUX)
    Blend: AUG-CC-PVTZ-RI
    Molecular point group: c1

    Geometry (in Angstrom), charge = -1, multiplicity = 1:

       Center              X                  Y                   Z               Mass
    ------------   -----------------  -----------------  -----------------  -----------------
         O            2.554922638076    -0.830796345356     0.287690949907    15.994914619570
         O            1.757062638076     1.271986654644    -0.055298050093    15.994914619570
         C           -2.243202361924    -0.371144345356    -0.493206050093    12.000000000000
         C           -3.184143361924     0.186985654644     0.579655949907    12.000000000000
         C           -0.849396361924     0.163545654644    -0.352223050093    12.000000000000
         C            0.245199638076    -0.570882345356    -0.102740050093    12.000000000000
         C            1.605954138076     0.086726654644     0.043066549907    12.000000000000
         H           -2.223520361924    -1.466313345356    -0.438419050093     1.007825032230
         H           -2.642299361924    -0.110429345356    -1.483163050093     1.007825032230
         H           -2.833679361924    -0.089824345356     1.578275949907     1.007825032230
         H           -3.227147361924     1.279268654644     0.528794949907     1.007825032230
         H           -4.201051361924    -0.197645345356     0.454742949907     1.007825032230
         H           -0.720471361924     1.243445654644    -0.439746050093     1.007825032230
         H            0.108555538076    -1.650317545356    -0.013692150093     1.007825032230

  Basis Set: AUG-CC-PVTZ
    Blend: AUG-CC-PVTZ
  Basis Set: (AUG-CC-PVTZ AUX)
    Blend: AUG-CC-PVTZ-JKFIT
	 Reference Energy          =    -343.2753409633545516 [Eh]
	 Singles Energy            =      -0.0000000000000000 [Eh]
	 Same-Spin Energy          =      -0.3484399116811946 [Eh]
	 Opposite-Spin Energy      =      -1.1060078137459535 [Eh]
	 Correlation Energy        =      -1.4544477254271482 [Eh]
	 Total Energy              =    -344.7297886887816958 [Eh]

	 ================> DF-SCS-MP2 Energies <==================
	-----------------------------------------------------------
	 SCS Same-Spin Scale       =       0.3333333333333333 [-]
	 SCS Opposite-Spin Scale   =       1.2000000000000000 [-]
	 SCS Same-Spin Energy      =      -0.1161466372270649 [Eh]
	 SCS Opposite-Spin Energy  =      -1.3272093764951440 [Eh]
	 SCS Correlation Energy    =      -1.4433560137222088 [Eh]
	 SCS Total Energy          =    -344.7186969770767746 [Eh]
	-----------------------------------------------------------

  Dipole Moment: [D]
     X:    -9.8278      Y:    -0.4075      Z:    -0.7058     Total:     9.8615

*** Psi4 exiting successfully. Buy a developer a beer!
