                               Psi4 1.4a3.dev225

  ==> Input File <==

--------------------------------------------------------------------------
#psi4
#
memory 32 gb

molecule  {
-1 1
  O        2.6993700    -0.8109490     0.2832770
  O        1.8994270     1.2905180    -0.0615170
  C       -2.1001690    -0.3616000    -0.4913260
  C       -3.0433460     0.2119310     0.5709670
  C       -0.7080250     0.1770830    -0.3546910
  C        0.3885780    -0.5541740    -0.1016640
  C        1.8160761    -0.0002350     0.0609888
  H       -2.0812530    -1.4558260    -0.4203270
  H       -2.4968010    -0.1155520    -1.4857470
  H       -2.6986290    -0.0550030     1.5741980
  H       -3.0817280     1.3037570     0.5071410
  H       -4.0608920    -0.1705790     0.4451360
  H       -0.5806440     1.2564400    -0.4499950
  H        0.3081890    -1.6372690     0.0045550
units angstrom
no_reorient  #important for SAPT in psi4, default
symmetry c1  #important for SAPT in psi4, default
}

set PROPERTIES_ORIGIN ["COM"]
properties('MP2/aug-cc-pvtz', properties = ['dipole'])
--------------------------------------------------------------------------

    Molecular point group: c1
  Charge       = -1
  Multiplicity = 1
  Basis Set: AUG-CC-PVTZ
    Blend: AUG-CC-PVTZ
  Basis Set: (AUG-CC-PVTZ AUX)
    Blend: AUG-CC-PVTZ-JKFIT

    Orbital Energies [Eh]
    ---------------------

    Doubly Occupied:

       1A    -20.306638     2A    -20.282665     3A    -11.141949
       4A    -11.114242     5A    -11.112212     6A    -11.082890
       7A    -11.068141     8A     -1.178222     9A     -1.059954
      10A     -0.951966    11A     -0.858322    12A     -0.740534
      13A     -0.630732    14A     -0.545067    15A     -0.494178
      16A     -0.483331    17A     -0.449475    18A     -0.418813
      19A     -0.407939    20A     -0.383584    21A     -0.377883
      22A     -0.364389    23A     -0.347093    24A     -0.215804
      25A     -0.206476    26A     -0.201849    27A     -0.189606

  @DF-RHF Final Energy:  -343.28407906346058

   => Energetics <=

    Nuclear Repulsion Energy =            270.7717526029416035
    One-Electron Energy =               -1014.8837558728384920
    Two-Electron Energy =                 400.8279242064362506
    Total Energy =                       -343.2840790634605810
  Basis Set: (AUG-CC-PVTZ AUX)
    Blend: AUG-CC-PVTZ-RI
    Molecular point group: c1

    Geometry (in Angstrom), charge = -1, multiplicity = 1:

       Center              X                  Y                   Z               Mass
    ------------   -----------------  -----------------  -----------------  -----------------
         O            2.548044108308    -0.815652475602     0.283936703361    15.994914619570
         O            1.748101108308     1.285814524398    -0.060857296639    15.994914619570
         C           -2.251494891692    -0.366303475602    -0.490666296639    12.000000000000
         C           -3.194671891692     0.207227524398     0.571626703361    12.000000000000
         C           -0.859350891692     0.172379524398    -0.354031296639    12.000000000000
         C            0.237252108308    -0.558877475602    -0.101004296639    12.000000000000
         C            1.664750208308    -0.004938475602     0.061648503361    12.000000000000
         H           -2.232578891692    -1.460529475602    -0.419667296639     1.007825032230
         H           -2.648126891692    -0.120255475602    -1.485087296639     1.007825032230
         H           -2.849954891692    -0.059706475602     1.574857703361     1.007825032230
         H           -3.233053891692     1.299053524398     0.507800703361     1.007825032230
         H           -4.212217891692    -0.175282475602     0.445795703361     1.007825032230
         H           -0.731969891692     1.251736524398    -0.449335296639     1.007825032230
         H            0.156863108308    -1.641972475602     0.005214703361     1.007825032230

  Basis Set: AUG-CC-PVTZ
    Blend: AUG-CC-PVTZ
  Basis Set: (AUG-CC-PVTZ AUX)
    Blend: AUG-CC-PVTZ-JKFIT
	 Reference Energy          =    -343.2840790634605810 [Eh]
	 Singles Energy            =      -0.0000000000000000 [Eh]
	 Same-Spin Energy          =      -0.3476414725376513 [Eh]
	 Opposite-Spin Energy      =      -1.1045878849554174 [Eh]
	 Correlation Energy        =      -1.4522293574930687 [Eh]
	 Total Energy              =    -344.7363084209536623 [Eh]

	 ================> DF-SCS-MP2 Energies <==================
	-----------------------------------------------------------
	 SCS Same-Spin Scale       =       0.3333333333333333 [-]
	 SCS Opposite-Spin Scale   =       1.2000000000000000 [-]
	 SCS Same-Spin Energy      =      -0.1158804908458838 [Eh]
	 SCS Opposite-Spin Energy  =      -1.3255054619465008 [Eh]
	 SCS Correlation Energy    =      -1.4413859527923845 [Eh]
	 SCS Total Energy          =    -344.7254650162529401 [Eh]
	-----------------------------------------------------------

  Dipole Moment: [D]
     X:    -9.1991      Y:    -1.5447      Z:    -0.4837     Total:     9.3404

*** Psi4 exiting successfully. Buy a developer a beer!
