                               Psi4 1.3.2 release

  ==> Input File <==

--------------------------------------------------------------------------
#psi4
#
memory 32 gb

molecule  {
-1 1
  O        2.7048691    -0.8050657     0.2846951
  O        1.9104639     1.2885740    -0.0568048
  C       -2.1006760    -0.3536310    -0.4965290
  C       -3.0416170     0.2044990     0.5763330
  C       -0.7068700     0.1810590    -0.3555460
  C        0.3877260    -0.5533690    -0.1060630
  C        1.7796780     0.0321620     0.0520040
  H       -2.0809940    -1.4488000    -0.4417420
  H       -2.4997730    -0.0929160    -1.4864860
  H       -2.6911530    -0.0723110     1.5749530
  H       -3.0846210     1.2967820     0.5254720
  H       -4.0585250    -0.1801320     0.4514200
  H       -0.5779450     1.2609590    -0.4430690
  H        0.3072680    -1.6376370    -0.0077220
units angstrom
no_reorient  #important for SAPT in psi4, default
symmetry c1  #important for SAPT in psi4, default
}

set PROPERTIES_ORIGIN ["COM"]
properties('MP2/aug-cc-pvtz', properties = ['dipole'])
--------------------------------------------------------------------------

    Molecular point group: c1
  Charge       = -1
  Multiplicity = 1
  Basis Set: AUG-CC-PVTZ
    Blend: AUG-CC-PVTZ
  Basis Set: (AUG-CC-PVTZ AUX)
    Blend: AUG-CC-PVTZ-JKFIT

    Orbital Energies [Eh]
    ---------------------

    Doubly Occupied:

       1A    -20.294325     2A    -20.290672     3A    -11.141499
       4A    -11.116205     5A    -11.114565     6A    -11.086357
       7A    -11.071172     8A     -1.161609     9A     -1.059094
      10A     -0.954902    11A     -0.863150    12A     -0.744436
      13A     -0.633629    14A     -0.549453    15A     -0.494956
      16A     -0.486589    17A     -0.445734    18A     -0.419422
      19A     -0.409302    20A     -0.383056    21A     -0.375559
      22A     -0.357454    23A     -0.349516    24A     -0.211776
      25A     -0.207386    26A     -0.205429    27A     -0.189951

  @DF-RHF Final Energy:  -343.28551469033630

   => Energetics <=

    Nuclear Repulsion Energy =            270.7585717025208396
    One-Electron Energy =               -1014.8537796003096219
    Two-Electron Energy =                 400.8096932074524830
    Total Energy =                       -343.2855146903362993
  Basis Set: (AUG-CC-PVTZ AUX)
    Blend: AUG-CC-PVTZ-RI
    Molecular point group: c1

    Geometry (in Angstrom), charge = -1, multiplicity = 1:

       Center              X                  Y                   Z               Mass
    ------------   -----------------  -----------------  -----------------  -----------------
         O            2.555036709394    -0.814974563518     0.286091922579    15.994914619570
         O            1.760631509394     1.278665136482    -0.055407977421    15.994914619570
         C           -2.250508390606    -0.363539863518    -0.495132177421    12.000000000000
         C           -3.191449390606     0.194590136482     0.577729822579    12.000000000000
         C           -0.856702390606     0.171150136482    -0.354149177421    12.000000000000
         C            0.237893609394    -0.563277863518    -0.104666177421    12.000000000000
         C            1.629845609394     0.022253136482     0.053400822579    12.000000000000
         H           -2.230826390606    -1.458708863518    -0.440345177421     1.007825032230
         H           -2.649605390606    -0.102824863518    -1.485089177421     1.007825032230
         H           -2.840985390606    -0.082219863518     1.576349822579     1.007825032230
         H           -3.234453390606     1.286873136482     0.526868822579     1.007825032230
         H           -4.208357390606    -0.190040863518     0.452816822579     1.007825032230
         H           -0.727777390606     1.251050136482    -0.441672177421     1.007825032230
         H            0.157435609394    -1.647545863518    -0.006325177421     1.007825032230

  Basis Set: AUG-CC-PVTZ
    Blend: AUG-CC-PVTZ
  Basis Set: (AUG-CC-PVTZ AUX)
    Blend: AUG-CC-PVTZ-JKFIT
	 Reference Energy          =    -343.2855146903362993 [Eh]
	 Singles Energy            =      -0.0000000000000000 [Eh]
	 Same-Spin Energy          =      -0.3481113664663881 [Eh]
	 Opposite-Spin Energy      =      -1.1055323374325408 [Eh]
	 Correlation Energy        =      -1.4536437038989289 [Eh]
	 Total Energy              =    -344.7391583942352327 [Eh]

	 ================> DF-SCS-MP2 Energies <==================
	-----------------------------------------------------------
	 SCS Same-Spin Scale       =       0.3333333333333333 [-]
	 SCS Opposite-Spin Scale   =       1.2000000000000000 [-]
	 SCS Same-Spin Energy      =      -0.1160371221554627 [Eh]
	 SCS Opposite-Spin Energy  =      -1.3266388049190490 [Eh]
	 SCS Correlation Energy    =      -1.4426759270745118 [Eh]
	 SCS Total Energy          =    -344.7281906174108030 [Eh]
	-----------------------------------------------------------

  Dipole Moment: [D]
     X:    -9.5741      Y:    -1.1715      Z:    -0.5850     Total:     9.6633

*** Psi4 exiting successfully. Buy a developer a beer!
