                               Psi4 1.3.2 release

  ==> Input File <==

--------------------------------------------------------------------------
#psi4
#
memory 32 gb

molecule  {
-1 1
  O        2.6974490    -0.8132830     0.2843680
  O        1.8995890     1.2895000    -0.0586210
  C       -2.1006760    -0.3536310    -0.4965290
  C       -3.0416170     0.2044990     0.5763330
  C       -0.7162207     0.2053954    -0.3578287
  C        0.3877260    -0.5533690    -0.1060630
  C        1.7796780     0.0321620     0.0520040
  H       -2.0999993    -1.4490872    -0.4439997
  H       -2.4997730    -0.0929160    -1.4864860
  H       -2.6911530    -0.0723110     1.5749530
  H       -3.0846210     1.2967820     0.5254720
  H       -4.0585250    -0.1801320     0.4514200
  H       -0.5779450     1.2609590    -0.4430690
  H        0.3072680    -1.6376370    -0.0077220
units angstrom
no_reorient  #important for SAPT in psi4, default
symmetry c1  #important for SAPT in psi4, default
}

set PROPERTIES_ORIGIN ["COM"]
properties('MP2/aug-cc-pvtz', properties = ['dipole'])
--------------------------------------------------------------------------

    Molecular point group: c1
  Charge       = -1
  Multiplicity = 1
  Basis Set: AUG-CC-PVTZ
    Blend: AUG-CC-PVTZ
  Basis Set: (AUG-CC-PVTZ AUX)
    Blend: AUG-CC-PVTZ-JKFIT

    Orbital Energies [Eh]
    ---------------------

    Doubly Occupied:

       1A    -20.295319     2A    -20.291527     3A    -11.141765
       4A    -11.115312     5A    -11.114058     6A    -11.086879
       7A    -11.073341     8A     -1.161727     9A     -1.060980
      10A     -0.953417    11A     -0.858771    12A     -0.742795
      13A     -0.637259    14A     -0.548118    15A     -0.493510
      16A     -0.487017    17A     -0.445973    18A     -0.418979
      19A     -0.408345    20A     -0.382729    21A     -0.373246
      22A     -0.357691    23A     -0.356211    24A     -0.210916
      25A     -0.208965    26A     -0.200042    27A     -0.191041

  @DF-RHF Final Energy:  -343.28394636060739

   => Energetics <=

    Nuclear Repulsion Energy =            270.6196812172275372
    One-Electron Energy =               -1014.5753870677118584
    Two-Electron Energy =                 400.6717594898768766
    Total Energy =                       -343.2839463606073878
  Basis Set: (AUG-CC-PVTZ AUX)
    Blend: AUG-CC-PVTZ-RI
    Molecular point group: c1

    Geometry (in Angstrom), charge = -1, multiplicity = 1:

       Center              X                  Y                   Z               Mass
    ------------   -----------------  -----------------  -----------------  -----------------
         O            2.551897401693    -0.824959992460     0.286410487908    15.994914619570
         O            1.754037401693     1.277823007540    -0.056578512092    15.994914619570
         C           -2.246227598307    -0.365307992460    -0.494486512092    12.000000000000
         C           -3.187168598307     0.192822007540     0.578375487908    12.000000000000
         C           -0.861772298307     0.193718407540    -0.355786212092    12.000000000000
         C            0.242174401693    -0.565045992460    -0.104020512092    12.000000000000
         C            1.634126401693     0.020485007540     0.054046487908    12.000000000000
         H           -2.245550898307    -1.460764192460    -0.441957212092     1.007825032230
         H           -2.645324598307    -0.104592992460    -1.484443512092     1.007825032230
         H           -2.836704598307    -0.083987992460     1.576995487908     1.007825032230
         H           -3.230172598307     1.285105007540     0.527514487908     1.007825032230
         H           -4.204076598307    -0.191808992460     0.453462487908     1.007825032230
         H           -0.723496598307     1.249282007540    -0.441026512092     1.007825032230
         H            0.161716401693    -1.649313992460    -0.005679512092     1.007825032230

  Basis Set: AUG-CC-PVTZ
    Blend: AUG-CC-PVTZ
  Basis Set: (AUG-CC-PVTZ AUX)
    Blend: AUG-CC-PVTZ-JKFIT
	 Reference Energy          =    -343.2839463606073878 [Eh]
	 Singles Energy            =      -0.0000000000000000 [Eh]
	 Same-Spin Energy          =      -0.3482860302805143 [Eh]
	 Opposite-Spin Energy      =      -1.1060265637712523 [Eh]
	 Correlation Energy        =      -1.4543125940517667 [Eh]
	 Total Energy              =    -344.7382589546591589 [Eh]

	 ================> DF-SCS-MP2 Energies <==================
	-----------------------------------------------------------
	 SCS Same-Spin Scale       =       0.3333333333333333 [-]
	 SCS Opposite-Spin Scale   =       1.2000000000000000 [-]
	 SCS Same-Spin Energy      =      -0.1160953434268381 [Eh]
	 SCS Opposite-Spin Energy  =      -1.3272318765255027 [Eh]
	 SCS Correlation Energy    =      -1.4433272199523408 [Eh]
	 SCS Total Energy          =    -344.7272735805597108 [Eh]
	-----------------------------------------------------------

  Dipole Moment: [D]
     X:    -9.5094      Y:    -1.1452      Z:    -0.5869     Total:     9.5961

*** Psi4 exiting successfully. Buy a developer a beer!
