                               Psi4 1.3.2 release

  ==> Input File <==

--------------------------------------------------------------------------
#psi4
#
memory 32 gb

molecule  {
-1 1
  O        2.6974490    -0.8132830     0.2843680
  O        1.8995890     1.2895000    -0.0586210
  C       -2.1006760    -0.3536310    -0.4965290
  C       -3.0416170     0.2044990     0.5763330
  C       -0.5209658     0.2523753    -0.3367419
  C        0.3877260    -0.5533690    -0.1060630
  C        1.7796780     0.0321620     0.0520040
  H       -2.0809940    -1.4488000    -0.4417420
  H       -2.4997730    -0.0929160    -1.4864860
  H       -2.6911530    -0.0723110     1.5749530
  H       -3.0846210     1.2967820     0.5254720
  H       -4.0585250    -0.1801320     0.4514200
  H       -0.5779450     1.2609590    -0.4430690
  H        0.3072680    -1.6376370    -0.0077220
units angstrom
no_reorient  #important for SAPT in psi4, default
symmetry c1  #important for SAPT in psi4, default
}

set PROPERTIES_ORIGIN ["COM"]
properties('MP2/aug-cc-pvtz', properties = ['dipole'])
--------------------------------------------------------------------------

    Molecular point group: c1
  Charge       = -1
  Multiplicity = 1
  Basis Set: AUG-CC-PVTZ
    Blend: AUG-CC-PVTZ
  Basis Set: (AUG-CC-PVTZ AUX)
    Blend: AUG-CC-PVTZ-JKFIT

    Orbital Energies [Eh]
    ---------------------

    Doubly Occupied:

       1A    -20.293499     2A    -20.290243     3A    -11.137902
       4A    -11.113127     5A    -11.112224     6A    -11.077581
       7A    -11.054587     8A     -1.161506     9A     -1.060446
      10A     -0.941424    11A     -0.881998    12A     -0.725277
      13A     -0.638242    14A     -0.555256    15A     -0.488030
      16A     -0.482617    17A     -0.455921    18A     -0.431737
      19A     -0.399146    20A     -0.379455    21A     -0.377494
      22A     -0.360816    23A     -0.309303    24A     -0.233492
      25A     -0.208968    26A     -0.202227    27A     -0.190917

  @DF-RHF Final Energy:  -343.25042017861927

   => Energetics <=

    Nuclear Repulsion Energy =            271.5263256067685802
    One-Electron Energy =               -1016.4266235031316228
    Two-Electron Energy =                 401.6498777177438342
    Total Energy =                       -343.2504201786192652
  Basis Set: (AUG-CC-PVTZ AUX)
    Blend: AUG-CC-PVTZ-RI
    Molecular point group: c1

    Geometry (in Angstrom), charge = -1, multiplicity = 1:

       Center              X                  Y                   Z               Mass
    ------------   -----------------  -----------------  -----------------  -----------------
         O            2.528047411783    -0.830654883669     0.283832690076    15.994914619570
         O            1.730187411783     1.272128116331    -0.059156309924    15.994914619570
         C           -2.270077588217    -0.371002883669    -0.497064309924    12.000000000000
         C           -3.211018588217     0.187127116331     0.575797690076    12.000000000000
         C           -0.690367388217     0.235003416331    -0.337277209924    12.000000000000
         C            0.218324411783    -0.570740883669    -0.106598309924    12.000000000000
         C            1.610276411783     0.014790116331     0.051468690076    12.000000000000
         H           -2.250395588217    -1.466171883669    -0.442277309924     1.007825032230
         H           -2.669174588217    -0.110287883669    -1.487021309924     1.007825032230
         H           -2.860554588217    -0.089682883669     1.574417690076     1.007825032230
         H           -3.254022588217     1.279410116331     0.524936690076     1.007825032230
         H           -4.227926588217    -0.197503883669     0.450884690076     1.007825032230
         H           -0.747346588217     1.243587116331    -0.443604309924     1.007825032230
         H            0.137866411783    -1.655008883669    -0.008257309924     1.007825032230

  Basis Set: AUG-CC-PVTZ
    Blend: AUG-CC-PVTZ
  Basis Set: (AUG-CC-PVTZ AUX)
    Blend: AUG-CC-PVTZ-JKFIT
	 Reference Energy          =    -343.2504201786192652 [Eh]
	 Singles Energy            =      -0.0000000000000000 [Eh]
	 Same-Spin Energy          =      -0.3469191770052603 [Eh]
	 Opposite-Spin Energy      =      -1.1038557011235099 [Eh]
	 Correlation Energy        =      -1.4507748781287702 [Eh]
	 Total Energy              =    -344.7011950567480199 [Eh]

	 ================> DF-SCS-MP2 Energies <==================
	-----------------------------------------------------------
	 SCS Same-Spin Scale       =       0.3333333333333333 [-]
	 SCS Opposite-Spin Scale   =       1.2000000000000000 [-]
	 SCS Same-Spin Energy      =      -0.1156397256684201 [Eh]
	 SCS Opposite-Spin Energy  =      -1.3246268413482118 [Eh]
	 SCS Correlation Energy    =      -1.4402665670166319 [Eh]
	 SCS Total Energy          =    -344.6906867456359009 [Eh]
	-----------------------------------------------------------

  Dipole Moment: [D]
     X:    -9.2431      Y:    -1.0543      Z:    -0.5546     Total:     9.3196

*** Psi4 exiting successfully. Buy a developer a beer!
