                               Psi4 1.3.2 release

  ==> Input File <==

--------------------------------------------------------------------------
#psi4
#
memory 32 gb

molecule  {
-1 1
  O        2.6823997    -0.8295239     0.2836607
  O        1.8778127     1.2910647    -0.0622280
  C       -2.1006760    -0.3536310    -0.4965290
  C       -3.0416170     0.2044990     0.5763330
  C       -0.7068700     0.1810590    -0.3555460
  C        0.3877260    -0.5533690    -0.1060630
  C        1.7796780     0.0321620     0.0520040
  H       -2.0809940    -1.4488000    -0.4417420
  H       -2.4997730    -0.0929160    -1.4864860
  H       -2.6911530    -0.0723110     1.5749530
  H       -3.0846210     1.2967820     0.5254720
  H       -4.0585250    -0.1801320     0.4514200
  H       -0.5779450     1.2609590    -0.4430690
  H        0.3072680    -1.6376370    -0.0077220
units angstrom
no_reorient  #important for SAPT in psi4, default
symmetry c1  #important for SAPT in psi4, default
}

set PROPERTIES_ORIGIN ["COM"]
properties('MP2/aug-cc-pvtz', properties = ['dipole'])
--------------------------------------------------------------------------

    Molecular point group: c1
  Charge       = -1
  Multiplicity = 1
  Basis Set: AUG-CC-PVTZ
    Blend: AUG-CC-PVTZ
  Basis Set: (AUG-CC-PVTZ AUX)
    Blend: AUG-CC-PVTZ-JKFIT

    Orbital Energies [Eh]
    ---------------------

    Doubly Occupied:

       1A    -20.297378     2A    -20.293593     3A    -11.143041
       4A    -11.114909     5A    -11.112856     6A    -11.083440
       7A    -11.067684     8A     -1.162289     9A     -1.064835
      10A     -0.952921    11A     -0.860771    12A     -0.742528
      13A     -0.631638    14A     -0.547994    15A     -0.494046
      16A     -0.484892    17A     -0.446353    18A     -0.418840
      19A     -0.407995    20A     -0.383133    21A     -0.376127
      22A     -0.359055    23A     -0.347412    24A     -0.213294
      25A     -0.208946    26A     -0.203201    27A     -0.193573

  @DF-RHF Final Energy:  -343.28569377858457

   => Energetics <=

    Nuclear Repulsion Energy =            271.0521538490970102
    One-Electron Energy =               -1015.4502051416770882
    Two-Electron Energy =                 401.1123575139954482
    Total Energy =                       -343.2856937785845730
  Basis Set: (AUG-CC-PVTZ AUX)
    Blend: AUG-CC-PVTZ-RI
    Molecular point group: c1

    Geometry (in Angstrom), charge = -1, multiplicity = 1:

       Center              X                  Y                   Z               Mass
    ------------   -----------------  -----------------  -----------------  -----------------
         O            2.541468847196    -0.835885187264     0.286100373537    15.994914619570
         O            1.736881847196     1.284703412736    -0.059788326463    15.994914619570
         C           -2.241606852804    -0.359992287264    -0.494089326463    12.000000000000
         C           -3.182547852804     0.198137712736     0.578772673537    12.000000000000
         C           -0.847800852804     0.174697712736    -0.353106326463    12.000000000000
         C            0.246795147196    -0.559730287264    -0.103623326463    12.000000000000
         C            1.638747147196     0.025800712736     0.054443673537    12.000000000000
         H           -2.221924852804    -1.455161287264    -0.439302326463     1.007825032230
         H           -2.640703852804    -0.099277287264    -1.484046326463     1.007825032230
         H           -2.832083852804    -0.078672287264     1.577392673537     1.007825032230
         H           -3.225551852804     1.290420712736     0.527911673537     1.007825032230
         H           -4.199455852804    -0.186493287264     0.453859673537     1.007825032230
         H           -0.718875852804     1.254597712736    -0.440629326463     1.007825032230
         H            0.166337147196    -1.643998287264    -0.005282326463     1.007825032230

  Basis Set: AUG-CC-PVTZ
    Blend: AUG-CC-PVTZ
  Basis Set: (AUG-CC-PVTZ AUX)
    Blend: AUG-CC-PVTZ-JKFIT
	 Reference Energy          =    -343.2856937785845730 [Eh]
	 Singles Energy            =      -0.0000000000000000 [Eh]
	 Same-Spin Energy          =      -0.3482227556267950 [Eh]
	 Opposite-Spin Energy      =      -1.1056579725062885 [Eh]
	 Correlation Energy        =      -1.4538807281330834 [Eh]
	 Total Energy              =    -344.7395745067176449 [Eh]

	 ================> DF-SCS-MP2 Energies <==================
	-----------------------------------------------------------
	 SCS Same-Spin Scale       =       0.3333333333333333 [-]
	 SCS Opposite-Spin Scale   =       1.2000000000000000 [-]
	 SCS Same-Spin Energy      =      -0.1160742518755983 [Eh]
	 SCS Opposite-Spin Energy  =      -1.3267895670075462 [Eh]
	 SCS Correlation Energy    =      -1.4428638188831446 [Eh]
	 SCS Total Energy          =    -344.7285575974677272 [Eh]
	-----------------------------------------------------------

  Dipole Moment: [D]
     X:    -9.3838      Y:    -1.1159      Z:    -0.5663     Total:     9.4669

*** Psi4 exiting successfully. Buy a developer a beer!
