                               Psi4 1.3.2 release

  ==> Input File <==

--------------------------------------------------------------------------
#psi4
#
memory 32 gb

molecule  {
-1 1
  O        2.6974490    -0.8132830     0.2843680
  O        1.8995890     1.2895000    -0.0586210
  C       -2.1006760    -0.3536310    -0.4965290
  C       -3.0468960     0.1795393     0.5843544
  C       -0.7068700     0.1810590    -0.3555460
  C        0.3877260    -0.5533690    -0.1060630
  C        1.7796780     0.0321620     0.0520040
  H       -2.0933700    -1.4481255    -0.4271557
  H       -2.4997730    -0.0929160    -1.4864860
  H       -2.6911530    -0.0723110     1.5749530
  H       -3.0846210     1.2967820     0.5254720
  H       -4.0585250    -0.1801320     0.4514200
  H       -0.5779450     1.2609590    -0.4430690
  H        0.3072680    -1.6376370    -0.0077220
units angstrom
no_reorient  #important for SAPT in psi4, default
symmetry c1  #important for SAPT in psi4, default
}

set PROPERTIES_ORIGIN ["COM"]
properties('MP2/aug-cc-pvtz', properties = ['dipole'])
--------------------------------------------------------------------------

    Molecular point group: c1
  Charge       = -1
  Multiplicity = 1
  Basis Set: AUG-CC-PVTZ
    Blend: AUG-CC-PVTZ
  Basis Set: (AUG-CC-PVTZ AUX)
    Blend: AUG-CC-PVTZ-JKFIT

    Orbital Energies [Eh]
    ---------------------

    Doubly Occupied:

       1A    -20.295487     2A    -20.291777     3A    -11.142135
       4A    -11.115602     5A    -11.114029     6A    -11.085642
       7A    -11.070308     8A     -1.161938     9A     -1.061157
      10A     -0.954140    11A     -0.862675    12A     -0.743633
      13A     -0.632963    14A     -0.548892    15A     -0.497410
      16A     -0.484606    17A     -0.445677    18A     -0.419638
      19A     -0.409422    20A     -0.379766    21A     -0.377195
      22A     -0.358146    23A     -0.348556    24A     -0.211399
      25A     -0.209126    26A     -0.205012    27A     -0.191297

  @DF-RHF Final Energy:  -343.28495249060455

   => Energetics <=

    Nuclear Repulsion Energy =            270.8063023893287777
    One-Electron Energy =               -1014.9472598268165484
    Two-Electron Energy =                 400.8560049468831608
    Total Energy =                       -343.2849524906045531
  Basis Set: (AUG-CC-PVTZ AUX)
    Blend: AUG-CC-PVTZ-RI
    Molecular point group: c1

    Geometry (in Angstrom), charge = -1, multiplicity = 1:

       Center              X                  Y                   Z               Mass
    ------------   -----------------  -----------------  -----------------  -----------------
         O            2.551336628345    -0.818997184310     0.284990673011    15.994914619570
         O            1.753476628345     1.283785815690    -0.057998326989    15.994914619570
         C           -2.246788371655    -0.359345184310    -0.495906326989    12.000000000000
         C           -3.193008371655     0.173825115690     0.584977073011    12.000000000000
         C           -0.852982371655     0.175344815690    -0.354923326989    12.000000000000
         C            0.241613628345    -0.559083184310    -0.105440326989    12.000000000000
         C            1.633565628345     0.026447815690     0.052626673011    12.000000000000
         H           -2.239482371655    -1.453839684310    -0.426533026989     1.007825032230
         H           -2.645885371655    -0.098630184310    -1.485863326989     1.007825032230
         H           -2.837265371655    -0.078025184310     1.575575673011     1.007825032230
         H           -3.230733371655     1.291067815690     0.526094673011     1.007825032230
         H           -4.204637371655    -0.185846184310     0.452042673011     1.007825032230
         H           -0.724057371655     1.255244815690    -0.442446326989     1.007825032230
         H            0.161155628345    -1.643351184310    -0.007099326989     1.007825032230

  Basis Set: AUG-CC-PVTZ
    Blend: AUG-CC-PVTZ
  Basis Set: (AUG-CC-PVTZ AUX)
    Blend: AUG-CC-PVTZ-JKFIT
	 Reference Energy          =    -343.2849524906045531 [Eh]
	 Singles Energy            =      -0.0000000000000000 [Eh]
	 Same-Spin Energy          =      -0.3481413783557566 [Eh]
	 Opposite-Spin Energy      =      -1.1056016526193311 [Eh]
	 Correlation Energy        =      -1.4537430309750876 [Eh]
	 Total Energy              =    -344.7386955215796434 [Eh]

	 ================> DF-SCS-MP2 Energies <==================
	-----------------------------------------------------------
	 SCS Same-Spin Scale       =       0.3333333333333333 [-]
	 SCS Opposite-Spin Scale   =       1.2000000000000000 [-]
	 SCS Same-Spin Energy      =      -0.1160471261185855 [Eh]
	 SCS Opposite-Spin Energy  =      -1.3267219831431973 [Eh]
	 SCS Correlation Energy    =      -1.4427691092617829 [Eh]
	 SCS Total Energy          =    -344.7277215998663564 [Eh]
	-----------------------------------------------------------

  Dipole Moment: [D]
     X:    -9.5100      Y:    -1.1852      Z:    -0.5697     Total:     9.6005

*** Psi4 exiting successfully. Buy a developer a beer!
