                               Psi4 1.3.2 release

  ==> Input File <==

--------------------------------------------------------------------------
#psi4
#
memory 32 gb

molecule  {
-1 1
  O        2.6974490    -0.8132830     0.2843680
  O        1.9646859     1.2825014    -0.0476894
  C       -2.1006760    -0.3536310    -0.4965290
  C       -3.0416170     0.2044990     0.5763330
  C       -0.7068700     0.1810590    -0.3555460
  C        0.4189154    -0.6254417    -0.0937512
  C        1.7796780     0.0321620     0.0520040
  H       -2.0809940    -1.4488000    -0.4417420
  H       -2.4997730    -0.0929160    -1.4864860
  H       -2.6911530    -0.0723110     1.5749530
  H       -3.0846210     1.2967820     0.5254720
  H       -4.0585250    -0.1801320     0.4514200
  H       -0.5779450     1.2609590    -0.4430690
  H        0.3072680    -1.6376370    -0.0077220
units angstrom
no_reorient  #important for SAPT in psi4, default
symmetry c1  #important for SAPT in psi4, default
}

set PROPERTIES_ORIGIN ["COM"]
properties('MP2/aug-cc-pvtz', properties = ['dipole'])
--------------------------------------------------------------------------

    Molecular point group: c1
  Charge       = -1
  Multiplicity = 1
  Basis Set: AUG-CC-PVTZ
    Blend: AUG-CC-PVTZ
  Basis Set: (AUG-CC-PVTZ AUX)
    Blend: AUG-CC-PVTZ-JKFIT

    Orbital Energies [Eh]
    ---------------------

    Doubly Occupied:

       1A    -20.290799     2A    -20.289102     3A    -11.140400
       4A    -11.117014     5A    -11.115529     6A    -11.098479
       7A    -11.077574     8A     -1.161094     9A     -1.055020
      10A     -0.952697    11A     -0.855847    12A     -0.747020
      13A     -0.637258    14A     -0.552790    15A     -0.499671
      16A     -0.487454    17A     -0.443646    18A     -0.421339
      19A     -0.410104    20A     -0.385838    21A     -0.369037
      22A     -0.361614    23A     -0.355575    24A     -0.212235
      25A     -0.202886    26A     -0.192817    27A     -0.187184

  @DF-RHF Final Energy:  -343.27205114190662

   => Energetics <=

    Nuclear Repulsion Energy =            269.7504189490818476
    One-Electron Energy =               -1012.8048919045721732
    Two-Electron Energy =                 399.7824218135837668
    Total Energy =                       -343.2720511419066156
  Basis Set: (AUG-CC-PVTZ AUX)
    Blend: AUG-CC-PVTZ-RI
    Molecular point group: c1

    Geometry (in Angstrom), charge = -1, multiplicity = 1:

       Center              X                  Y                   Z               Mass
    ------------   -----------------  -----------------  -----------------  -----------------
         O            2.536279644593    -0.812152007926     0.282853914815    15.994914619570
         O            1.803516544593     1.283632392074    -0.049203485185    15.994914619570
         C           -2.261845355407    -0.352500007926    -0.498043085185    12.000000000000
         C           -3.202786355407     0.205629992074     0.574818914815    12.000000000000
         C           -0.868039355407     0.182189992074    -0.357060085185    12.000000000000
         C            0.257746044593    -0.624310707926    -0.095265285185    12.000000000000
         C            1.618508644593     0.033292992074     0.050489914815    12.000000000000
         H           -2.242163355407    -1.447669007926    -0.443256085185     1.007825032230
         H           -2.660942355407    -0.091785007926    -1.488000085185     1.007825032230
         H           -2.852322355407    -0.071180007926     1.573438914815     1.007825032230
         H           -3.245790355407     1.297912992074     0.523957914815     1.007825032230
         H           -4.219694355407    -0.179001007926     0.449905914815     1.007825032230
         H           -0.739114355407     1.262089992074    -0.444583085185     1.007825032230
         H            0.146098644593    -1.636506007926    -0.009236085185     1.007825032230

  Basis Set: AUG-CC-PVTZ
    Blend: AUG-CC-PVTZ
  Basis Set: (AUG-CC-PVTZ AUX)
    Blend: AUG-CC-PVTZ-JKFIT
	 Reference Energy          =    -343.2720511419066156 [Eh]
	 Singles Energy            =      -0.0000000000000000 [Eh]
	 Same-Spin Energy          =      -0.3487641696762371 [Eh]
	 Opposite-Spin Energy      =      -1.1073794768621577 [Eh]
	 Correlation Energy        =      -1.4561436465383948 [Eh]
	 Total Energy              =    -344.7281947884450233 [Eh]

	 ================> DF-SCS-MP2 Energies <==================
	-----------------------------------------------------------
	 SCS Same-Spin Scale       =       0.3333333333333333 [-]
	 SCS Opposite-Spin Scale   =       1.2000000000000000 [-]
	 SCS Same-Spin Energy      =      -0.1162547232254124 [Eh]
	 SCS Opposite-Spin Energy  =      -1.3288553722345890 [Eh]
	 SCS Correlation Energy    =      -1.4451100954600014 [Eh]
	 SCS Total Energy          =    -344.7171612373666107 [Eh]
	-----------------------------------------------------------

  Dipole Moment: [D]
     X:    -9.6862      Y:    -1.2569      Z:    -0.5954     Total:     9.7855

*** Psi4 exiting successfully. Buy a developer a beer!
