                               Psi4 1.3.2 release

  ==> Input File <==

--------------------------------------------------------------------------
#psi4
#
memory 32 gb

molecule  {
-1 1
  O        2.6823952    -0.8295209     0.2836892
  O        1.8995890     1.2895000    -0.0586210
  C       -2.1006760    -0.3536310    -0.4965290
  C       -3.0416170     0.2044990     0.5763330
  C       -0.7068700     0.1810590    -0.3555460
  C        0.3976978    -0.5775783    -0.1019751
  C        1.7796780     0.0321620     0.0520040
  H       -2.0809940    -1.4488000    -0.4417420
  H       -2.4997730    -0.0929160    -1.4864860
  H       -2.6911530    -0.0723110     1.5749530
  H       -3.0846210     1.2967820     0.5254720
  H       -4.0585250    -0.1801320     0.4514200
  H       -0.5779450     1.2609590    -0.4430690
  H        0.3072680    -1.6376370    -0.0077220
units angstrom
no_reorient  #important for SAPT in psi4, default
symmetry c1  #important for SAPT in psi4, default
}

set PROPERTIES_ORIGIN ["COM"]
properties('MP2/aug-cc-pvtz', properties = ['dipole'])
--------------------------------------------------------------------------

    Molecular point group: c1
  Charge       = -1
  Multiplicity = 1
  Basis Set: AUG-CC-PVTZ
    Blend: AUG-CC-PVTZ
  Basis Set: (AUG-CC-PVTZ AUX)
    Blend: AUG-CC-PVTZ-JKFIT

    Orbital Energies [Eh]
    ---------------------

    Doubly Occupied:

       1A    -20.295264     2A    -20.293269     3A    -11.142359
       4A    -11.115315     5A    -11.113353     6A    -11.087842
       7A    -11.070148     8A     -1.161880     9A     -1.062792
      10A     -0.952317    11A     -0.858454    12A     -0.743485
      13A     -0.632899    14A     -0.548944    15A     -0.494773
      16A     -0.486386    17A     -0.445487    18A     -0.419266
      19A     -0.408429    20A     -0.384131    21A     -0.374037
      22A     -0.358166    23A     -0.352360    24A     -0.211218
      25A     -0.209654    26A     -0.198878    27A     -0.192494

  @DF-RHF Final Energy:  -343.28385635624602

   => Energetics <=

    Nuclear Repulsion Energy =            270.6631597319357070
    One-Electron Energy =               -1014.6668343199524998
    Two-Electron Energy =                 400.7198182317707733
    Total Energy =                       -343.2838563562460195
  Basis Set: (AUG-CC-PVTZ AUX)
    Blend: AUG-CC-PVTZ-RI
    Molecular point group: c1

    Geometry (in Angstrom), charge = -1, multiplicity = 1:

       Center              X                  Y                   Z               Mass
    ------------   -----------------  -----------------  -----------------  -----------------
         O            2.536740216239    -0.832696846074     0.285046489366    15.994914619570
         O            1.753934016239     1.286324053926    -0.057263710634    15.994914619570
         C           -2.246330983761    -0.356806946074    -0.495171710634    12.000000000000
         C           -3.187271983761     0.201323053926     0.577690289366    12.000000000000
         C           -0.852524983761     0.177883053926    -0.354188710634    12.000000000000
         C            0.252042816239    -0.580754246074    -0.100617810634    12.000000000000
         C            1.634023016239     0.028986053926     0.053361289366    12.000000000000
         H           -2.226648983761    -1.451975946074    -0.440384710634     1.007825032230
         H           -2.645427983761    -0.096091946074    -1.485128710634     1.007825032230
         H           -2.836807983761    -0.075486946074     1.576310289366     1.007825032230
         H           -3.230275983761     1.293606053926     0.526829289366     1.007825032230
         H           -4.204179983761    -0.183307946074     0.452777289366     1.007825032230
         H           -0.723599983761     1.257783053926    -0.441711710634     1.007825032230
         H            0.161613016239    -1.640812946074    -0.006364710634     1.007825032230

  Basis Set: AUG-CC-PVTZ
    Blend: AUG-CC-PVTZ
  Basis Set: (AUG-CC-PVTZ AUX)
    Blend: AUG-CC-PVTZ-JKFIT
	 Reference Energy          =    -343.2838563562460195 [Eh]
	 Singles Energy            =      -0.0000000000000000 [Eh]
	 Same-Spin Energy          =      -0.3483466582922854 [Eh]
	 Opposite-Spin Energy      =      -1.1060764324482633 [Eh]
	 Correlation Energy        =      -1.4544230907405487 [Eh]
	 Total Energy              =    -344.7382794469865530 [Eh]

	 ================> DF-SCS-MP2 Energies <==================
	-----------------------------------------------------------
	 SCS Same-Spin Scale       =       0.3333333333333333 [-]
	 SCS Opposite-Spin Scale   =       1.2000000000000000 [-]
	 SCS Same-Spin Energy      =      -0.1161155527640951 [Eh]
	 SCS Opposite-Spin Energy  =      -1.3272917189379159 [Eh]
	 SCS Correlation Energy    =      -1.4434072717020110 [Eh]
	 SCS Total Energy          =    -344.7272636279480480 [Eh]
	-----------------------------------------------------------

  Dipole Moment: [D]
     X:    -9.4485      Y:    -1.1566      Z:    -0.5723     Total:     9.5362

*** Psi4 exiting successfully. Buy a developer a beer!
