                               Psi4 1.3.2 release

  ==> Input File <==

--------------------------------------------------------------------------
#psi4
#
memory 32 gb

molecule  {
-1 1
  O        2.6974490    -0.8132830     0.2843680
  O        1.8995890     1.2895000    -0.0586210
  C       -2.1006760    -0.3536310    -0.4965290
  C       -3.0416170     0.2044990     0.5763330
  C       -0.7068700     0.1810590    -0.3555460
  C        0.3877260    -0.5533690    -0.1060630
  C        1.7796780     0.0321620     0.0520040
  H       -2.0809940    -1.4488000    -0.4417420
  H       -2.4997730    -0.0929160    -1.4864860
  H       -2.6911530    -0.0723110     1.5749530
  H       -3.0846210     1.2967820     0.5254720
  H       -4.0585250    -0.1801320     0.4514200
  H       -0.5779450     1.2609590    -0.4430690
  H        0.4394972    -1.4876814    -0.0023583
units angstrom
no_reorient  #important for SAPT in psi4, default
symmetry c1  #important for SAPT in psi4, default
}

set PROPERTIES_ORIGIN ["COM"]
properties('MP2/aug-cc-pvtz', properties = ['dipole'])
--------------------------------------------------------------------------

    Molecular point group: c1
  Charge       = -1
  Multiplicity = 1
  Basis Set: AUG-CC-PVTZ
    Blend: AUG-CC-PVTZ
  Basis Set: (AUG-CC-PVTZ AUX)
    Blend: AUG-CC-PVTZ-JKFIT

    Orbital Energies [Eh]
    ---------------------

    Doubly Occupied:

       1A    -20.295376     2A    -20.288441     3A    -11.137332
       4A    -11.115736     5A    -11.113876     6A    -11.086206
       7A    -11.051247     8A     -1.160529     9A     -1.059595
      10A     -0.954632    11A     -0.866788    12A     -0.749388
      13A     -0.646680    14A     -0.548498    15A     -0.503185
      16A     -0.493362    17A     -0.445961    18A     -0.425570
      19A     -0.408983    20A     -0.384038    21A     -0.375650
      22A     -0.356456    23A     -0.354133    24A     -0.210241
      25A     -0.205348    26A     -0.203955    27A     -0.189888

  @DF-RHF Final Energy:  -343.26762673452635

   => Energetics <=

    Nuclear Repulsion Energy =            271.6553783754138180
    One-Electron Energy =               -1016.5838239293123024
    Two-Electron Energy =                 401.6608188193720821
    Total Energy =                       -343.2676267345263454
  Basis Set: (AUG-CC-PVTZ AUX)
    Blend: AUG-CC-PVTZ-RI
    Molecular point group: c1

    Geometry (in Angstrom), charge = -1, multiplicity = 1:

       Center              X                  Y                   Z               Mass
    ------------   -----------------  -----------------  -----------------  -----------------
         O            2.549225612389    -0.823540244801     0.286056370307    15.994914619570
         O            1.751365612389     1.279242755199    -0.056932629693    15.994914619570
         C           -2.248899387611    -0.363888244801    -0.494840629693    12.000000000000
         C           -3.189840387611     0.194241755199     0.578021370307    12.000000000000
         C           -0.855093387611     0.170801755199    -0.353857629693    12.000000000000
         C            0.239502612389    -0.563626244801    -0.104374629693    12.000000000000
         C            1.631454612389     0.021904755199     0.053692370307    12.000000000000
         H           -2.229217387611    -1.459057244801    -0.440053629693     1.007825032230
         H           -2.647996387611    -0.103173244801    -1.484797629693     1.007825032230
         H           -2.839376387611    -0.082568244801     1.576641370307     1.007825032230
         H           -3.232844387611     1.286524755199     0.527160370307     1.007825032230
         H           -4.206748387611    -0.190389244801     0.453108370307     1.007825032230
         H           -0.726168387611     1.250701755199    -0.441380629693     1.007825032230
         H            0.291273812389    -1.497938644801    -0.000669929693     1.007825032230

  Basis Set: AUG-CC-PVTZ
    Blend: AUG-CC-PVTZ
  Basis Set: (AUG-CC-PVTZ AUX)
    Blend: AUG-CC-PVTZ-JKFIT
	 Reference Energy          =    -343.2676267345263454 [Eh]
	 Singles Energy            =      -0.0000000000000000 [Eh]
	 Same-Spin Energy          =      -0.3479346411495683 [Eh]
	 Opposite-Spin Energy      =      -1.1050232380631821 [Eh]
	 Correlation Energy        =      -1.4529578792127504 [Eh]
	 Total Energy              =    -344.7205846137391063 [Eh]

	 ================> DF-SCS-MP2 Energies <==================
	-----------------------------------------------------------
	 SCS Same-Spin Scale       =       0.3333333333333333 [-]
	 SCS Opposite-Spin Scale   =       1.2000000000000000 [-]
	 SCS Same-Spin Energy      =      -0.1159782137165228 [Eh]
	 SCS Opposite-Spin Energy  =      -1.3260278856758185 [Eh]
	 SCS Correlation Energy    =      -1.4420060993923414 [Eh]
	 SCS Total Energy          =    -344.7096328339187039 [Eh]
	-----------------------------------------------------------

  Dipole Moment: [D]
     X:    -9.5469      Y:    -1.2515      Z:    -0.5746     Total:     9.6457

*** Psi4 exiting successfully. Buy a developer a beer!
