                               Psi4 1.3.2 release

  ==> Input File <==

--------------------------------------------------------------------------
#psi4
#
memory 32 gb

molecule  {
-1 1
  O        2.6974490    -0.8132830     0.2843680
  O        1.8995890     1.2895000    -0.0586210
  C       -2.1256459    -0.2799697    -0.5071783
  C       -3.0416170     0.2044990     0.5763330
  C       -0.7068700     0.1810590    -0.3555460
  C        0.3877260    -0.5533690    -0.1060630
  C        1.7796780     0.0321620     0.0520040
  H       -2.0809940    -1.4488000    -0.4417420
  H       -2.4997730    -0.0929160    -1.4864860
  H       -2.6911530    -0.0723110     1.5749530
  H       -3.0846210     1.2967820     0.5254720
  H       -4.0585250    -0.1801320     0.4514200
  H       -0.6342852     1.2655057    -0.4513208
  H        0.3072680    -1.6376370    -0.0077220
units angstrom
no_reorient  #important for SAPT in psi4, default
symmetry c1  #important for SAPT in psi4, default
}

set PROPERTIES_ORIGIN ["COM"]
properties('MP2/aug-cc-pvtz', properties = ['dipole'])
--------------------------------------------------------------------------

    Molecular point group: c1
  Charge       = -1
  Multiplicity = 1
  Basis Set: AUG-CC-PVTZ
    Blend: AUG-CC-PVTZ
  Basis Set: (AUG-CC-PVTZ AUX)
    Blend: AUG-CC-PVTZ-JKFIT

    Orbital Energies [Eh]
    ---------------------

    Doubly Occupied:

       1A    -20.295869     2A    -20.291576     3A    -11.142786
       4A    -11.115703     5A    -11.115021     6A    -11.087019
       7A    -11.072934     8A     -1.162056     9A     -1.061201
      10A     -0.958115    11A     -0.865276    12A     -0.744415
      13A     -0.632034    14A     -0.549260    15A     -0.500702
      16A     -0.484097    17A     -0.445791    18A     -0.429868
      19A     -0.415730    20A     -0.378270    21A     -0.374222
      22A     -0.358742    23A     -0.332643    24A     -0.212098
      25A     -0.208917    26A     -0.207260    27A     -0.191209

  @DF-RHF Final Energy:  -343.27784570574033

   => Energetics <=

    Nuclear Repulsion Energy =            270.8970076200369590
    One-Electron Energy =               -1015.0840805552667234
    Two-Electron Energy =                 400.9092272294893746
    Total Energy =                       -343.2778457057403330
  Basis Set: (AUG-CC-PVTZ AUX)
    Blend: AUG-CC-PVTZ-RI
    Molecular point group: c1

    Geometry (in Angstrom), charge = -1, multiplicity = 1:

       Center              X                  Y                   Z               Mass
    ------------   -----------------  -----------------  -----------------  -----------------
         O            2.554169685459    -0.830985262878     0.287485157291    15.994914619570
         O            1.756309685459     1.271797737122    -0.055503842709    15.994914619570
         C           -2.268925214541    -0.297671962878    -0.504061142709    12.000000000000
         C           -3.184896314541     0.186796737122     0.579450157291    12.000000000000
         C           -0.850149314541     0.163356737122    -0.352428842709    12.000000000000
         C            0.244446685459    -0.571071262878    -0.102945842709    12.000000000000
         C            1.636398685459     0.014459737122     0.055121157291    12.000000000000
         H           -2.224273314541    -1.466502262878    -0.438624842709     1.007825032230
         H           -2.643052314541    -0.110618262878    -1.483368842709     1.007825032230
         H           -2.834432314541    -0.090013262878     1.578070157291     1.007825032230
         H           -3.227900314541     1.279079737122     0.528589157291     1.007825032230
         H           -4.201804314541    -0.197834262878     0.454537157291     1.007825032230
         H           -0.777564514541     1.247803437122    -0.448203642709     1.007825032230
         H            0.163988685459    -1.655339262878    -0.004604842709     1.007825032230

  Basis Set: AUG-CC-PVTZ
    Blend: AUG-CC-PVTZ
  Basis Set: (AUG-CC-PVTZ AUX)
    Blend: AUG-CC-PVTZ-JKFIT
	 Reference Energy          =    -343.2778457057403330 [Eh]
	 Singles Energy            =      -0.0000000000000000 [Eh]
	 Same-Spin Energy          =      -0.3484152307070140 [Eh]
	 Opposite-Spin Energy      =      -1.1063073081928905 [Eh]
	 Correlation Energy        =      -1.4547225388999045 [Eh]
	 Total Energy              =    -344.7325682446402197 [Eh]

	 ================> DF-SCS-MP2 Energies <==================
	-----------------------------------------------------------
	 SCS Same-Spin Scale       =       0.3333333333333333 [-]
	 SCS Opposite-Spin Scale   =       1.2000000000000000 [-]
	 SCS Same-Spin Energy      =      -0.1161384102356713 [Eh]
	 SCS Opposite-Spin Energy  =      -1.3275687698314684 [Eh]
	 SCS Correlation Energy    =      -1.4437071800671397 [Eh]
	 SCS Total Energy          =    -344.7215528858074549 [Eh]
	-----------------------------------------------------------

  Dipole Moment: [D]
     X:    -9.5347      Y:    -1.0537      Z:    -0.5841     Total:     9.6105

*** Psi4 exiting successfully. Buy a developer a beer!
