                               Psi4 1.3.2 release

  ==> Input File <==

--------------------------------------------------------------------------
#psi4
#
memory 32 gb

molecule  {
-1 1
  O        2.6899568    -0.8214345     0.2840375
  O        1.8995890     1.2895000    -0.0586210
  C       -2.1006760    -0.3536310    -0.4965290
  C       -3.0416170     0.2044990     0.5763330
  C       -0.7068700     0.1810590    -0.3555460
  C        0.3926591    -0.5654964    -0.1040250
  C        1.7796780     0.0321620     0.0520040
  H       -2.0809940    -1.4488000    -0.4417420
  H       -2.4997730    -0.0929160    -1.4864860
  H       -2.6911530    -0.0723110     1.5749530
  H       -3.0846210     1.2967820     0.5254720
  H       -4.0585250    -0.1801320     0.4514200
  H       -0.5779450     1.2609590    -0.4430690
  H        0.3072680    -1.6376370    -0.0077220
units angstrom
no_reorient  #important for SAPT in psi4, default
symmetry c1  #important for SAPT in psi4, default
}

set PROPERTIES_ORIGIN ["COM"]
properties('MP2/aug-cc-pvtz', properties = ['dipole'])
--------------------------------------------------------------------------

    Molecular point group: c1
  Charge       = -1
  Multiplicity = 1
  Basis Set: AUG-CC-PVTZ
    Blend: AUG-CC-PVTZ
  Basis Set: (AUG-CC-PVTZ AUX)
    Blend: AUG-CC-PVTZ-JKFIT

    Orbital Energies [Eh]
    ---------------------

    Doubly Occupied:

       1A    -20.295301     2A    -20.292453     3A    -11.142165
       4A    -11.115547     5A    -11.113677     6A    -11.086624
       7A    -11.070069     8A     -1.161828     9A     -1.061899
      10A     -0.953264    11A     -0.860398    12A     -0.743636
      13A     -0.632916    14A     -0.548905    15A     -0.494575
      16A     -0.486342    17A     -0.445715    18A     -0.419223
      19A     -0.408659    20A     -0.383527    21A     -0.374981
      22A     -0.358056    23A     -0.350682    24A     -0.210640
      25A     -0.209953    26A     -0.201768    27A     -0.191834

  @DF-RHF Final Energy:  -343.28510143872455

   => Energetics <=

    Nuclear Repulsion Energy =            270.7563541544278110
    One-Electron Energy =               -1014.8536370785487861
    Two-Electron Energy =                 400.8121814853963656
    Total Energy =                       -343.2851014387245527
  Basis Set: (AUG-CC-PVTZ AUX)
    Blend: AUG-CC-PVTZ-RI
    Molecular point group: c1

    Geometry (in Angstrom), charge = -1, multiplicity = 1:

       Center              X                  Y                   Z               Mass
    ------------   -----------------  -----------------  -----------------  -----------------
         O            2.543691154541    -0.827380148463     0.285586902519    15.994914619570
         O            1.753323354541     1.283554351537    -0.057071597481    15.994914619570
         C           -2.246941645459    -0.359576648463    -0.494979597481    12.000000000000
         C           -3.187882645459     0.198553351537     0.577882402519    12.000000000000
         C           -0.853135645459     0.175113351537    -0.353996597481    12.000000000000
         C            0.246393454541    -0.571442048463    -0.102475597481    12.000000000000
         C            1.633412354541     0.026216351537     0.053553402519    12.000000000000
         H           -2.227259645459    -1.454745648463    -0.440192597481     1.007825032230
         H           -2.646038645459    -0.098861648463    -1.484936597481     1.007825032230
         H           -2.837418645459    -0.078256648463     1.576502402519     1.007825032230
         H           -3.230886645459     1.290836351537     0.527021402519     1.007825032230
         H           -4.204790645459    -0.186077648463     0.452969402519     1.007825032230
         H           -0.724210645459     1.255013351537    -0.441519597481     1.007825032230
         H            0.161002354541    -1.643582648463    -0.006172597481     1.007825032230

  Basis Set: AUG-CC-PVTZ
    Blend: AUG-CC-PVTZ
  Basis Set: (AUG-CC-PVTZ AUX)
    Blend: AUG-CC-PVTZ-JKFIT
	 Reference Energy          =    -343.2851014387245527 [Eh]
	 Singles Energy            =      -0.0000000000000000 [Eh]
	 Same-Spin Energy          =      -0.3482355719255944 [Eh]
	 Opposite-Spin Energy      =      -1.1058002229147146 [Eh]
	 Correlation Energy        =      -1.4540357948403089 [Eh]
	 Total Energy              =    -344.7391372335648612 [Eh]

	 ================> DF-SCS-MP2 Energies <==================
	-----------------------------------------------------------
	 SCS Same-Spin Scale       =       0.3333333333333333 [-]
	 SCS Opposite-Spin Scale   =       1.2000000000000000 [-]
	 SCS Same-Spin Energy      =      -0.1160785239751981 [Eh]
	 SCS Opposite-Spin Energy  =      -1.3269602674976575 [Eh]
	 SCS Correlation Energy    =      -1.4430387914728557 [Eh]
	 SCS Total Energy          =    -344.7281402301974254 [Eh]
	-----------------------------------------------------------

  Dipole Moment: [D]
     X:    -9.4806      Y:    -1.1552      Z:    -0.5756     Total:     9.5680

*** Psi4 exiting successfully. Buy a developer a beer!
