                               Psi4 1.3.2 release

  ==> Input File <==

--------------------------------------------------------------------------
#psi4
#
memory 32 gb

molecule  {
-1 1
  O        2.6974490    -0.8132830     0.2843680
  O        1.8995890     1.2895000    -0.0586210
  C       -2.1006760    -0.3536310    -0.4965290
  C       -3.0416170     0.2044990     0.5763330
  C       -0.7322835     0.1417286    -0.3554314
  C        0.3877260    -0.5533690    -0.1060630
  C        1.7983405    -0.0167801     0.0600732
  H       -2.0809940    -1.4488000    -0.4417420
  H       -2.4997730    -0.0929160    -1.4864860
  H       -2.6911530    -0.0723110     1.5749530
  H       -3.0846210     1.2967820     0.5254720
  H       -4.0585250    -0.1801320     0.4514200
  H       -0.5779450     1.2609590    -0.4430690
  H        0.3072680    -1.6376370    -0.0077220
units angstrom
no_reorient  #important for SAPT in psi4, default
symmetry c1  #important for SAPT in psi4, default
}

set PROPERTIES_ORIGIN ["COM"]
properties('MP2/aug-cc-pvtz', properties = ['dipole'])
--------------------------------------------------------------------------

    Molecular point group: c1
  Charge       = -1
  Multiplicity = 1
  Basis Set: AUG-CC-PVTZ
    Blend: AUG-CC-PVTZ
  Basis Set: (AUG-CC-PVTZ AUX)
    Blend: AUG-CC-PVTZ-JKFIT

    Orbital Energies [Eh]
    ---------------------

    Doubly Occupied:

       1A    -20.308102     2A    -20.280302     3A    -11.142982
       4A    -11.116222     5A    -11.112914     6A    -11.086885
       7A    -11.070095     8A     -1.175936     9A     -1.050681
      10A     -0.959394    11A     -0.861012    12A     -0.748481
      13A     -0.630964    14A     -0.547813    15A     -0.499042
      16A     -0.484165    17A     -0.449283    18A     -0.418814
      19A     -0.411257    20A     -0.385339    21A     -0.380983
      22A     -0.362059    23A     -0.336411    24A     -0.216788
      25A     -0.207342    26A     -0.200869    27A     -0.186343

  @DF-RHF Final Energy:  -343.27805319948197

   => Energetics <=

    Nuclear Repulsion Energy =            270.9488373115551099
    One-Electron Energy =               -1015.1928245219870632
    Two-Electron Energy =                 400.9659340109499226
    Total Energy =                       -343.2780531994819739
  Basis Set: (AUG-CC-PVTZ AUX)
    Blend: AUG-CC-PVTZ-RI
    Molecular point group: c1

    Geometry (in Angstrom), charge = -1, multiplicity = 1:

       Center              X                  Y                   Z               Mass
    ------------   -----------------  -----------------  -----------------  -----------------
         O            2.551389040663    -0.811319498260     0.285119419431    15.994914619570
         O            1.753529040663     1.291463501740    -0.057869580569    15.994914619570
         C           -2.246735959337    -0.351667498260    -0.495777580569    12.000000000000
         C           -3.187676959337     0.206462501740     0.577084419431    12.000000000000
         C           -0.878343459337     0.143692101740    -0.354679980569    12.000000000000
         C            0.241666040663    -0.551405498260    -0.105311580569    12.000000000000
         C            1.652280540663    -0.014816598260     0.060824619431    12.000000000000
         H           -2.227053959337    -1.446836498260    -0.440990580569     1.007825032230
         H           -2.645832959337    -0.090952498260    -1.485734580569     1.007825032230
         H           -2.837212959337    -0.070347498260     1.575704419431     1.007825032230
         H           -3.230680959337     1.298745501740     0.526223419431     1.007825032230
         H           -4.204584959337    -0.178168498260     0.452171419431     1.007825032230
         H           -0.724004959337     1.262922501740    -0.442317580569     1.007825032230
         H            0.161208040663    -1.635673498260    -0.006970580569     1.007825032230

  Basis Set: AUG-CC-PVTZ
    Blend: AUG-CC-PVTZ
  Basis Set: (AUG-CC-PVTZ AUX)
    Blend: AUG-CC-PVTZ-JKFIT
	 Reference Energy          =    -343.2780531994819739 [Eh]
	 Singles Energy            =      -0.0000000000000000 [Eh]
	 Same-Spin Energy          =      -0.3485917173087794 [Eh]
	 Opposite-Spin Energy      =      -1.1061957247291527 [Eh]
	 Correlation Energy        =      -1.4547874420379321 [Eh]
	 Total Energy              =    -344.7328406415198856 [Eh]

	 ================> DF-SCS-MP2 Energies <==================
	-----------------------------------------------------------
	 SCS Same-Spin Scale       =       0.3333333333333333 [-]
	 SCS Opposite-Spin Scale   =       1.2000000000000000 [-]
	 SCS Same-Spin Energy      =      -0.1161972391029265 [Eh]
	 SCS Opposite-Spin Energy  =      -1.3274348696749831 [Eh]
	 SCS Correlation Energy    =      -1.4436321087779096 [Eh]
	 SCS Total Energy          =    -344.7216853082599073 [Eh]
	-----------------------------------------------------------

  Dipole Moment: [D]
     X:    -9.3444      Y:    -1.6722      Z:    -0.4936     Total:     9.5056

*** Psi4 exiting successfully. Buy a developer a beer!
