                               Psi4 1.3.2 release

  ==> Input File <==

--------------------------------------------------------------------------
#psi4
#
memory 32 gb

molecule  {
-1 1
  O        2.6974490    -0.8132830     0.2843680
  O        1.8995890     1.2895000    -0.0586210
  C       -2.1006760    -0.3536310    -0.4965290
  C       -3.0416170     0.2044990     0.5763330
  C       -0.7068700     0.1810590    -0.3555460
  C        0.3877260    -0.5533690    -0.1060630
  C        1.7892332     0.0077695     0.0559961
  H       -2.0809940    -1.4488000    -0.4417420
  H       -2.4997730    -0.0929160    -1.4864860
  H       -2.6911530    -0.0723110     1.5749530
  H       -3.0846210     1.2967820     0.5254720
  H       -4.0585250    -0.1801320     0.4514200
  H       -0.5779450     1.2609590    -0.4430690
  H        0.3260533    -1.6385879    -0.0046830
units angstrom
no_reorient  #important for SAPT in psi4, default
symmetry c1  #important for SAPT in psi4, default
}

set PROPERTIES_ORIGIN ["COM"]
properties('MP2/aug-cc-pvtz', properties = ['dipole'])
--------------------------------------------------------------------------

    Molecular point group: c1
  Charge       = -1
  Multiplicity = 1
  Basis Set: AUG-CC-PVTZ
    Blend: AUG-CC-PVTZ
  Basis Set: (AUG-CC-PVTZ AUX)
    Blend: AUG-CC-PVTZ-JKFIT

    Orbital Energies [Eh]
    ---------------------

    Doubly Occupied:

       1A    -20.301357     2A    -20.285339     3A    -11.141455
       4A    -11.115566     5A    -11.113841     6A    -11.085702
       7A    -11.069834     8A     -1.165538     9A     -1.057893
      10A     -0.953793    11A     -0.861628    12A     -0.743763
      13A     -0.634422    14A     -0.547528    15A     -0.494605
      16A     -0.485646    17A     -0.446446    18A     -0.419976
      19A     -0.408816    20A     -0.382393    21A     -0.376519
      22A     -0.358773    23A     -0.347907    24A     -0.213762
      25A     -0.205957    26A     -0.204780    27A     -0.189218

  @DF-RHF Final Energy:  -343.28465069720431

   => Energetics <=

    Nuclear Repulsion Energy =            270.8104139026476105
    One-Electron Energy =               -1014.9652137222367401
    Two-Electron Energy =                 400.8701491223848166
    Total Energy =                       -343.2846506972043130
  Basis Set: (AUG-CC-PVTZ AUX)
    Blend: AUG-CC-PVTZ-RI
    Molecular point group: c1

    Geometry (in Angstrom), charge = -1, multiplicity = 1:

       Center              X                  Y                   Z               Mass
    ------------   -----------------  -----------------  -----------------  -----------------
         O            2.549222272501    -0.819049365660     0.285596352223    15.994914619570
         O            1.751362272501     1.283733634340    -0.057392647777    15.994914619570
         C           -2.248902727499    -0.359397365660    -0.495300647777    12.000000000000
         C           -3.189843727499     0.198732634340     0.577561352223    12.000000000000
         C           -0.855096727499     0.175292634340    -0.354317647777    12.000000000000
         C            0.239499272501    -0.559135365660    -0.104834647777    12.000000000000
         C            1.641006472501     0.002003134340     0.057224452223    12.000000000000
         H           -2.229220727499    -1.454566365660    -0.440513647777     1.007825032230
         H           -2.647999727499    -0.098682365660    -1.485257647777     1.007825032230
         H           -2.839379727499    -0.078077365660     1.576181352223     1.007825032230
         H           -3.232847727499     1.291015634340     0.526700352223     1.007825032230
         H           -4.206751727499    -0.185898365660     0.452648352223     1.007825032230
         H           -0.726171727499     1.255192634340    -0.441840647777     1.007825032230
         H            0.177826572501    -1.644354265660    -0.003454647777     1.007825032230

  Basis Set: AUG-CC-PVTZ
    Blend: AUG-CC-PVTZ
  Basis Set: (AUG-CC-PVTZ AUX)
    Blend: AUG-CC-PVTZ-JKFIT
	 Reference Energy          =    -343.2846506972043130 [Eh]
	 Singles Energy            =      -0.0000000000000000 [Eh]
	 Same-Spin Energy          =      -0.3480676636361239 [Eh]
	 Opposite-Spin Energy      =      -1.1054897579206888 [Eh]
	 Correlation Energy        =      -1.4535574215568128 [Eh]
	 Total Energy              =    -344.7382081187611220 [Eh]

	 ================> DF-SCS-MP2 Energies <==================
	-----------------------------------------------------------
	 SCS Same-Spin Scale       =       0.3333333333333333 [-]
	 SCS Opposite-Spin Scale   =       1.2000000000000000 [-]
	 SCS Same-Spin Energy      =      -0.1160225545453746 [Eh]
	 SCS Opposite-Spin Energy  =      -1.3265877095048266 [Eh]
	 SCS Correlation Energy    =      -1.4426102640502012 [Eh]
	 SCS Total Energy          =    -344.7272609612545011 [Eh]
	-----------------------------------------------------------

  Dipole Moment: [D]
     X:    -9.4163      Y:    -1.4021      Z:    -0.5378     Total:     9.5353

*** Psi4 exiting successfully. Buy a developer a beer!
