                               Psi4 1.3.2 release

  ==> Input File <==

--------------------------------------------------------------------------
#psi4
#
memory 32 gb

molecule  {
-1 1
  O        2.6974490    -0.8132830     0.2843680
  O        1.8995890     1.2895000    -0.0586210
  C       -2.1006760    -0.3536310    -0.4965290
  C       -3.0416170     0.2044990     0.5763330
  C       -0.7998221     0.1454008    -0.3649481
  C        0.3877260    -0.5533690    -0.1060630
  C        1.7796780     0.0321620     0.0520040
  H       -2.0809940    -1.4488000    -0.4417420
  H       -2.4997730    -0.0929160    -1.4864860
  H       -2.6911530    -0.0723110     1.5749530
  H       -3.0846210     1.2967820     0.5254720
  H       -4.0585250    -0.1801320     0.4514200
  H       -0.5779450     1.2609590    -0.4430690
  H        0.3072680    -1.6376370    -0.0077220
units angstrom
no_reorient  #important for SAPT in psi4, default
symmetry c1  #important for SAPT in psi4, default
}

set PROPERTIES_ORIGIN ["COM"]
properties('MP2/aug-cc-pvtz', properties = ['dipole'])
--------------------------------------------------------------------------

    Molecular point group: c1
  Charge       = -1
  Multiplicity = 1
  Basis Set: AUG-CC-PVTZ
    Blend: AUG-CC-PVTZ
  Basis Set: (AUG-CC-PVTZ AUX)
    Blend: AUG-CC-PVTZ-JKFIT

    Orbital Energies [Eh]
    ---------------------

    Doubly Occupied:

       1A    -20.297081     2A    -20.293217     3A    -11.145165
       4A    -11.117224     5A    -11.110866     6A    -11.092406
       7A    -11.079530     8A     -1.163088     9A     -1.062364
      10A     -0.969988    11A     -0.851805    12A     -0.754081
      13A     -0.630360    14A     -0.548962    15A     -0.502566
      16A     -0.486345    17A     -0.447478    18A     -0.418022
      19A     -0.413361    20A     -0.389962    21A     -0.384191
      22A     -0.358145    23A     -0.334874    24A     -0.214508
      25A     -0.209989    26A     -0.193217    27A     -0.188947

  @DF-RHF Final Energy:  -343.26818100222772

   => Energetics <=

    Nuclear Repulsion Energy =            270.7497612414996979
    One-Electron Energy =               -1014.7204004952711784
    Two-Electron Energy =                 400.7024582515437032
    Total Energy =                       -343.2681810022277205
  Basis Set: (AUG-CC-PVTZ AUX)
    Blend: AUG-CC-PVTZ-RI
    Molecular point group: c1

    Geometry (in Angstrom), charge = -1, multiplicity = 1:

       Center              X                  Y                   Z               Mass
    ------------   -----------------  -----------------  -----------------  -----------------
         O            2.561832953339    -0.817694117084     0.287250083703    15.994914619570
         O            1.763972953339     1.285088882916    -0.055738916297    15.994914619570
         C           -2.236292046661    -0.358042117084    -0.493646916297    12.000000000000
         C           -3.177233046661     0.200087882916     0.579215083703    12.000000000000
         C           -0.935438146661     0.140989682916    -0.362066016297    12.000000000000
         C            0.252109953339    -0.557780117084    -0.103180916297    12.000000000000
         C            1.644061953339     0.027750882916     0.054886083703    12.000000000000
         H           -2.216610046661    -1.453211117084    -0.438859916297     1.007825032230
         H           -2.635389046661    -0.097327117084    -1.483603916297     1.007825032230
         H           -2.826769046661    -0.076722117084     1.577835083703     1.007825032230
         H           -3.220237046661     1.292370882916     0.528354083703     1.007825032230
         H           -4.194141046661    -0.184543117084     0.454302083703     1.007825032230
         H           -0.713561046661     1.256547882916    -0.440186916297     1.007825032230
         H            0.171651953339    -1.642048117084    -0.004839916297     1.007825032230

  Basis Set: AUG-CC-PVTZ
    Blend: AUG-CC-PVTZ
  Basis Set: (AUG-CC-PVTZ AUX)
    Blend: AUG-CC-PVTZ-JKFIT
	 Reference Energy          =    -343.2681810022277205 [Eh]
	 Singles Energy            =      -0.0000000000000000 [Eh]
	 Same-Spin Energy          =      -0.3503191552799548 [Eh]
	 Opposite-Spin Energy      =      -1.1089772137174210 [Eh]
	 Correlation Energy        =      -1.4592963689973759 [Eh]
	 Total Energy              =    -344.7274773712251204 [Eh]

	 ================> DF-SCS-MP2 Energies <==================
	-----------------------------------------------------------
	 SCS Same-Spin Scale       =       0.3333333333333333 [-]
	 SCS Opposite-Spin Scale   =       1.2000000000000000 [-]
	 SCS Same-Spin Energy      =      -0.1167730517599849 [Eh]
	 SCS Opposite-Spin Energy  =      -1.3307726564609050 [Eh]
	 SCS Correlation Energy    =      -1.4475457082208900 [Eh]
	 SCS Total Energy          =    -344.7157267104486209 [Eh]
	-----------------------------------------------------------

  Dipole Moment: [D]
     X:    -9.5419      Y:    -1.1861      Z:    -0.5832     Total:     9.6331

*** Psi4 exiting successfully. Buy a developer a beer!
