                               Psi4 1.3.2 release

  ==> Input File <==

--------------------------------------------------------------------------
#psi4
#
memory 32 gb

molecule  {
-1 1
  O        2.6974490    -0.8132830     0.2843680
  O        1.8995890     1.2895000    -0.0586210
  C       -2.0721460    -0.4256285    -0.4836726
  C       -3.0416170     0.2044990     0.5763330
  C       -0.7068700     0.1810590    -0.3555460
  C        0.3469232    -0.6105303    -0.1052004
  C        1.7796780     0.0321620     0.0520040
  H       -2.0809940    -1.4488000    -0.4417420
  H       -2.4997730    -0.0929160    -1.4864860
  H       -2.6911530    -0.0723110     1.5749530
  H       -3.0846210     1.2967820     0.5254720
  H       -4.0585250    -0.1801320     0.4514200
  H       -0.5779450     1.2609590    -0.4430690
  H        0.3072680    -1.6376370    -0.0077220
units angstrom
no_reorient  #important for SAPT in psi4, default
symmetry c1  #important for SAPT in psi4, default
}

set PROPERTIES_ORIGIN ["COM"]
properties('MP2/aug-cc-pvtz', properties = ['dipole'])
--------------------------------------------------------------------------

    Molecular point group: c1
  Charge       = -1
  Multiplicity = 1
  Basis Set: AUG-CC-PVTZ
    Blend: AUG-CC-PVTZ
  Basis Set: (AUG-CC-PVTZ AUX)
    Blend: AUG-CC-PVTZ-JKFIT

    Orbital Energies [Eh]
    ---------------------

    Doubly Occupied:

       1A    -20.294867     2A    -20.293811     3A    -11.144980
       4A    -11.115368     5A    -11.111147     6A    -11.085294
       7A    -11.065613     8A     -1.160227     9A     -1.060833
      10A     -0.951896    11A     -0.857364    12A     -0.741559
      13A     -0.635708    14A     -0.544310    15A     -0.498016
      16A     -0.483800    17A     -0.446559    18A     -0.421536
      19A     -0.400268    20A     -0.385918    21A     -0.374694
      22A     -0.361880    23A     -0.354308    24A     -0.210221
      25A     -0.203423    26A     -0.202600    27A     -0.192116

  @DF-RHF Final Energy:  -343.27387254508420

   => Energetics <=

    Nuclear Repulsion Energy =            270.1910308690995066
    One-Electron Energy =               -1013.7331736186374656
    Two-Electron Energy =                 400.2682702044538132
    Total Energy =                       -343.2738725450842026
  Basis Set: (AUG-CC-PVTZ AUX)
    Blend: AUG-CC-PVTZ-RI
    Molecular point group: c1

    Geometry (in Angstrom), charge = -1, multiplicity = 1:

       Center              X                  Y                   Z               Mass
    ------------   -----------------  -----------------  -----------------  -----------------
         O            2.552058048333    -0.806365814992     0.284448788251    15.994914619570
         O            1.754198048333     1.296417185008    -0.058540211749    15.994914619570
         C           -2.217536951667    -0.418711314992    -0.483591811749    12.000000000000
         C           -3.187007951667     0.211416185008     0.576413788251    12.000000000000
         C           -0.852260951667     0.187976185008    -0.355465211749    12.000000000000
         C            0.201532248333    -0.603613114992    -0.105119611749    12.000000000000
         C            1.634287048333     0.039079185008     0.052084788251    12.000000000000
         H           -2.226384951667    -1.441882814992    -0.441661211749     1.007825032230
         H           -2.645163951667    -0.085998814992    -1.486405211749     1.007825032230
         H           -2.836543951667    -0.065393814992     1.575033788251     1.007825032230
         H           -3.230011951667     1.303699185008     0.525552788251     1.007825032230
         H           -4.203915951667    -0.173214814992     0.451500788251     1.007825032230
         H           -0.723335951667     1.267876185008    -0.442988211749     1.007825032230
         H            0.161877048333    -1.630719814992    -0.007641211749     1.007825032230

  Basis Set: AUG-CC-PVTZ
    Blend: AUG-CC-PVTZ
  Basis Set: (AUG-CC-PVTZ AUX)
    Blend: AUG-CC-PVTZ-JKFIT
	 Reference Energy          =    -343.2738725450842026 [Eh]
	 Singles Energy            =      -0.0000000000000000 [Eh]
	 Same-Spin Energy          =      -0.3479223404207398 [Eh]
	 Opposite-Spin Energy      =      -1.1054168700952474 [Eh]
	 Correlation Energy        =      -1.4533392105159870 [Eh]
	 Total Energy              =    -344.7272117556001945 [Eh]

	 ================> DF-SCS-MP2 Energies <==================
	-----------------------------------------------------------
	 SCS Same-Spin Scale       =       0.3333333333333333 [-]
	 SCS Opposite-Spin Scale   =       1.2000000000000000 [-]
	 SCS Same-Spin Energy      =      -0.1159741134735799 [Eh]
	 SCS Opposite-Spin Energy  =      -1.3265002441142968 [Eh]
	 SCS Correlation Energy    =      -1.4424743575878767 [Eh]
	 SCS Total Energy          =    -344.7163469026720577 [Eh]
	-----------------------------------------------------------

  Dipole Moment: [D]
     X:    -9.4156      Y:    -1.2627      Z:    -0.5563     Total:     9.5162

*** Psi4 exiting successfully. Buy a developer a beer!
