                               Psi4 1.3.2 release

  ==> Input File <==

--------------------------------------------------------------------------
#psi4
#
memory 32 gb

molecule  {
-1 1
  O        2.7048713    -0.8050671     0.2846809
  O        1.8995890     1.2895000    -0.0586210
  C       -2.1006760    -0.3536310    -0.4965290
  C       -3.0416170     0.2044990     0.5763330
  C       -0.7068700     0.1810590    -0.3555460
  C        0.3828989    -0.5411970    -0.1080890
  C        1.7796780     0.0321620     0.0520040
  H       -2.0809940    -1.4488000    -0.4417420
  H       -2.4997730    -0.0929160    -1.4864860
  H       -2.6911530    -0.0723110     1.5749530
  H       -3.0846210     1.2967820     0.5254720
  H       -4.0585250    -0.1801320     0.4514200
  H       -0.5779450     1.2609590    -0.4430690
  H        0.3072680    -1.6376370    -0.0077220
units angstrom
no_reorient  #important for SAPT in psi4, default
symmetry c1  #important for SAPT in psi4, default
}

set PROPERTIES_ORIGIN ["COM"]
properties('MP2/aug-cc-pvtz', properties = ['dipole'])
--------------------------------------------------------------------------

    Molecular point group: c1
  Charge       = -1
  Multiplicity = 1
  Basis Set: AUG-CC-PVTZ
    Blend: AUG-CC-PVTZ
  Basis Set: (AUG-CC-PVTZ AUX)
    Blend: AUG-CC-PVTZ-JKFIT

    Orbital Energies [Eh]
    ---------------------

    Doubly Occupied:

       1A    -20.295422     2A    -20.290887     3A    -11.141892
       4A    -11.116003     5A    -11.114325     6A    -11.084153
       7A    -11.069996     8A     -1.161839     9A     -1.060206
      10A     -0.955263    11A     -0.864346    12A     -0.743989
      13A     -0.633048    14A     -0.549111    15A     -0.494965
      16A     -0.485484    17A     -0.446181    18A     -0.419217
      19A     -0.409060    20A     -0.382590    21A     -0.376661
      22A     -0.357945    23A     -0.346814    24A     -0.211881
      25A     -0.207991    26A     -0.207593    27A     -0.190579

  @DF-RHF Final Energy:  -343.28573678377069

   => Energetics <=

    Nuclear Repulsion Energy =            270.9529183772399392
    One-Electron Energy =               -1015.2424269474920493
    Two-Electron Energy =                 401.0037717864814226
    Total Energy =                       -343.2857367837706875
  Basis Set: (AUG-CC-PVTZ AUX)
    Blend: AUG-CC-PVTZ-RI
    Molecular point group: c1

    Geometry (in Angstrom), charge = -1, multiplicity = 1:

       Center              X                  Y                   Z               Mass
    ------------   -----------------  -----------------  -----------------  -----------------
         O            2.557379603361    -0.816600008552     0.286618782761    15.994914619570
         O            1.752097303361     1.277967091448    -0.056683117239    15.994914619570
         C           -2.248167696639    -0.365163908552    -0.494591117239    12.000000000000
         C           -3.189108696639     0.192966091448     0.578270882761    12.000000000000
         C           -0.854361696639     0.169526091448    -0.353608117239    12.000000000000
         C            0.235407203361    -0.552729908552    -0.106151117239    12.000000000000
         C            1.632186303361     0.020629091448     0.053941882761    12.000000000000
         H           -2.228485696639    -1.460332908552    -0.439804117239     1.007825032230
         H           -2.647264696639    -0.104448908552    -1.484548117239     1.007825032230
         H           -2.838644696639    -0.083843908552     1.576890882761     1.007825032230
         H           -3.232112696639     1.285249091448     0.527409882761     1.007825032230
         H           -4.206016696639    -0.191664908552     0.453357882761     1.007825032230
         H           -0.725436696639     1.249426091448    -0.441131117239     1.007825032230
         H            0.159776303361    -1.649169908552    -0.005784117239     1.007825032230

  Basis Set: AUG-CC-PVTZ
    Blend: AUG-CC-PVTZ
  Basis Set: (AUG-CC-PVTZ AUX)
    Blend: AUG-CC-PVTZ-JKFIT
	 Reference Energy          =    -343.2857367837706875 [Eh]
	 Singles Energy            =      -0.0000000000000000 [Eh]
	 Same-Spin Energy          =      -0.3480661541516241 [Eh]
	 Opposite-Spin Energy      =      -1.1053638878067278 [Eh]
	 Correlation Energy        =      -1.4534300419583519 [Eh]
	 Total Energy              =    -344.7391668257290576 [Eh]

	 ================> DF-SCS-MP2 Energies <==================
	-----------------------------------------------------------
	 SCS Same-Spin Scale       =       0.3333333333333333 [-]
	 SCS Opposite-Spin Scale   =       1.2000000000000000 [-]
	 SCS Same-Spin Energy      =      -0.1160220513838747 [Eh]
	 SCS Opposite-Spin Energy  =      -1.3264366653680733 [Eh]
	 SCS Correlation Energy    =      -1.4424587167519480 [Eh]
	 SCS Total Energy          =    -344.7281955005226450 [Eh]
	-----------------------------------------------------------

  Dipole Moment: [D]
     X:    -9.5400      Y:    -1.1500      Z:    -0.5819     Total:     9.6267

*** Psi4 exiting successfully. Buy a developer a beer!
