                               Psi4 1.3.2 release

  ==> Input File <==

--------------------------------------------------------------------------
#psi4
#
memory 32 gb

molecule  {
-1 1
  O        2.6974490    -0.8132830     0.2843680
  O        1.8995890     1.2895000    -0.0586210
  C       -2.1006760    -0.3536310    -0.4965290
  C       -3.0565879     0.1291404     0.5994072
  C       -0.7068700     0.1810590    -0.3555460
  C        0.3877260    -0.5533690    -0.1060630
  C        1.7796780     0.0321620     0.0520040
  H       -2.1181249    -1.4457765    -0.3980510
  H       -2.4997730    -0.0929160    -1.4864860
  H       -2.6911530    -0.0723110     1.5749530
  H       -3.0846210     1.2967820     0.5254720
  H       -4.0585250    -0.1801320     0.4514200
  H       -0.5779450     1.2609590    -0.4430690
  H        0.3072680    -1.6376370    -0.0077220
units angstrom
no_reorient  #important for SAPT in psi4, default
symmetry c1  #important for SAPT in psi4, default
}

set PROPERTIES_ORIGIN ["COM"]
properties('MP2/aug-cc-pvtz', properties = ['dipole'])
--------------------------------------------------------------------------

    Molecular point group: c1
  Charge       = -1
  Multiplicity = 1
  Basis Set: AUG-CC-PVTZ
    Blend: AUG-CC-PVTZ
  Basis Set: (AUG-CC-PVTZ AUX)
    Blend: AUG-CC-PVTZ-JKFIT

    Orbital Energies [Eh]
    ---------------------

    Doubly Occupied:

       1A    -20.295805     2A    -20.292065     3A    -11.142445
       4A    -11.116140     5A    -11.114472     6A    -11.086243
       7A    -11.070981     8A     -1.162237     9A     -1.061448
      10A     -0.954314    11A     -0.863653    12A     -0.743912
      13A     -0.633287    14A     -0.548823    15A     -0.504917
      16A     -0.481608    17A     -0.446378    18A     -0.420427
      19A     -0.412853    20A     -0.379398    21A     -0.370212
      22A     -0.358529    23A     -0.345852    24A     -0.211763
      25A     -0.209403    26A     -0.205762    27A     -0.191545

  @DF-RHF Final Energy:  -343.27866132028691

   => Energetics <=

    Nuclear Repulsion Energy =            270.7203501022374894
    One-Electron Energy =               -1014.7490790594501959
    Two-Electron Energy =                 400.7500676369257917
    Total Energy =                       -343.2786613202869148
  Basis Set: (AUG-CC-PVTZ AUX)
    Blend: AUG-CC-PVTZ-RI
    Molecular point group: c1

    Geometry (in Angstrom), charge = -1, multiplicity = 1:

       Center              X                  Y                   Z               Mass
    ------------   -----------------  -----------------  -----------------  -----------------
         O            2.552762767695    -0.812914880057     0.282870758995    15.994914619570
         O            1.754902767695     1.289868119943    -0.060118241005    15.994914619570
         C           -2.245362232305    -0.353262880057    -0.498026241005    12.000000000000
         C           -3.201274132305     0.129508519943     0.597909958995    12.000000000000
         C           -0.851556232305     0.181427119943    -0.357043241005    12.000000000000
         C            0.243039767695    -0.553000880057    -0.107560241005    12.000000000000
         C            1.634991767695     0.032530119943     0.050506758995    12.000000000000
         H           -2.262811132305    -1.445408380057    -0.399548241005     1.007825032230
         H           -2.644459232305    -0.092547880057    -1.487983241005     1.007825032230
         H           -2.835839232305    -0.071942880057     1.573455758995     1.007825032230
         H           -3.229307232305     1.297150119943     0.523974758995     1.007825032230
         H           -4.203211232305    -0.179763880057     0.449922758995     1.007825032230
         H           -0.722631232305     1.261327119943    -0.444566241005     1.007825032230
         H            0.162581767695    -1.637268880057    -0.009219241005     1.007825032230

  Basis Set: AUG-CC-PVTZ
    Blend: AUG-CC-PVTZ
  Basis Set: (AUG-CC-PVTZ AUX)
    Blend: AUG-CC-PVTZ-JKFIT
	 Reference Energy          =    -343.2786613202869148 [Eh]
	 Singles Energy            =      -0.0000000000000000 [Eh]
	 Same-Spin Energy          =      -0.3482311259506650 [Eh]
	 Opposite-Spin Energy      =      -1.1059201864193626 [Eh]
	 Correlation Energy        =      -1.4541513123700276 [Eh]
	 Total Energy              =    -344.7328126326569304 [Eh]

	 ================> DF-SCS-MP2 Energies <==================
	-----------------------------------------------------------
	 SCS Same-Spin Scale       =       0.3333333333333333 [-]
	 SCS Opposite-Spin Scale   =       1.2000000000000000 [-]
	 SCS Same-Spin Energy      =      -0.1160770419835550 [Eh]
	 SCS Opposite-Spin Energy  =      -1.3271042237032351 [Eh]
	 SCS Correlation Energy    =      -1.4431812656867902 [Eh]
	 SCS Total Energy          =    -344.7218425859737181 [Eh]
	-----------------------------------------------------------

  Dipole Moment: [D]
     X:    -9.4996      Y:    -1.2570      Z:    -0.5558     Total:     9.5985

*** Psi4 exiting successfully. Buy a developer a beer!
