                               Psi4 1.3.2 release

  ==> Input File <==

--------------------------------------------------------------------------
#psi4
#
memory 32 gb

molecule  {
-1 1
  O        2.6974490    -0.8132830     0.2843680
  O        1.8778082     1.2910677    -0.0621990
  C       -2.1006760    -0.3536310    -0.4965290
  C       -3.0416170     0.2044990     0.5763330
  C       -0.7068700     0.1810590    -0.3555460
  C        0.3781734    -0.5289782    -0.1100723
  C        1.7796780     0.0321620     0.0520040
  H       -2.0809940    -1.4488000    -0.4417420
  H       -2.4997730    -0.0929160    -1.4864860
  H       -2.6911530    -0.0723110     1.5749530
  H       -3.0846210     1.2967820     0.5254720
  H       -4.0585250    -0.1801320     0.4514200
  H       -0.5779450     1.2609590    -0.4430690
  H        0.3072680    -1.6376370    -0.0077220
units angstrom
no_reorient  #important for SAPT in psi4, default
symmetry c1  #important for SAPT in psi4, default
}

set PROPERTIES_ORIGIN ["COM"]
properties('MP2/aug-cc-pvtz', properties = ['dipole'])
--------------------------------------------------------------------------

    Molecular point group: c1
  Charge       = -1
  Multiplicity = 1
  Basis Set: AUG-CC-PVTZ
    Blend: AUG-CC-PVTZ
  Basis Set: (AUG-CC-PVTZ AUX)
    Blend: AUG-CC-PVTZ-JKFIT

    Orbital Energies [Eh]
    ---------------------

    Doubly Occupied:

       1A    -20.297550     2A    -20.292094     3A    -11.142836
       4A    -11.115374     5A    -11.113524     6A    -11.080988
       7A    -11.067681     8A     -1.162329     9A     -1.063259
      10A     -0.954992    11A     -0.864784    12A     -0.742939
      13A     -0.631856    14A     -0.548314    15A     -0.494793
      16A     -0.483706    17A     -0.446877    18A     -0.418867
      19A     -0.408427    20A     -0.382073    21A     -0.377981
      22A     -0.358995    23A     -0.343255    24A     -0.212943
      25A     -0.209077    26A     -0.208584    27A     -0.192412

  @DF-RHF Final Energy:  -343.28540894622523

   => Energetics <=

    Nuclear Repulsion Energy =            271.2488401718426871
    One-Electron Energy =               -1015.8354747783215544
    Two-Electron Energy =                 401.3012256602535786
    Total Energy =                       -343.2854089462252318
  Basis Set: (AUG-CC-PVTZ AUX)
    Blend: AUG-CC-PVTZ-RI
    Molecular point group: c1

    Geometry (in Angstrom), charge = -1, multiplicity = 1:

       Center              X                  Y                   Z               Mass
    ------------   -----------------  -----------------  -----------------  -----------------
         O            2.555245901301    -0.825222676885     0.287174523852    15.994914619570
         O            1.735605101301     1.279128023115    -0.059392476148    15.994914619570
         C           -2.242879098699    -0.365570676885    -0.493722476148    12.000000000000
         C           -3.183820098699     0.192559323115     0.579139523852    12.000000000000
         C           -0.849073098699     0.169119323115    -0.352739476148    12.000000000000
         C            0.235970301301    -0.540917876885    -0.107265776148    12.000000000000
         C            1.637474901301     0.020222323115     0.054810523852    12.000000000000
         H           -2.223197098699    -1.460739676885    -0.438935476148     1.007825032230
         H           -2.641976098699    -0.104855676885    -1.483679476148     1.007825032230
         H           -2.833356098699    -0.084250676885     1.577759523852     1.007825032230
         H           -3.226824098699     1.284842323115     0.528278523852     1.007825032230
         H           -4.200728098699    -0.192071676885     0.454226523852     1.007825032230
         H           -0.720148098699     1.249019323115    -0.440262476148     1.007825032230
         H            0.165064901301    -1.649576676885    -0.004915476148     1.007825032230

  Basis Set: AUG-CC-PVTZ
    Blend: AUG-CC-PVTZ
  Basis Set: (AUG-CC-PVTZ AUX)
    Blend: AUG-CC-PVTZ-JKFIT
	 Reference Energy          =    -343.2854089462252318 [Eh]
	 Singles Energy            =      -0.0000000000000000 [Eh]
	 Same-Spin Energy          =      -0.3480756166517101 [Eh]
	 Opposite-Spin Energy      =      -1.1052759153801359 [Eh]
	 Correlation Energy        =      -1.4533515320318460 [Eh]
	 Total Energy              =    -344.7387604782570634 [Eh]

	 ================> DF-SCS-MP2 Energies <==================
	-----------------------------------------------------------
	 SCS Same-Spin Scale       =       0.3333333333333333 [-]
	 SCS Opposite-Spin Scale   =       1.2000000000000000 [-]
	 SCS Same-Spin Energy      =      -0.1160252055505700 [Eh]
	 SCS Opposite-Spin Energy  =      -1.3263310984561631 [Eh]
	 SCS Correlation Energy    =      -1.4423563040067331 [Eh]
	 SCS Total Energy          =    -344.7277652502319825 [Eh]
	-----------------------------------------------------------

  Dipole Moment: [D]
     X:    -9.4413      Y:    -1.1079      Z:    -0.5727     Total:     9.5233

*** Psi4 exiting successfully. Buy a developer a beer!
