                               Psi4 1.3.2 release

  ==> Input File <==

--------------------------------------------------------------------------
#psi4
#
memory 32 gb

molecule  {
-1 1
  O        2.6974490    -0.8132830     0.2843680
  O        1.8995890     1.2895000    -0.0586210
  C       -2.1006760    -0.3536310    -0.4965290
  C       -3.0416170     0.2044990     0.5763330
  C       -0.7133496     0.1713084    -0.3555458
  C        0.3877260    -0.5533690    -0.1060630
  C        1.7845035     0.0199910     0.0540398
  H       -2.0809940    -1.4488000    -0.4417420
  H       -2.4997730    -0.0929160    -1.4864860
  H       -2.6911530    -0.0723110     1.5749530
  H       -3.0846210     1.2967820     0.5254720
  H       -4.0585250    -0.1801320     0.4514200
  H       -0.5779450     1.2609590    -0.4430690
  H        0.3072680    -1.6376370    -0.0077220
units angstrom
no_reorient  #important for SAPT in psi4, default
symmetry c1  #important for SAPT in psi4, default
}

set PROPERTIES_ORIGIN ["COM"]
properties('MP2/aug-cc-pvtz', properties = ['dipole'])
--------------------------------------------------------------------------

    Molecular point group: c1
  Charge       = -1
  Multiplicity = 1
  Basis Set: AUG-CC-PVTZ
    Blend: AUG-CC-PVTZ
  Basis Set: (AUG-CC-PVTZ AUX)
    Blend: AUG-CC-PVTZ-JKFIT

    Orbital Energies [Eh]
    ---------------------

    Doubly Occupied:

       1A    -20.298535     2A    -20.288801     3A    -11.142325
       4A    -11.115879     5A    -11.113737     6A    -11.085713
       7A    -11.069962     8A     -1.163008     9A     -1.060387
      10A     -0.955480    11A     -0.861979    12A     -0.744932
      13A     -0.632316    14A     -0.548597    15A     -0.495543
      16A     -0.485696    17A     -0.445981    18A     -0.419061
      19A     -0.409417    20A     -0.383028    21A     -0.377666
      22A     -0.358282    23A     -0.345990    24A     -0.213050
      25A     -0.207381    26A     -0.205039    27A     -0.190623

  @DF-RHF Final Energy:  -343.28509751121453

   => Energetics <=

    Nuclear Repulsion Energy =            270.8672407712757035
    One-Electron Energy =               -1015.0678563463903856
    Two-Electron Energy =                 400.9155180639000946
    Total Energy =                       -343.2850975112145306
  Basis Set: (AUG-CC-PVTZ AUX)
    Blend: AUG-CC-PVTZ-RI
    Molecular point group: c1

    Geometry (in Angstrom), charge = -1, multiplicity = 1:

       Center              X                  Y                   Z               Mass
    ------------   -----------------  -----------------  -----------------  -----------------
         O            2.550771512830    -0.819358409661     0.285864271717    15.994914619570
         O            1.752911512830     1.283424590339    -0.057124728283    15.994914619570
         C           -2.247353487170    -0.359706409661    -0.495032728283    12.000000000000
         C           -3.188294487170     0.198423590339     0.577829271717    12.000000000000
         C           -0.860027087170     0.165232990339    -0.354049528283    12.000000000000
         C            0.241048512830    -0.559444409661    -0.104566728283    12.000000000000
         C            1.637826012830     0.013915590339     0.055536071717    12.000000000000
         H           -2.227671487170    -1.454875409661    -0.440245728283     1.007825032230
         H           -2.646450487170    -0.098991409661    -1.484989728283     1.007825032230
         H           -2.837830487170    -0.078386409661     1.576449271717     1.007825032230
         H           -3.231298487170     1.290706590339     0.526968271717     1.007825032230
         H           -4.205202487170    -0.186207409661     0.452916271717     1.007825032230
         H           -0.724622487170     1.254883590339    -0.441572728283     1.007825032230
         H            0.160590512830    -1.643712409661    -0.006225728283     1.007825032230

  Basis Set: AUG-CC-PVTZ
    Blend: AUG-CC-PVTZ
  Basis Set: (AUG-CC-PVTZ AUX)
    Blend: AUG-CC-PVTZ-JKFIT
	 Reference Energy          =    -343.2850975112145306 [Eh]
	 Singles Energy            =      -0.0000000000000000 [Eh]
	 Same-Spin Energy          =      -0.3482368318326177 [Eh]
	 Opposite-Spin Energy      =      -1.1056777459556799 [Eh]
	 Correlation Energy        =      -1.4539145777882976 [Eh]
	 Total Energy              =    -344.7390120890028129 [Eh]

	 ================> DF-SCS-MP2 Energies <==================
	-----------------------------------------------------------
	 SCS Same-Spin Scale       =       0.3333333333333333 [-]
	 SCS Opposite-Spin Scale   =       1.2000000000000000 [-]
	 SCS Same-Spin Energy      =      -0.1160789439442059 [Eh]
	 SCS Opposite-Spin Energy  =      -1.3268132951468159 [Eh]
	 SCS Correlation Energy    =      -1.4428922390910217 [Eh]
	 SCS Total Energy          =    -344.7279897503055395 [Eh]
	-----------------------------------------------------------

  Dipole Moment: [D]
     X:    -9.4689      Y:    -1.2820      Z:    -0.5576     Total:     9.5715

*** Psi4 exiting successfully. Buy a developer a beer!
