                               Psi4 1.3.2 release

  ==> Input File <==

--------------------------------------------------------------------------
#psi4
#
memory 32 gb

molecule  {
-1 1
  O        2.6974490    -0.8132830     0.2843680
  O        1.8995890     1.2895000    -0.0586210
  C       -2.0961843    -0.3657377    -0.4944122
  C       -3.0416170     0.2044990     0.5763330
  C       -0.7068700     0.1810590    -0.3555460
  C        0.3811310    -0.5630400    -0.1058717
  C        1.7796780     0.0321620     0.0520040
  H       -2.0809940    -1.4488000    -0.4417420
  H       -2.4997730    -0.0929160    -1.4864860
  H       -2.6911530    -0.0723110     1.5749530
  H       -3.0846210     1.2967820     0.5254720
  H       -4.0585250    -0.1801320     0.4514200
  H       -0.5779450     1.2609590    -0.4430690
  H        0.3072680    -1.6376370    -0.0077220
units angstrom
no_reorient  #important for SAPT in psi4, default
symmetry c1  #important for SAPT in psi4, default
}

set PROPERTIES_ORIGIN ["COM"]
properties('MP2/aug-cc-pvtz', properties = ['dipole'])
--------------------------------------------------------------------------

    Molecular point group: c1
  Charge       = -1
  Multiplicity = 1
  Basis Set: AUG-CC-PVTZ
    Blend: AUG-CC-PVTZ
  Basis Set: (AUG-CC-PVTZ AUX)
    Blend: AUG-CC-PVTZ-JKFIT

    Orbital Energies [Eh]
    ---------------------

    Doubly Occupied:

       1A    -20.295247     2A    -20.291968     3A    -11.142508
       4A    -11.115648     5A    -11.113366     6A    -11.085229
       7A    -11.069200     8A     -1.161496     9A     -1.060965
      10A     -0.953704    11A     -0.861495    12A     -0.743229
      13A     -0.632751    14A     -0.548549    15A     -0.493498
      16A     -0.487034    17A     -0.445902    18A     -0.419055
      19A     -0.406944    20A     -0.384515    21A     -0.374831
      22A     -0.357343    23A     -0.352401    24A     -0.210206
      25A     -0.209052    26A     -0.204329    27A     -0.191326

  @DF-RHF Final Energy:  -343.28564218312101

   => Energetics <=

    Nuclear Repulsion Energy =            270.7381040518416171
    One-Electron Energy =               -1014.8239105383123615
    Two-Electron Energy =                 400.8001643033497885
    Total Energy =                       -343.2856421831210127
  Basis Set: (AUG-CC-PVTZ AUX)
    Blend: AUG-CC-PVTZ-RI
    Molecular point group: c1

    Geometry (in Angstrom), charge = -1, multiplicity = 1:

       Center              X                  Y                   Z               Mass
    ------------   -----------------  -----------------  -----------------  -----------------
         O            2.550825936794    -0.819375844230     0.285831304752    15.994914619570
         O            1.752965936794     1.283407155770    -0.057157695248    15.994914619570
         C           -2.242807363206    -0.371830544230    -0.492948895248    12.000000000000
         C           -3.188240063206     0.198406155770     0.577796304752    12.000000000000
         C           -0.853493063206     0.174966155770    -0.354082695248    12.000000000000
         C            0.234507936794    -0.569132844230    -0.104408395248    12.000000000000
         C            1.633054936794     0.026069155770     0.053467304752    12.000000000000
         H           -2.227617063206    -1.454892844230    -0.440278695248     1.007825032230
         H           -2.646396063206    -0.099008844230    -1.485022695248     1.007825032230
         H           -2.837776063206    -0.078403844230     1.576416304752     1.007825032230
         H           -3.231244063206     1.290689155770     0.526935304752     1.007825032230
         H           -4.205148063206    -0.186224844230     0.452883304752     1.007825032230
         H           -0.724568063206     1.254866155770    -0.441605695248     1.007825032230
         H            0.160644936794    -1.643729844230    -0.006258695248     1.007825032230

  Basis Set: AUG-CC-PVTZ
    Blend: AUG-CC-PVTZ
  Basis Set: (AUG-CC-PVTZ AUX)
    Blend: AUG-CC-PVTZ-JKFIT
	 Reference Energy          =    -343.2856421831210127 [Eh]
	 Singles Energy            =      -0.0000000000000000 [Eh]
	 Same-Spin Energy          =      -0.3480536497686371 [Eh]
	 Opposite-Spin Energy      =      -1.1054117803561825 [Eh]
	 Correlation Energy        =      -1.4534654301248195 [Eh]
	 Total Energy              =    -344.7391076132458352 [Eh]

	 ================> DF-SCS-MP2 Energies <==================
	-----------------------------------------------------------
	 SCS Same-Spin Scale       =       0.3333333333333333 [-]
	 SCS Opposite-Spin Scale   =       1.2000000000000000 [-]
	 SCS Same-Spin Energy      =      -0.1160178832562124 [Eh]
	 SCS Opposite-Spin Energy  =      -1.3264941364274190 [Eh]
	 SCS Correlation Energy    =      -1.4425120196836314 [Eh]
	 SCS Total Energy          =    -344.7281542028046601 [Eh]
	-----------------------------------------------------------

  Dipole Moment: [D]
     X:    -9.4982      Y:    -1.1752      Z:    -0.5760     Total:     9.5880

*** Psi4 exiting successfully. Buy a developer a beer!
