                               Psi4 1.3.2 release

  ==> Input File <==

--------------------------------------------------------------------------
#psi4
#
memory 32 gb

molecule  {
-1 1
  O        2.6974490    -0.8132830     0.2843680
  O        1.8995890     1.2895000    -0.0586210
  C       -2.1006760    -0.3536310    -0.4965290
  C       -3.1008145     0.1610672     0.5440097
  C       -0.6863096     0.1381672    -0.4179996
  C        0.3877260    -0.5533690    -0.1060630
  C        1.7796780     0.0321620     0.0520040
  H       -2.0809940    -1.4488000    -0.4417420
  H       -2.4997730    -0.0929160    -1.4864860
  H       -2.6911530    -0.0723110     1.5749530
  H       -3.0846210     1.2967820     0.5254720
  H       -4.0585250    -0.1801320     0.4514200
  H       -0.5779450     1.2609590    -0.4430690
  H        0.3072680    -1.6376370    -0.0077220
units angstrom
no_reorient  #important for SAPT in psi4, default
symmetry c1  #important for SAPT in psi4, default
}

set PROPERTIES_ORIGIN ["COM"]
properties('MP2/aug-cc-pvtz', properties = ['dipole'])
--------------------------------------------------------------------------

    Molecular point group: c1
  Charge       = -1
  Multiplicity = 1
  Basis Set: AUG-CC-PVTZ
    Blend: AUG-CC-PVTZ
  Basis Set: (AUG-CC-PVTZ AUX)
    Blend: AUG-CC-PVTZ-JKFIT

    Orbital Energies [Eh]
    ---------------------

    Doubly Occupied:

       1A    -20.296383     2A    -20.292717     3A    -11.143409
       4A    -11.118223     5A    -11.114369     6A    -11.085719
       7A    -11.067966     8A     -1.162830     9A     -1.061982
      10A     -0.954571    11A     -0.869751    12A     -0.747836
      13A     -0.627277    14A     -0.549088    15A     -0.501951
      16A     -0.483468    17A     -0.448691    18A     -0.429032
      19A     -0.402379    20A     -0.380413    21A     -0.373086
      22A     -0.358515    23A     -0.336439    24A     -0.214479
      25A     -0.210649    26A     -0.209764    27A     -0.191978

  @DF-RHF Final Energy:  -343.27487920125168

   => Energetics <=

    Nuclear Repulsion Energy =            270.6532520964062201
    One-Electron Energy =               -1014.5903262177296256
    Two-Electron Energy =                 400.6621949200716699
    Total Energy =                       -343.2748792012516788
  Basis Set: (AUG-CC-PVTZ AUX)
    Blend: AUG-CC-PVTZ-RI
    Molecular point group: c1

    Geometry (in Angstrom), charge = -1, multiplicity = 1:

       Center              X                  Y                   Z               Mass
    ------------   -----------------  -----------------  -----------------  -----------------
         O            2.555252281898    -0.811555622178     0.297593883908    15.994914619570
         O            1.757392281898     1.291227377822    -0.045395116092    15.994914619570
         C           -2.242872718102    -0.351903622178    -0.483303116092    12.000000000000
         C           -3.243011218102     0.162794577822     0.557235583908    12.000000000000
         C           -0.828506318102     0.139894577822    -0.404773716092    12.000000000000
         C            0.245529281898    -0.551641622178    -0.092837116092    12.000000000000
         C            1.637481281898     0.033889377822     0.065229883908    12.000000000000
         H           -2.223190718102    -1.447072622178    -0.428516116092     1.007825032230
         H           -2.641969718102    -0.091188622178    -1.473260116092     1.007825032230
         H           -2.833349718102    -0.070583622178     1.588178883908     1.007825032230
         H           -3.226817718102     1.298509377822     0.538697883908     1.007825032230
         H           -4.200721718102    -0.178404622178     0.464645883908     1.007825032230
         H           -0.720141718102     1.262686377822    -0.429843116092     1.007825032230
         H            0.165071281898    -1.635909622178     0.005503883908     1.007825032230

  Basis Set: AUG-CC-PVTZ
    Blend: AUG-CC-PVTZ
  Basis Set: (AUG-CC-PVTZ AUX)
    Blend: AUG-CC-PVTZ-JKFIT
	 Reference Energy          =    -343.2748792012516788 [Eh]
	 Singles Energy            =      -0.0000000000000000 [Eh]
	 Same-Spin Energy          =      -0.3482426649076684 [Eh]
	 Opposite-Spin Energy      =      -1.1057266394429854 [Eh]
	 Correlation Energy        =      -1.4539693043506539 [Eh]
	 Total Energy              =    -344.7288485056023433 [Eh]

	 ================> DF-SCS-MP2 Energies <==================
	-----------------------------------------------------------
	 SCS Same-Spin Scale       =       0.3333333333333333 [-]
	 SCS Opposite-Spin Scale   =       1.2000000000000000 [-]
	 SCS Same-Spin Energy      =      -0.1160808883025561 [Eh]
	 SCS Opposite-Spin Energy  =      -1.3268719673315825 [Eh]
	 SCS Correlation Energy    =      -1.4429528556341387 [Eh]
	 SCS Total Energy          =    -344.7178320568858112 [Eh]
	-----------------------------------------------------------

  Dipole Moment: [D]
     X:    -9.5318      Y:    -1.2272      Z:    -0.5461     Total:     9.6260

*** Psi4 exiting successfully. Buy a developer a beer!
