                               Psi4 1.3.2 release

  ==> Input File <==

--------------------------------------------------------------------------
#psi4
#
memory 32 gb

molecule  {
-1 1
  O        2.6974490    -0.8132830     0.2843680
  O        1.8995890     1.2895000    -0.0586210
  C       -2.1006760    -0.3536310    -0.4965290
  C       -3.0416170     0.2044990     0.5763330
  C       -0.7197357     0.1614963    -0.3555882
  C        0.3877260    -0.5533690    -0.1060630
  C        1.7796780     0.0321620     0.0520040
  H       -2.0809940    -1.4488000    -0.4417420
  H       -2.4997730    -0.0929160    -1.4864860
  H       -2.6911530    -0.0723110     1.5749530
  H       -3.0846210     1.2967820     0.5254720
  H       -4.0585250    -0.1801320     0.4514200
  H       -0.5779450     1.2609590    -0.4430690
  H        0.2885145    -1.6363605    -0.0108374
units angstrom
no_reorient  #important for SAPT in psi4, default
symmetry c1  #important for SAPT in psi4, default
}

set PROPERTIES_ORIGIN ["COM"]
properties('MP2/aug-cc-pvtz', properties = ['dipole'])
--------------------------------------------------------------------------

    Molecular point group: c1
  Charge       = -1
  Multiplicity = 1
  Basis Set: AUG-CC-PVTZ
    Blend: AUG-CC-PVTZ
  Basis Set: (AUG-CC-PVTZ AUX)
    Blend: AUG-CC-PVTZ-JKFIT

    Orbital Energies [Eh]
    ---------------------

    Doubly Occupied:

       1A    -20.295727     2A    -20.292278     3A    -11.143148
       4A    -11.116205     5A    -11.113635     6A    -11.085780
       7A    -11.070140     8A     -1.162210     9A     -1.061432
      10A     -0.957207    11A     -0.862362    12A     -0.746154
      13A     -0.630297    14A     -0.549784    15A     -0.496568
      16A     -0.485688    17A     -0.446050    18A     -0.418374
      19A     -0.409989    20A     -0.383847    21A     -0.378602
      22A     -0.358278    23A     -0.343794    24A     -0.212246
      25A     -0.209520    26A     -0.204421    27A     -0.191511

  @DF-RHF Final Energy:  -343.28456869376868

   => Energetics <=

    Nuclear Repulsion Energy =            270.9308699976376147
    One-Electron Energy =               -1015.1803809391664117
    Two-Electron Energy =                 400.9649422477601206
    Total Energy =                       -343.2845686937686764
  Basis Set: (AUG-CC-PVTZ AUX)
    Blend: AUG-CC-PVTZ-RI
    Molecular point group: c1

    Geometry (in Angstrom), charge = -1, multiplicity = 1:

       Center              X                  Y                   Z               Mass
    ------------   -----------------  -----------------  -----------------  -----------------
         O            2.552320708241    -0.819657197150     0.286147761951    15.994914619570
         O            1.754460708241     1.283125802850    -0.056841238049    15.994914619570
         C           -2.245804291759    -0.360005197150    -0.494749238049    12.000000000000
         C           -3.186745291759     0.198124802850     0.578112761951    12.000000000000
         C           -0.864863991759     0.155122102850    -0.353808438049    12.000000000000
         C            0.242597708241    -0.559743197150    -0.104283238049    12.000000000000
         C            1.634549708241     0.025787802850     0.053783761951    12.000000000000
         H           -2.226122291759    -1.455174197150    -0.439962238049     1.007825032230
         H           -2.644901291759    -0.099290197150    -1.484706238049     1.007825032230
         H           -2.836281291759    -0.078685197150     1.576732761951     1.007825032230
         H           -3.229749291759     1.290407802850     0.527251761951     1.007825032230
         H           -4.203653291759    -0.186506197150     0.453199761951     1.007825032230
         H           -0.723073291759     1.254584802850    -0.441289238049     1.007825032230
         H            0.143386208241    -1.642734697150    -0.009057638049     1.007825032230

  Basis Set: AUG-CC-PVTZ
    Blend: AUG-CC-PVTZ
  Basis Set: (AUG-CC-PVTZ AUX)
    Blend: AUG-CC-PVTZ-JKFIT
	 Reference Energy          =    -343.2845686937686764 [Eh]
	 Singles Energy            =      -0.0000000000000000 [Eh]
	 Same-Spin Energy          =      -0.3484224702000609 [Eh]
	 Opposite-Spin Energy      =      -1.1059023780705797 [Eh]
	 Correlation Energy        =      -1.4543248482706406 [Eh]
	 Total Energy              =    -344.7388935420393068 [Eh]

	 ================> DF-SCS-MP2 Energies <==================
	-----------------------------------------------------------
	 SCS Same-Spin Scale       =       0.3333333333333333 [-]
	 SCS Opposite-Spin Scale   =       1.2000000000000000 [-]
	 SCS Same-Spin Energy      =      -0.1161408234000203 [Eh]
	 SCS Opposite-Spin Energy  =      -1.3270828536846955 [Eh]
	 SCS Correlation Energy    =      -1.4432236770847158 [Eh]
	 SCS Total Energy          =    -344.7277923708533649 [Eh]
	-----------------------------------------------------------

  Dipole Moment: [D]
     X:    -9.5220      Y:    -1.1624      Z:    -0.5774     Total:     9.6100

*** Psi4 exiting successfully. Buy a developer a beer!
