                               Psi4 1.3.2 release

  ==> Input File <==

--------------------------------------------------------------------------
#psi4
#
memory 32 gb

molecule  {
-1 1
  O        2.6974490    -0.8132830     0.2843680
  O        1.8995890     1.2895000    -0.0586210
  C       -2.1051049    -0.3414505    -0.4983315
  C       -3.0416170     0.2044990     0.5763330
  C       -0.7068700     0.1810590    -0.3555460
  C        0.3877260    -0.5533690    -0.1060630
  C        1.7796780     0.0321620     0.0520040
  H       -2.0809940    -1.4488000    -0.4417420
  H       -2.4997730    -0.0929160    -1.4864860
  H       -2.6911530    -0.0723110     1.5749530
  H       -3.0846210     1.2967820     0.5254720
  H       -4.0585250    -0.1801320     0.4514200
  H       -0.5873147     1.2619228    -0.4444616
  H        0.3072680    -1.6376370    -0.0077220
units angstrom
no_reorient  #important for SAPT in psi4, default
symmetry c1  #important for SAPT in psi4, default
}

set PROPERTIES_ORIGIN ["COM"]
properties('MP2/aug-cc-pvtz', properties = ['dipole'])
--------------------------------------------------------------------------

    Molecular point group: c1
  Charge       = -1
  Multiplicity = 1
  Basis Set: AUG-CC-PVTZ
    Blend: AUG-CC-PVTZ
  Basis Set: (AUG-CC-PVTZ AUX)
    Blend: AUG-CC-PVTZ-JKFIT

    Orbital Energies [Eh]
    ---------------------

    Doubly Occupied:

       1A    -20.295424     2A    -20.291624     3A    -11.142123
       4A    -11.115666     5A    -11.114054     6A    -11.085602
       7A    -11.070477     8A     -1.161836     9A     -1.061046
      10A     -0.954796    11A     -0.862839    12A     -0.743761
      13A     -0.632624    14A     -0.549034    15A     -0.495636
      16A     -0.485578    17A     -0.445891    18A     -0.420355
      19A     -0.410353    20A     -0.381421    21A     -0.376329
      22A     -0.358113    23A     -0.346784    24A     -0.211375
      25A     -0.208978    26A     -0.205105    27A     -0.191181

  @DF-RHF Final Energy:  -343.28539311468865

   => Energetics <=

    Nuclear Repulsion Energy =            270.8595720681151420
    One-Electron Energy =               -1015.0539216174438479
    Two-Electron Energy =                 400.9089564346401175
    Total Energy =                       -343.2853931146886453
  Basis Set: (AUG-CC-PVTZ AUX)
    Blend: AUG-CC-PVTZ-RI
    Molecular point group: c1

    Geometry (in Angstrom), charge = -1, multiplicity = 1:

       Center              X                  Y                   Z               Mass
    ------------   -----------------  -----------------  -----------------  -----------------
         O            2.551203041821    -0.823499943104     0.286343505264    15.994914619570
         O            1.753343041821     1.279283056896    -0.056645494736    15.994914619570
         C           -2.251350858179    -0.351667443104    -0.496355994736    12.000000000000
         C           -3.187862958179     0.194282056896     0.578308505264    12.000000000000
         C           -0.853115958179     0.170842056896    -0.353570494736    12.000000000000
         C            0.241480041821    -0.563585943104    -0.104087494736    12.000000000000
         C            1.633432041821     0.021945056896     0.053979505264    12.000000000000
         H           -2.227239958179    -1.459016943104    -0.439766494736     1.007825032230
         H           -2.646018958179    -0.103132943104    -1.484510494736     1.007825032230
         H           -2.837398958179    -0.082527943104     1.576928505264     1.007825032230
         H           -3.230866958179     1.286565056896     0.527447505264     1.007825032230
         H           -4.204770958179    -0.190348943104     0.453395505264     1.007825032230
         H           -0.733560658179     1.251705856896    -0.442486094736     1.007825032230
         H            0.161022041821    -1.647853943104    -0.005746494736     1.007825032230

  Basis Set: AUG-CC-PVTZ
    Blend: AUG-CC-PVTZ
  Basis Set: (AUG-CC-PVTZ AUX)
    Blend: AUG-CC-PVTZ-JKFIT
	 Reference Energy          =    -343.2853931146886453 [Eh]
	 Singles Energy            =      -0.0000000000000000 [Eh]
	 Same-Spin Energy          =      -0.3481645520832588 [Eh]
	 Opposite-Spin Energy      =      -1.1056307446699416 [Eh]
	 Correlation Energy        =      -1.4537952967532004 [Eh]
	 Total Energy              =    -344.7391884114418303 [Eh]

	 ================> DF-SCS-MP2 Energies <==================
	-----------------------------------------------------------
	 SCS Same-Spin Scale       =       0.3333333333333333 [-]
	 SCS Opposite-Spin Scale   =       1.2000000000000000 [-]
	 SCS Same-Spin Energy      =      -0.1160548506944196 [Eh]
	 SCS Opposite-Spin Energy  =      -1.3267568936039298 [Eh]
	 SCS Correlation Energy    =      -1.4428117442983495 [Eh]
	 SCS Total Energy          =    -344.7282048589869987 [Eh]
	-----------------------------------------------------------

  Dipole Moment: [D]
     X:    -9.5167      Y:    -1.1381      Z:    -0.5806     Total:     9.6020

*** Psi4 exiting successfully. Buy a developer a beer!
