                               Psi4 1.3.2 release

  ==> Input File <==

--------------------------------------------------------------------------
#psi4
#
memory 32 gb

molecule  {
-1 1
  O        2.6974490    -0.8132830     0.2843680
  O        1.8995890     1.2895000    -0.0586210
  C       -2.1006760    -0.3536310    -0.4965290
  C       -3.0416170     0.2044990     0.5763330
  C       -0.7068700     0.1810590    -0.3555460
  C        0.3877260    -0.5533690    -0.1060630
  C        1.7983616    -0.0167940     0.0599389
  H       -2.0809940    -1.4488000    -0.4417420
  H       -2.4997730    -0.0929160    -1.4864860
  H       -2.6911530    -0.0723110     1.5749530
  H       -3.0846210     1.2967820     0.5254720
  H       -4.0585250    -0.1801320     0.4514200
  H       -0.5779450     1.2609590    -0.4430690
  H        0.3448574    -1.6392083    -0.0016748
units angstrom
no_reorient  #important for SAPT in psi4, default
symmetry c1  #important for SAPT in psi4, default
}

set PROPERTIES_ORIGIN ["COM"]
properties('MP2/aug-cc-pvtz', properties = ['dipole'])
--------------------------------------------------------------------------

    Molecular point group: c1
  Charge       = -1
  Multiplicity = 1
  Basis Set: AUG-CC-PVTZ
    Blend: AUG-CC-PVTZ
  Basis Set: (AUG-CC-PVTZ AUX)
    Blend: AUG-CC-PVTZ-JKFIT

    Orbital Energies [Eh]
    ---------------------

    Doubly Occupied:

       1A    -20.307349     2A    -20.279049     3A    -11.140679
       4A    -11.115374     5A    -11.113699     6A    -11.086069
       7A    -11.069732     8A     -1.175196     9A     -1.049836
      10A     -0.953350    11A     -0.860931    12A     -0.743792
      13A     -0.635995    14A     -0.546336    15A     -0.494854
      16A     -0.485196    17A     -0.448723    18A     -0.420591
      19A     -0.408885    20A     -0.381974    21A     -0.376900
      22A     -0.361438    23A     -0.347396    24A     -0.214992
      25A     -0.207830    26A     -0.199588    27A     -0.185672

  @DF-RHF Final Energy:  -343.28127565345807

   => Energetics <=

    Nuclear Repulsion Energy =            270.7895593789113491
    One-Electron Energy =               -1014.9188168668698609
    Two-Electron Energy =                 400.8479818345004446
    Total Energy =                       -343.2812756534580672
  Basis Set: (AUG-CC-PVTZ AUX)
    Blend: AUG-CC-PVTZ-RI
    Molecular point group: c1

    Geometry (in Angstrom), charge = -1, multiplicity = 1:

       Center              X                  Y                   Z               Mass
    ------------   -----------------  -----------------  -----------------  -----------------
         O            2.547924957586    -0.816066999723     0.285088042462    15.994914619570
         O            1.750064957586     1.286716000277    -0.057900957538    15.994914619570
         C           -2.250200042414    -0.356414999723    -0.495808957538    12.000000000000
         C           -3.191141042414     0.201715000277     0.577053042462    12.000000000000
         C           -0.856394042414     0.178275000277    -0.354825957538    12.000000000000
         C            0.238201957586    -0.556152999723    -0.105342957538    12.000000000000
         C            1.648837557586    -0.019577999723     0.060658942462    12.000000000000
         H           -2.230518042414    -1.451583999723    -0.441021957538     1.007825032230
         H           -2.649297042414    -0.095699999723    -1.485765957538     1.007825032230
         H           -2.840677042414    -0.075094999723     1.575673042462     1.007825032230
         H           -3.234145042414     1.293998000277     0.526192042462     1.007825032230
         H           -4.208049042414    -0.182915999723     0.452140042462     1.007825032230
         H           -0.727469042414     1.258175000277    -0.442348957538     1.007825032230
         H            0.195333357586    -1.641992299723    -0.000954757538     1.007825032230

  Basis Set: AUG-CC-PVTZ
    Blend: AUG-CC-PVTZ
  Basis Set: (AUG-CC-PVTZ AUX)
    Blend: AUG-CC-PVTZ-JKFIT
	 Reference Energy          =    -343.2812756534580672 [Eh]
	 Singles Energy            =      -0.0000000000000000 [Eh]
	 Same-Spin Energy          =      -0.3480066688510022 [Eh]
	 Opposite-Spin Energy      =      -1.1054532398621699 [Eh]
	 Correlation Energy        =      -1.4534599087131721 [Eh]
	 Total Energy              =    -344.7347355621712381 [Eh]

	 ================> DF-SCS-MP2 Energies <==================
	-----------------------------------------------------------
	 SCS Same-Spin Scale       =       0.3333333333333333 [-]
	 SCS Opposite-Spin Scale   =       1.2000000000000000 [-]
	 SCS Same-Spin Energy      =      -0.1160022229503340 [Eh]
	 SCS Opposite-Spin Energy  =      -1.3265438878346039 [Eh]
	 SCS Correlation Energy    =      -1.4425461107849380 [Eh]
	 SCS Total Energy          =    -344.7238217642429845 [Eh]
	-----------------------------------------------------------

  Dipole Moment: [D]
     X:    -9.3263      Y:    -1.6527      Z:    -0.4971     Total:     9.4846

*** Psi4 exiting successfully. Buy a developer a beer!
