                               Psi4 1.3.2 release

  ==> Input File <==

--------------------------------------------------------------------------
#psi4
#
memory 32 gb

molecule  {
-1 1
  O        2.6974490    -0.8132830     0.2843680
  O        1.8887027     1.2903318    -0.0604143
  C       -2.1006760    -0.3536310    -0.4965290
  C       -3.0416170     0.2044990     0.5763330
  C       -0.7068700     0.1810590    -0.3555460
  C        0.3828965    -0.5411954    -0.1080737
  C        1.7796780     0.0321620     0.0520040
  H       -2.0809940    -1.4488000    -0.4417420
  H       -2.4997730    -0.0929160    -1.4864860
  H       -2.6911530    -0.0723110     1.5749530
  H       -3.0846210     1.2967820     0.5254720
  H       -4.0585250    -0.1801320     0.4514200
  H       -0.5779450     1.2609590    -0.4430690
  H        0.3072680    -1.6376370    -0.0077220
units angstrom
no_reorient  #important for SAPT in psi4, default
symmetry c1  #important for SAPT in psi4, default
}

set PROPERTIES_ORIGIN ["COM"]
properties('MP2/aug-cc-pvtz', properties = ['dipole'])
--------------------------------------------------------------------------

    Molecular point group: c1
  Charge       = -1
  Multiplicity = 1
  Basis Set: AUG-CC-PVTZ
    Blend: AUG-CC-PVTZ
  Basis Set: (AUG-CC-PVTZ AUX)
    Blend: AUG-CC-PVTZ-JKFIT

    Orbital Energies [Eh]
    ---------------------

    Doubly Occupied:

       1A    -20.296446     2A    -20.291866     3A    -11.142404
       4A    -11.115574     5A    -11.113760     6A    -11.083188
       7A    -11.068836     8A     -1.162054     9A     -1.062134
      10A     -0.954602    11A     -0.863561    12A     -0.743360
      13A     -0.632389    14A     -0.548613    15A     -0.494647
      16A     -0.484931    17A     -0.446401    18A     -0.419017
      19A     -0.408642    20A     -0.382532    21A     -0.376936
      22A     -0.358474    23A     -0.346122    24A     -0.211927
      25A     -0.209001    26A     -0.206854    27A     -0.191800

  @DF-RHF Final Energy:  -343.28587445127334

   => Energetics <=

    Nuclear Repulsion Energy =            271.0491668462709072
    One-Electron Energy =               -1015.4379434975261347
    Two-Electron Energy =                 401.1029021999819406
    Total Energy =                       -343.2858744512733438
  Basis Set: (AUG-CC-PVTZ AUX)
    Blend: AUG-CC-PVTZ-RI
    Molecular point group: c1

    Geometry (in Angstrom), charge = -1, multiplicity = 1:

       Center              X                  Y                   Z               Mass
    ------------   -----------------  -----------------  -----------------  -----------------
         O            2.552914287191    -0.823623629077     0.286644163573    15.994914619570
         O            1.744167987191     1.279991170923    -0.058138136427    15.994914619570
         C           -2.245210712809    -0.363971629077    -0.494252836427    12.000000000000
         C           -3.186151712809     0.194158370923     0.578609163573    12.000000000000
         C           -0.851404712809     0.170718370923    -0.353269836427    12.000000000000
         C            0.238361787191    -0.551536029077    -0.105797536427    12.000000000000
         C            1.635143287191     0.021821370923     0.054280163573    12.000000000000
         H           -2.225528712809    -1.459140629077    -0.439465836427     1.007825032230
         H           -2.644307712809    -0.103256629077    -1.484209836427     1.007825032230
         H           -2.835687712809    -0.082651629077     1.577229163573     1.007825032230
         H           -3.229155712809     1.286441370923     0.527748163573     1.007825032230
         H           -4.203059712809    -0.190472629077     0.453696163573     1.007825032230
         H           -0.722479712809     1.250618370923    -0.440792836427     1.007825032230
         H            0.162733287191    -1.647977629077    -0.005445836427     1.007825032230

  Basis Set: AUG-CC-PVTZ
    Blend: AUG-CC-PVTZ
  Basis Set: (AUG-CC-PVTZ AUX)
    Blend: AUG-CC-PVTZ-JKFIT
	 Reference Energy          =    -343.2858744512733438 [Eh]
	 Singles Energy            =      -0.0000000000000000 [Eh]
	 Same-Spin Energy          =      -0.3481002158799547 [Eh]
	 Opposite-Spin Energy      =      -1.1054006514651031 [Eh]
	 Correlation Energy        =      -1.4535008673450578 [Eh]
	 Total Energy              =    -344.7393753186183858 [Eh]

	 ================> DF-SCS-MP2 Energies <==================
	-----------------------------------------------------------
	 SCS Same-Spin Scale       =       0.3333333333333333 [-]
	 SCS Opposite-Spin Scale   =       1.2000000000000000 [-]
	 SCS Same-Spin Energy      =      -0.1160334052933182 [Eh]
	 SCS Opposite-Spin Energy  =      -1.3264807817581237 [Eh]
	 SCS Correlation Energy    =      -1.4425141870514420 [Eh]
	 SCS Total Energy          =    -344.7283886383247591 [Eh]
	-----------------------------------------------------------

  Dipole Moment: [D]
     X:    -9.4768      Y:    -1.1312      Z:    -0.5758     Total:     9.5615

*** Psi4 exiting successfully. Buy a developer a beer!
