                               Psi4 1.3.2 release

  ==> Input File <==

--------------------------------------------------------------------------
#psi4
#
memory 32 gb

molecule  {
-1 1
  O        2.6974490    -0.8132830     0.2843680
  O        1.8995890     1.2895000    -0.0586210
  C       -2.1006760    -0.3536310    -0.4965290
  C       -3.0416170     0.2044990     0.5763330
  C       -0.7259931     0.2295614    -0.3601537
  C        0.3877260    -0.5533690    -0.1060630
  C        1.7796780     0.0321620     0.0520040
  H       -2.1190047    -1.4490408    -0.4462734
  H       -2.4997730    -0.0929160    -1.4864860
  H       -2.6911530    -0.0723110     1.5749530
  H       -3.0846210     1.2967820     0.5254720
  H       -4.0585250    -0.1801320     0.4514200
  H       -0.5779450     1.2609590    -0.4430690
  H        0.3072680    -1.6376370    -0.0077220
units angstrom
no_reorient  #important for SAPT in psi4, default
symmetry c1  #important for SAPT in psi4, default
}

set PROPERTIES_ORIGIN ["COM"]
properties('MP2/aug-cc-pvtz', properties = ['dipole'])
--------------------------------------------------------------------------

    Molecular point group: c1
  Charge       = -1
  Multiplicity = 1
  Basis Set: AUG-CC-PVTZ
    Blend: AUG-CC-PVTZ
  Basis Set: (AUG-CC-PVTZ AUX)
    Blend: AUG-CC-PVTZ-JKFIT

    Orbital Energies [Eh]
    ---------------------

    Doubly Occupied:

       1A    -20.295328     2A    -20.291428     3A    -11.141579
       4A    -11.114921     5A    -11.114188     6A    -11.088450
       7A    -11.076715     8A     -1.161673     9A     -1.060953
      10A     -0.952783    11A     -0.855342    12A     -0.741866
      13A     -0.641906    14A     -0.547141    15A     -0.492612
      16A     -0.488155    17A     -0.446039    18A     -0.418914
      19A     -0.407804    20A     -0.383002    21A     -0.370674
      22A     -0.362243    23A     -0.357324    24A     -0.210601
      25A     -0.208944    26A     -0.195806    27A     -0.190630

  @DF-RHF Final Energy:  -343.27995439173469

   => Energetics <=

    Nuclear Repulsion Energy =            270.3890933881811520
    One-Electron Energy =               -1014.1040520114403307
    Two-Electron Energy =                 400.4350042315245446
    Total Energy =                       -343.2799543917346909
  Basis Set: (AUG-CC-PVTZ AUX)
    Blend: AUG-CC-PVTZ-RI
    Molecular point group: c1

    Geometry (in Angstrom), charge = -1, multiplicity = 1:

       Center              X                  Y                   Z               Mass
    ------------   -----------------  -----------------  -----------------  -----------------
         O            2.553274790382    -0.827888357560     0.286715315131    15.994914619570
         O            1.755414790382     1.274894642440    -0.056273684869    15.994914619570
         C           -2.244850209618    -0.368236357560    -0.494181684869    12.000000000000
         C           -3.185791209618     0.189893642440     0.578680315131    12.000000000000
         C           -0.870167309618     0.214956042440    -0.357806384869    12.000000000000
         C            0.243551790382    -0.567974357560    -0.103715684869    12.000000000000
         C            1.635503790382     0.017556642440     0.054351315131    12.000000000000
         H           -2.263178909618    -1.463646157560    -0.443926084869     1.007825032230
         H           -2.643947209618    -0.107521357560    -1.484138684869     1.007825032230
         H           -2.835327209618    -0.086916357560     1.577300315131     1.007825032230
         H           -3.228795209618     1.282176642440     0.527819315131     1.007825032230
         H           -4.202699209618    -0.194737357560     0.453767315131     1.007825032230
         H           -0.722119209618     1.246353642440    -0.440721684869     1.007825032230
         H            0.163093790382    -1.652242357560    -0.005374684869     1.007825032230

  Basis Set: AUG-CC-PVTZ
    Blend: AUG-CC-PVTZ
  Basis Set: (AUG-CC-PVTZ AUX)
    Blend: AUG-CC-PVTZ-JKFIT
	 Reference Energy          =    -343.2799543917346909 [Eh]
	 Singles Energy            =      -0.0000000000000000 [Eh]
	 Same-Spin Energy          =      -0.3484962368500478 [Eh]
	 Opposite-Spin Energy      =      -1.1066378697399391 [Eh]
	 Correlation Energy        =      -1.4551341065899868 [Eh]
	 Total Energy              =    -344.7350884983246715 [Eh]

	 ================> DF-SCS-MP2 Energies <==================
	-----------------------------------------------------------
	 SCS Same-Spin Scale       =       0.3333333333333333 [-]
	 SCS Opposite-Spin Scale   =       1.2000000000000000 [-]
	 SCS Same-Spin Energy      =      -0.1161654122833493 [Eh]
	 SCS Opposite-Spin Energy  =      -1.3279654436879269 [Eh]
	 SCS Correlation Energy    =      -1.4441308559712762 [Eh]
	 SCS Total Energy          =    -344.7240852477059434 [Eh]
	-----------------------------------------------------------

  Dipole Moment: [D]
     X:    -9.5061      Y:    -1.1400      Z:    -0.5943     Total:     9.5926

*** Psi4 exiting successfully. Buy a developer a beer!
