                               Psi4 1.3.2 release

  ==> Input File <==

--------------------------------------------------------------------------
#psi4
#
memory 32 gb

molecule  {
-1 1
  O        2.6974490    -0.8132830     0.2843680
  O        1.8995890     1.2895000    -0.0586210
  C       -2.0820759    -0.4018044    -0.4879988
  C       -3.0416170     0.2044990     0.5763330
  C       -0.7068700     0.1810590    -0.3555460
  C        0.3608507    -0.5917100    -0.1054117
  C        1.7796780     0.0321620     0.0520040
  H       -2.0809940    -1.4488000    -0.4417420
  H       -2.4997730    -0.0929160    -1.4864860
  H       -2.6911530    -0.0723110     1.5749530
  H       -3.0846210     1.2967820     0.5254720
  H       -4.0585250    -0.1801320     0.4514200
  H       -0.5779450     1.2609590    -0.4430690
  H        0.3072680    -1.6376370    -0.0077220
units angstrom
no_reorient  #important for SAPT in psi4, default
symmetry c1  #important for SAPT in psi4, default
}

set PROPERTIES_ORIGIN ["COM"]
properties('MP2/aug-cc-pvtz', properties = ['dipole'])
--------------------------------------------------------------------------

    Molecular point group: c1
  Charge       = -1
  Multiplicity = 1
  Basis Set: AUG-CC-PVTZ
    Blend: AUG-CC-PVTZ
  Basis Set: (AUG-CC-PVTZ AUX)
    Blend: AUG-CC-PVTZ-JKFIT

    Orbital Energies [Eh]
    ---------------------

    Doubly Occupied:

       1A    -20.294988     2A    -20.293018     3A    -11.144000
       4A    -11.115415     5A    -11.111836     6A    -11.085089
       7A    -11.066943     8A     -1.160671     9A     -1.060843
      10A     -0.952431    11A     -0.858973    12A     -0.741973
      13A     -0.633740    14A     -0.546410    15A     -0.494652
      16A     -0.486255    17A     -0.446101    18A     -0.420189
      19A     -0.401591    20A     -0.387002    21A     -0.372828
      22A     -0.360762    23A     -0.355479    24A     -0.209871
      25A     -0.206133    26A     -0.203313    27A     -0.191774

  @DF-RHF Final Energy:  -343.28091192250747

   => Energetics <=

    Nuclear Repulsion Energy =            270.4039791603247522
    One-Electron Energy =               -1014.1652265358446812
    Two-Electron Energy =                 400.4803354530124579
    Total Energy =                       -343.2809119225074710
  Basis Set: (AUG-CC-PVTZ AUX)
    Blend: AUG-CC-PVTZ-RI
    Molecular point group: c1

    Geometry (in Angstrom), charge = -1, multiplicity = 1:

       Center              X                  Y                   Z               Mass
    ------------   -----------------  -----------------  -----------------  -----------------
         O            2.551573708976    -0.811532505320     0.284998540560    15.994914619570
         O            1.753713708976     1.291250494680    -0.057990459440    15.994914619570
         C           -2.227951191024    -0.400053905320    -0.487368259440    12.000000000000
         C           -3.187492291024     0.206249494680     0.576963540560    12.000000000000
         C           -0.852745291024     0.182809494680    -0.354915459440    12.000000000000
         C            0.214975408976    -0.589959505320    -0.104781159440    12.000000000000
         C            1.633802708976     0.033912494680     0.052634540560    12.000000000000
         H           -2.226869291024    -1.447049505320    -0.441111459440     1.007825032230
         H           -2.645648291024    -0.091165505320    -1.485855459440     1.007825032230
         H           -2.837028291024    -0.070560505320     1.575583540560     1.007825032230
         H           -3.230496291024     1.298532494680     0.526102540560     1.007825032230
         H           -4.204400291024    -0.178381505320     0.452050540560     1.007825032230
         H           -0.723820291024     1.262709494680    -0.442438459440     1.007825032230
         H            0.161392708976    -1.635886505320    -0.007091459440     1.007825032230

  Basis Set: AUG-CC-PVTZ
    Blend: AUG-CC-PVTZ
  Basis Set: (AUG-CC-PVTZ AUX)
    Blend: AUG-CC-PVTZ-JKFIT
	 Reference Energy          =    -343.2809119225074710 [Eh]
	 Singles Energy            =      -0.0000000000000000 [Eh]
	 Same-Spin Energy          =      -0.3479118397166769 [Eh]
	 Opposite-Spin Energy      =      -1.1052596108297479 [Eh]
	 Correlation Energy        =      -1.4531714505464248 [Eh]
	 Total Energy              =    -344.7340833730539202 [Eh]

	 ================> DF-SCS-MP2 Energies <==================
	-----------------------------------------------------------
	 SCS Same-Spin Scale       =       0.3333333333333333 [-]
	 SCS Opposite-Spin Scale   =       1.2000000000000000 [-]
	 SCS Same-Spin Energy      =      -0.1159706132388923 [Eh]
	 SCS Opposite-Spin Energy  =      -1.3263115329956974 [Eh]
	 SCS Correlation Energy    =      -1.4422821462345896 [Eh]
	 SCS Total Energy          =    -344.7231940687420888 [Eh]
	-----------------------------------------------------------

  Dipole Moment: [D]
     X:    -9.4523      Y:    -1.2322      Z:    -0.5653     Total:     9.5490

*** Psi4 exiting successfully. Buy a developer a beer!
