                               Psi4 1.4a3.dev225

  ==> Input File <==

--------------------------------------------------------------------------
#psi4
#
memory 32 gb

molecule  {
-1 1
  O        2.6993700    -0.8109490     0.2832770
  O        1.8994270     1.2905180    -0.0615170
  C       -2.1001690    -0.3616000    -0.4913260
  C       -3.0433460     0.2119310     0.5709670
  C       -0.7080250     0.1770830    -0.3546910
  C        0.4294313    -0.5814165    -0.0922376
  C        1.7798570     0.0330080     0.0518740
  H       -2.0812530    -1.4558260    -0.4203270
  H       -2.4968010    -0.1155520    -1.4857470
  H       -2.6986290    -0.0550030     1.5741980
  H       -3.0817280     1.3037570     0.5071410
  H       -4.0608920    -0.1705790     0.4451360
  H       -0.5806440     1.2564400    -0.4499950
  H        0.3081890    -1.6372690     0.0045550
units angstrom
no_reorient  #important for SAPT in psi4, default
symmetry c1  #important for SAPT in psi4, default
}

set PROPERTIES_ORIGIN ["COM"]
properties('MP2/aug-cc-pvtz', properties = ['dipole'])
--------------------------------------------------------------------------

    Molecular point group: c1
  Charge       = -1
  Multiplicity = 1
  Basis Set: AUG-CC-PVTZ
    Blend: AUG-CC-PVTZ
  Basis Set: (AUG-CC-PVTZ AUX)
    Blend: AUG-CC-PVTZ-JKFIT

    Orbital Energies [Eh]
    ---------------------

    Doubly Occupied:

       1A    -20.293579     2A    -20.291240     3A    -11.139747
       4A    -11.116396     5A    -11.115104     6A    -11.093615
       7A    -11.074232     8A     -1.162000     9A     -1.060439
      10A     -0.952088    11A     -0.856413    12A     -0.746614
      13A     -0.636486    14A     -0.551356    15A     -0.496368
      16A     -0.486093    17A     -0.444829    18A     -0.418713
      19A     -0.409801    20A     -0.384926    21A     -0.372710
      22A     -0.358436    23A     -0.353173    24A     -0.212629
      25A     -0.208602    26A     -0.193504    27A     -0.190498

  @DF-RHF Final Energy:  -343.27964489267509

   => Energetics <=

    Nuclear Repulsion Energy =            270.5731762054383012
    One-Electron Energy =               -1014.4664593854903387
    Two-Electron Energy =                 400.6136382873770003
    Total Energy =                       -343.2796448926750941
  Basis Set: (AUG-CC-PVTZ AUX)
    Blend: AUG-CC-PVTZ-RI
    Molecular point group: c1

    Geometry (in Angstrom), charge = -1, multiplicity = 1:

       Center              X                  Y                   Z               Mass
    ------------   -----------------  -----------------  -----------------  -----------------
         O            2.547482640066    -0.816379481383     0.283898950674    15.994914619570
         O            1.747539640066     1.285087518617    -0.060895049326    15.994914619570
         C           -2.252056359934    -0.367030481383    -0.490704049326    12.000000000000
         C           -3.195233359934     0.206500518617     0.571588950674    12.000000000000
         C           -0.859912359934     0.171652518617    -0.354069049326    12.000000000000
         C            0.277543940066    -0.586846981383    -0.091615649326    12.000000000000
         C            1.627969640066     0.027577518617     0.052495950674    12.000000000000
         H           -2.233140359934    -1.461256481383    -0.419705049326     1.007825032230
         H           -2.648688359934    -0.120982481383    -1.485125049326     1.007825032230
         H           -2.850516359934    -0.060433481383     1.574819950674     1.007825032230
         H           -3.233615359934     1.298326518617     0.507762950674     1.007825032230
         H           -4.212779359934    -0.176009481383     0.445757950674     1.007825032230
         H           -0.732531359934     1.251009518617    -0.449373049326     1.007825032230
         H            0.156301640066    -1.642699481383     0.005176950674     1.007825032230

  Basis Set: AUG-CC-PVTZ
    Blend: AUG-CC-PVTZ
  Basis Set: (AUG-CC-PVTZ AUX)
    Blend: AUG-CC-PVTZ-JKFIT
	 Reference Energy          =    -343.2796448926750941 [Eh]
	 Singles Energy            =      -0.0000000000000000 [Eh]
	 Same-Spin Energy          =      -0.3488130898166369 [Eh]
	 Opposite-Spin Energy      =      -1.1071060964776989 [Eh]
	 Correlation Energy        =      -1.4559191862943357 [Eh]
	 Total Energy              =    -344.7355640789694462 [Eh]

	 ================> DF-SCS-MP2 Energies <==================
	-----------------------------------------------------------
	 SCS Same-Spin Scale       =       0.3333333333333333 [-]
	 SCS Opposite-Spin Scale   =       1.2000000000000000 [-]
	 SCS Same-Spin Energy      =      -0.1162710299388790 [Eh]
	 SCS Opposite-Spin Energy  =      -1.3285273157732387 [Eh]
	 SCS Correlation Energy    =      -1.4447983457121176 [Eh]
	 SCS Total Energy          =    -344.7244432383872095 [Eh]
	-----------------------------------------------------------

  Dipole Moment: [D]
     X:    -9.5282      Y:    -1.2197      Z:    -0.5641     Total:     9.6225

*** Psi4 exiting successfully. Buy a developer a beer!
