                               Psi4 1.3.2 release

  ==> Input File <==

--------------------------------------------------------------------------
#psi4
#
memory 32 gb

molecule  {
-1 1
  O        2.7122187    -0.7967846     0.2850045
  O        1.9213287     1.2875523    -0.0549803
  C       -2.1006760    -0.3536310    -0.4965290
  C       -3.0416170     0.2044990     0.5763330
  C       -0.7068700     0.1810590    -0.3555460
  C        0.3877260    -0.5533690    -0.1060630
  C        1.7796780     0.0321620     0.0520040
  H       -2.0809940    -1.4488000    -0.4417420
  H       -2.4997730    -0.0929160    -1.4864860
  H       -2.6911530    -0.0723110     1.5749530
  H       -3.0846210     1.2967820     0.5254720
  H       -4.0585250    -0.1801320     0.4514200
  H       -0.5779450     1.2609590    -0.4430690
  H        0.3072680    -1.6376370    -0.0077220
units angstrom
no_reorient  #important for SAPT in psi4, default
symmetry c1  #important for SAPT in psi4, default
}

set PROPERTIES_ORIGIN ["COM"]
properties('MP2/aug-cc-pvtz', properties = ['dipole'])
--------------------------------------------------------------------------

    Molecular point group: c1
  Charge       = -1
  Multiplicity = 1
  Basis Set: AUG-CC-PVTZ
    Blend: AUG-CC-PVTZ
  Basis Set: (AUG-CC-PVTZ AUX)
    Blend: AUG-CC-PVTZ-JKFIT

    Orbital Energies [Eh]
    ---------------------

    Doubly Occupied:

       1A    -20.293283     2A    -20.289671     3A    -11.140992
       4A    -11.116633     5A    -11.115124     6A    -11.087314
       7A    -11.072318     8A     -1.161426     9A     -1.057120
      10A     -0.955554    11A     -0.863931    12A     -0.745063
      13A     -0.634292    14A     -0.549943    15A     -0.495263
      16A     -0.487149    17A     -0.445514    18A     -0.419660
      19A     -0.409730    20A     -0.383172    21A     -0.375152
      22A     -0.356931    23A     -0.350180    24A     -0.212483
      25A     -0.206188    26A     -0.205513    27A     -0.188677

  @DF-RHF Final Energy:  -343.28514658035579

   => Energetics <=

    Nuclear Repulsion Energy =            270.6676640535346792
    One-Electron Energy =               -1014.6690700468293471
    Two-Electron Energy =                 400.7162594129388253
    Total Energy =                       -343.2851465803557858
  Basis Set: (AUG-CC-PVTZ AUX)
    Blend: AUG-CC-PVTZ-RI
    Molecular point group: c1

    Geometry (in Angstrom), charge = -1, multiplicity = 1:

       Center              X                  Y                   Z               Mass
    ------------   -----------------  -----------------  -----------------  -----------------
         O            2.559444828892    -0.807865798788     0.286056714728    15.994914619570
         O            1.768554828892     1.276471101212    -0.053928085272    15.994914619570
         C           -2.253449871108    -0.364712198788    -0.495476785272    12.000000000000
         C           -3.194390871108     0.193417801212     0.577385214728    12.000000000000
         C           -0.859643871108     0.169977801212    -0.354493785272    12.000000000000
         C            0.234952128892    -0.564450198788    -0.105010785272    12.000000000000
         C            1.626904128892     0.021080801212     0.053056214728    12.000000000000
         H           -2.233767871108    -1.459881198788    -0.440689785272     1.007825032230
         H           -2.652546871108    -0.103997198788    -1.485433785272     1.007825032230
         H           -2.843926871108    -0.083392198788     1.576005214728     1.007825032230
         H           -3.237394871108     1.285700801212     0.526524214728     1.007825032230
         H           -4.211298871108    -0.191213198788     0.452472214728     1.007825032230
         H           -0.730718871108     1.249877801212    -0.442016785272     1.007825032230
         H            0.154494128892    -1.648718198788    -0.006669785272     1.007825032230

  Basis Set: AUG-CC-PVTZ
    Blend: AUG-CC-PVTZ
  Basis Set: (AUG-CC-PVTZ AUX)
    Blend: AUG-CC-PVTZ-JKFIT
	 Reference Energy          =    -343.2851465803557858 [Eh]
	 Singles Energy            =      -0.0000000000000000 [Eh]
	 Same-Spin Energy          =      -0.3480869604754243 [Eh]
	 Opposite-Spin Energy      =      -1.1055128739723268 [Eh]
	 Correlation Energy        =      -1.4535998344477510 [Eh]
	 Total Energy              =    -344.7387464148035292 [Eh]

	 ================> DF-SCS-MP2 Energies <==================
	-----------------------------------------------------------
	 SCS Same-Spin Scale       =       0.3333333333333333 [-]
	 SCS Opposite-Spin Scale   =       1.2000000000000000 [-]
	 SCS Same-Spin Energy      =      -0.1160289868251414 [Eh]
	 SCS Opposite-Spin Energy  =      -1.3266154487667920 [Eh]
	 SCS Correlation Energy    =      -1.4426444355919334 [Eh]
	 SCS Total Energy          =    -344.7277910159477301 [Eh]
	-----------------------------------------------------------

  Dipole Moment: [D]
     X:    -9.6368      Y:    -1.1898      Z:    -0.5912     Total:     9.7280

*** Psi4 exiting successfully. Buy a developer a beer!
