                               Psi4 1.3.2 release

  ==> Input File <==

--------------------------------------------------------------------------
#psi4
#
memory 32 gb

molecule  {
-1 1
  O        2.6974490    -0.8132830     0.2843680
  O        1.8995890     1.2895000    -0.0586210
  C       -2.1006760    -0.3536310    -0.4965290
  C       -3.0388699     0.2169156     0.5721996
  C       -0.7068700     0.1810590    -0.3555460
  C        0.3877260    -0.5533690    -0.1060630
  C        1.7796780     0.0321620     0.0520040
  H       -2.0748080    -1.4490122    -0.4490417
  H       -2.4997730    -0.0929160    -1.4864860
  H       -2.6911530    -0.0723110     1.5749530
  H       -3.0846210     1.2967820     0.5254720
  H       -4.0585250    -0.1801320     0.4514200
  H       -0.5779450     1.2609590    -0.4430690
  H        0.3072680    -1.6376370    -0.0077220
units angstrom
no_reorient  #important for SAPT in psi4, default
symmetry c1  #important for SAPT in psi4, default
}

set PROPERTIES_ORIGIN ["COM"]
properties('MP2/aug-cc-pvtz', properties = ['dipole'])
--------------------------------------------------------------------------

    Molecular point group: c1
  Charge       = -1
  Multiplicity = 1
  Basis Set: AUG-CC-PVTZ
    Blend: AUG-CC-PVTZ
  Basis Set: (AUG-CC-PVTZ AUX)
    Blend: AUG-CC-PVTZ-JKFIT

    Orbital Energies [Eh]
    ---------------------

    Doubly Occupied:

       1A    -20.295295     2A    -20.291607     3A    -11.141954
       4A    -11.115971     5A    -11.114035     6A    -11.085282
       7A    -11.069885     8A     -1.161760     9A     -1.060985
      10A     -0.954346    11A     -0.862255    12A     -0.743982
      13A     -0.633008    14A     -0.549005    15A     -0.493835
      16A     -0.486419    17A     -0.446289    18A     -0.419008
      19A     -0.409056    20A     -0.383894    21A     -0.375088
      22A     -0.357907    23A     -0.348826    24A     -0.211176
      25A     -0.208963    26A     -0.204515    27A     -0.191152

  @DF-RHF Final Energy:  -343.28546969768354

   => Energetics <=

    Nuclear Repulsion Energy =            270.8773880971431254
    One-Electron Energy =               -1015.0947213358415411
    Two-Electron Energy =                 400.9318635410148772
    Total Energy =                       -343.2854696976835385
  Basis Set: (AUG-CC-PVTZ AUX)
    Blend: AUG-CC-PVTZ-RI
    Molecular point group: c1

    Geometry (in Angstrom), charge = -1, multiplicity = 1:

       Center              X                  Y                   Z               Mass
    ------------   -----------------  -----------------  -----------------  -----------------
         O            2.550175328859    -0.823516582050     0.286686018856    15.994914619570
         O            1.752315328859     1.279266417950    -0.056302981144    15.994914619570
         C           -2.247949671141    -0.363864582050    -0.494210981144    12.000000000000
         C           -3.186143571141     0.206682017950     0.574517618856    12.000000000000
         C           -0.854143671141     0.170825417950    -0.353227981144    12.000000000000
         C            0.240452328859    -0.563602582050    -0.103744981144    12.000000000000
         C            1.632404328859     0.021928417950     0.054322018856    12.000000000000
         H           -2.222081671141    -1.459245782050    -0.446723681144     1.007825032230
         H           -2.647046671141    -0.103149582050    -1.484167981144     1.007825032230
         H           -2.838426671141    -0.082544582050     1.577271018856     1.007825032230
         H           -3.231894671141     1.286548417950     0.527790018856     1.007825032230
         H           -4.205798671141    -0.190365582050     0.453738018856     1.007825032230
         H           -0.725218671141     1.250725417950    -0.440750981144     1.007825032230
         H            0.159994328859    -1.647870582050    -0.005403981144     1.007825032230

  Basis Set: AUG-CC-PVTZ
    Blend: AUG-CC-PVTZ
  Basis Set: (AUG-CC-PVTZ AUX)
    Blend: AUG-CC-PVTZ-JKFIT
	 Reference Energy          =    -343.2854696976835385 [Eh]
	 Singles Energy            =      -0.0000000000000000 [Eh]
	 Same-Spin Energy          =      -0.3481541135159492 [Eh]
	 Opposite-Spin Energy      =      -1.1055747441310055 [Eh]
	 Correlation Energy        =      -1.4537288576469547 [Eh]
	 Total Energy              =    -344.7391985553305176 [Eh]

	 ================> DF-SCS-MP2 Energies <==================
	-----------------------------------------------------------
	 SCS Same-Spin Scale       =       0.3333333333333333 [-]
	 SCS Opposite-Spin Scale   =       1.2000000000000000 [-]
	 SCS Same-Spin Energy      =      -0.1160513711719831 [Eh]
	 SCS Opposite-Spin Energy  =      -1.3266896929572065 [Eh]
	 SCS Correlation Energy    =      -1.4427410641291896 [Eh]
	 SCS Total Energy          =    -344.7282107618127043 [Eh]
	-----------------------------------------------------------

  Dipole Moment: [D]
     X:    -9.5105      Y:    -1.1380      Z:    -0.5840     Total:     9.5961

*** Psi4 exiting successfully. Buy a developer a beer!
