                               Psi4 1.3.2 release

  ==> Input File <==

--------------------------------------------------------------------------
#psi4
#
memory 32 gb

molecule  {
-1 1
  O        2.6974490    -0.8132830     0.2843680
  O        1.8995890     1.2895000    -0.0586210
  C       -2.1006760    -0.3536310    -0.4965290
  C       -3.0416170     0.2044990     0.5763330
  C       -0.7114924     0.1932480    -0.3566820
  C        0.3877260    -0.5533690    -0.1060630
  C        1.7796780     0.0321620     0.0520040
  H       -2.0904962    -1.4489853    -0.4428688
  H       -2.4997730    -0.0929160    -1.4864860
  H       -2.6911530    -0.0723110     1.5749530
  H       -3.0846210     1.2967820     0.5254720
  H       -4.0585250    -0.1801320     0.4514200
  H       -0.5779450     1.2609590    -0.4430690
  H        0.3072680    -1.6376370    -0.0077220
units angstrom
no_reorient  #important for SAPT in psi4, default
symmetry c1  #important for SAPT in psi4, default
}

set PROPERTIES_ORIGIN ["COM"]
properties('MP2/aug-cc-pvtz', properties = ['dipole'])
--------------------------------------------------------------------------

    Molecular point group: c1
  Charge       = -1
  Multiplicity = 1
  Basis Set: AUG-CC-PVTZ
    Blend: AUG-CC-PVTZ
  Basis Set: (AUG-CC-PVTZ AUX)
    Blend: AUG-CC-PVTZ-JKFIT

    Orbital Energies [Eh]
    ---------------------

    Doubly Occupied:

       1A    -20.295331     2A    -20.291589     3A    -11.141880
       4A    -11.115539     5A    -11.114016     6A    -11.086125
       7A    -11.071672     8A     -1.161766     9A     -1.061005
      10A     -0.953806    11A     -0.860549    12A     -0.743289
      13A     -0.635065    14A     -0.548560    15A     -0.494052
      16A     -0.486504    17A     -0.445953    18A     -0.419069
      19A     -0.408612    20A     -0.382791    21A     -0.374615
      22A     -0.357813    23A     -0.352659    24A     -0.211079
      25A     -0.208986    26A     -0.202328    27A     -0.191131

  @DF-RHF Final Energy:  -343.28511324909528

   => Energetics <=

    Nuclear Repulsion Energy =            270.7360129756010565
    One-Electron Energy =               -1014.8106823908932483
    Two-Electron Energy =                 400.7895561661969168
    Total Energy =                       -343.2851132490952750
  Basis Set: (AUG-CC-PVTZ AUX)
    Blend: AUG-CC-PVTZ-RI
    Molecular point group: c1

    Geometry (in Angstrom), charge = -1, multiplicity = 1:

       Center              X                  Y                   Z               Mass
    ------------   -----------------  -----------------  -----------------  -----------------
         O            2.551227834053    -0.823489280315     0.286260049129    15.994914619570
         O            1.753367834053     1.279293719685    -0.056728950871    15.994914619570
         C           -2.246897165947    -0.363837280315    -0.494636950871    12.000000000000
         C           -3.187838165947     0.194292719685     0.578225049129    12.000000000000
         C           -0.857713565947     0.183041719685    -0.354789950871    12.000000000000
         C            0.241504834053    -0.563575280315    -0.104170950871    12.000000000000
         C            1.633456834053     0.021955719685     0.053896049129    12.000000000000
         H           -2.236717365947    -1.459191580315    -0.440976750871     1.007825032230
         H           -2.645994165947    -0.103122280315    -1.484593950871     1.007825032230
         H           -2.837374165947    -0.082517280315     1.576845049129     1.007825032230
         H           -3.230842165947     1.286575719685     0.527364049129     1.007825032230
         H           -4.204746165947    -0.190338280315     0.453312049129     1.007825032230
         H           -0.724166165947     1.250752719685    -0.441176950871     1.007825032230
         H            0.161046834053    -1.647843280315    -0.005829950871     1.007825032230

  Basis Set: AUG-CC-PVTZ
    Blend: AUG-CC-PVTZ
  Basis Set: (AUG-CC-PVTZ AUX)
    Blend: AUG-CC-PVTZ-JKFIT
	 Reference Energy          =    -343.2851132490952750 [Eh]
	 Singles Energy            =      -0.0000000000000000 [Eh]
	 Same-Spin Energy          =      -0.3482058537201201 [Eh]
	 Opposite-Spin Energy      =      -1.1057767029281642 [Eh]
	 Correlation Energy        =      -1.4539825566482842 [Eh]
	 Total Energy              =    -344.7390958057435455 [Eh]

	 ================> DF-SCS-MP2 Energies <==================
	-----------------------------------------------------------
	 SCS Same-Spin Scale       =       0.3333333333333333 [-]
	 SCS Opposite-Spin Scale   =       1.2000000000000000 [-]
	 SCS Same-Spin Energy      =      -0.1160686179067067 [Eh]
	 SCS Opposite-Spin Energy  =      -1.3269320435137970 [Eh]
	 SCS Correlation Energy    =      -1.4430006614205038 [Eh]
	 SCS Total Energy          =    -344.7281139105157877 [Eh]
	-----------------------------------------------------------

  Dipole Moment: [D]
     X:    -9.5105      Y:    -1.1488      Z:    -0.5829     Total:     9.5973

*** Psi4 exiting successfully. Buy a developer a beer!
