                               Psi4 1.3.2 release

  ==> Input File <==

--------------------------------------------------------------------------
#psi4
#
memory 32 gb

molecule  {
-1 1
  O        2.6974490    -0.8132830     0.2843680
  O        1.8995890     1.2895000    -0.0586210
  C       -2.1006760    -0.3536310    -0.4965290
  C       -3.0416170     0.2044990     0.5763330
  C       -0.7068700     0.1810590    -0.3555460
  C        0.3877260    -0.5533690    -0.1060630
  C        1.5963264    -0.0449657     0.0311830
  H       -2.0809940    -1.4488000    -0.4417420
  H       -2.4997730    -0.0929160    -1.4864860
  H       -2.6911530    -0.0723110     1.5749530
  H       -3.0846210     1.2967820     0.5254720
  H       -4.0585250    -0.1801320     0.4514200
  H       -0.5779450     1.2609590    -0.4430690
  H        0.3072680    -1.6376370    -0.0077220
units angstrom
no_reorient  #important for SAPT in psi4, default
symmetry c1  #important for SAPT in psi4, default
}

set PROPERTIES_ORIGIN ["COM"]
properties('MP2/aug-cc-pvtz', properties = ['dipole'])
--------------------------------------------------------------------------

    Molecular point group: c1
  Charge       = -1
  Multiplicity = 1
  Basis Set: AUG-CC-PVTZ
    Blend: AUG-CC-PVTZ
  Basis Set: (AUG-CC-PVTZ AUX)
    Blend: AUG-CC-PVTZ-JKFIT

    Orbital Energies [Eh]
    ---------------------

    Doubly Occupied:

       1A    -20.290281     2A    -20.281334     3A    -11.140798
       4A    -11.127747     5A    -11.126606     6A    -11.112361
       7A    -11.072364     8A     -1.108338     9A     -0.995659
      10A     -0.971782    11A     -0.895218    12A     -0.776684
      13A     -0.672400    14A     -0.575730    15A     -0.506147
      16A     -0.502755    17A     -0.436212    18A     -0.431219
      19A     -0.415666    20A     -0.389821    21A     -0.367287
      22A     -0.338383    23A     -0.321448    24A     -0.222287
      25A     -0.205270    26A     -0.175264    27A     -0.163031

  @DF-RHF Final Energy:  -343.21306867870953

   => Energetics <=

    Nuclear Repulsion Energy =            271.0974293909030735
    One-Electron Energy =               -1015.3768174940495328
    Two-Electron Energy =                 401.0663194244368697
    Total Energy =                       -343.2130686787095328
  Basis Set: (AUG-CC-PVTZ AUX)
    Blend: AUG-CC-PVTZ-RI
    Molecular point group: c1

    Geometry (in Angstrom), charge = -1, multiplicity = 1:

       Center              X                  Y                   Z               Mass
    ------------   -----------------  -----------------  -----------------  -----------------
         O            2.572785533804    -0.812669774742     0.288633569464    15.994914619570
         O            1.774925533804     1.290113225258    -0.054355430536    15.994914619570
         C           -2.225339466196    -0.353017774742    -0.492263430536    12.000000000000
         C           -3.166280466196     0.205112225258     0.580598569464    12.000000000000
         C           -0.831533466196     0.181672225258    -0.351280430536    12.000000000000
         C            0.263062533804    -0.552755774742    -0.101797430536    12.000000000000
         C            1.471662933804    -0.044352474742     0.035448569464    12.000000000000
         H           -2.205657466196    -1.448186774742    -0.437476430536     1.007825032230
         H           -2.624436466196    -0.092302774742    -1.482220430536     1.007825032230
         H           -2.815816466196    -0.071697774742     1.579218569464     1.007825032230
         H           -3.209284466196     1.297395225258     0.529737569464     1.007825032230
         H           -4.183188466196    -0.179518774742     0.455685569464     1.007825032230
         H           -0.702608466196     1.261572225258    -0.438803430536     1.007825032230
         H            0.182604533804    -1.637023774742    -0.003456430536     1.007825032230

  Basis Set: AUG-CC-PVTZ
    Blend: AUG-CC-PVTZ
  Basis Set: (AUG-CC-PVTZ AUX)
    Blend: AUG-CC-PVTZ-JKFIT
	 Reference Energy          =    -343.2130686787095328 [Eh]
	 Singles Energy            =      -0.0000000000000000 [Eh]
	 Same-Spin Energy          =      -0.3547936856249164 [Eh]
	 Opposite-Spin Energy      =      -1.1191501855523793 [Eh]
	 Correlation Energy        =      -1.4739438711772959 [Eh]
	 Total Energy              =    -344.6870125498868447 [Eh]

	 ================> DF-SCS-MP2 Energies <==================
	-----------------------------------------------------------
	 SCS Same-Spin Scale       =       0.3333333333333333 [-]
	 SCS Opposite-Spin Scale   =       1.2000000000000000 [-]
	 SCS Same-Spin Energy      =      -0.1182645618749721 [Eh]
	 SCS Opposite-Spin Energy  =      -1.3429802226628551 [Eh]
	 SCS Correlation Energy    =      -1.4612447845378274 [Eh]
	 SCS Total Energy          =    -344.6743134632473584 [Eh]
	-----------------------------------------------------------

  Dipole Moment: [D]
     X:   -10.5629      Y:    -1.5107      Z:    -0.6722     Total:    10.6915

*** Psi4 exiting successfully. Buy a developer a beer!
