                               Psi4 1.4a3.dev225

  ==> Input File <==

--------------------------------------------------------------------------
#psi4
#
memory 32 gb

molecule  {
-1 1
  O        2.6993700    -0.8109490     0.2832770
  O        1.8994270     1.2905180    -0.0615170
  C       -2.1001690    -0.3616000    -0.4913260
  C       -3.0433460     0.2119310     0.5709670
  C       -0.7080250     0.1770830    -0.3546910
  C        0.3885780    -0.5541740    -0.1016640
  C        1.7845709     0.0825842     0.0474037
  H       -2.0812530    -1.4558260    -0.4203270
  H       -2.4968010    -0.1155520    -1.4857470
  H       -2.6986290    -0.0550030     1.5741980
  H       -3.0817280     1.3037570     0.5071410
  H       -4.0608920    -0.1705790     0.4451360
  H       -0.5806440     1.2564400    -0.4499950
  H        0.3081890    -1.6372690     0.0045550
units angstrom
no_reorient  #important for SAPT in psi4, default
symmetry c1  #important for SAPT in psi4, default
}

set PROPERTIES_ORIGIN ["COM"]
properties('MP2/aug-cc-pvtz', properties = ['dipole'])
--------------------------------------------------------------------------

    Molecular point group: c1
  Charge       = -1
  Multiplicity = 1
  Basis Set: AUG-CC-PVTZ
    Blend: AUG-CC-PVTZ
  Basis Set: (AUG-CC-PVTZ AUX)
    Blend: AUG-CC-PVTZ-JKFIT

    Orbital Energies [Eh]
    ---------------------

    Doubly Occupied:

       1A    -20.303546     2A    -20.286307     3A    -11.142105
       4A    -11.114848     5A    -11.112588     6A    -11.082539
       7A    -11.068783     8A     -1.177656     9A     -1.060745
      10A     -0.953006    11A     -0.860116    12A     -0.740910
      13A     -0.627352    14A     -0.547237    15A     -0.494548
      16A     -0.484992    17A     -0.450958    18A     -0.417034
      19A     -0.408264    20A     -0.385135    21A     -0.376769
      22A     -0.364773    23A     -0.350102    24A     -0.214852
      25A     -0.204486    26A     -0.203572    27A     -0.192339

  @DF-RHF Final Energy:  -343.28417283924227

   => Energetics <=

    Nuclear Repulsion Energy =            270.9469241178469474
    One-Electron Energy =               -1015.2110655528340430
    Two-Electron Energy =                 400.9799685957448219
    Total Energy =                       -343.2841728392422738
  Basis Set: (AUG-CC-PVTZ AUX)
    Blend: AUG-CC-PVTZ-RI
    Molecular point group: c1

    Geometry (in Angstrom), charge = -1, multiplicity = 1:

       Center              X                  Y                   Z               Mass
    ------------   -----------------  -----------------  -----------------  -----------------
         O            2.551861200638    -0.825686645614     0.285582640572    15.994914619570
         O            1.751918200638     1.275780354386    -0.059211359428    15.994914619570
         C           -2.247677799362    -0.376337645614    -0.489020359428    12.000000000000
         C           -3.190854799362     0.197193354386     0.573272640572    12.000000000000
         C           -0.855533799362     0.162345354386    -0.352385359428    12.000000000000
         C            0.241069200638    -0.568911645614    -0.099358359428    12.000000000000
         C            1.637062100638     0.067846554386     0.049709340572    12.000000000000
         H           -2.228761799362    -1.470563645614    -0.418021359428     1.007825032230
         H           -2.644309799362    -0.130289645614    -1.483441359428     1.007825032230
         H           -2.846137799362    -0.069740645614     1.576503640572     1.007825032230
         H           -3.229236799362     1.289019354386     0.509446640572     1.007825032230
         H           -4.208400799362    -0.185316645614     0.447441640572     1.007825032230
         H           -0.728152799362     1.241702354386    -0.447689359428     1.007825032230
         H            0.160680200638    -1.652006645614     0.006860640572     1.007825032230

  Basis Set: AUG-CC-PVTZ
    Blend: AUG-CC-PVTZ
  Basis Set: (AUG-CC-PVTZ AUX)
    Blend: AUG-CC-PVTZ-JKFIT
	 Reference Energy          =    -343.2841728392422738 [Eh]
	 Singles Energy            =      -0.0000000000000000 [Eh]
	 Same-Spin Energy          =      -0.3478164055581737 [Eh]
	 Opposite-Spin Energy      =      -1.1047094478062713 [Eh]
	 Correlation Energy        =      -1.4525258533644450 [Eh]
	 Total Energy              =    -344.7366986926066943 [Eh]

	 ================> DF-SCS-MP2 Energies <==================
	-----------------------------------------------------------
	 SCS Same-Spin Scale       =       0.3333333333333333 [-]
	 SCS Opposite-Spin Scale   =       1.2000000000000000 [-]
	 SCS Same-Spin Energy      =      -0.1159388018527246 [Eh]
	 SCS Opposite-Spin Energy  =      -1.3256513373675256 [Eh]
	 SCS Correlation Energy    =      -1.4415901392202501 [Eh]
	 SCS Total Energy          =    -344.7257629784625124 [Eh]
	-----------------------------------------------------------

  Dipole Moment: [D]
     X:    -9.5199      Y:    -0.7019      Z:    -0.6232     Total:     9.5660

*** Psi4 exiting successfully. Buy a developer a beer!
