                               Psi4 1.3.2 release

  ==> Input File <==

--------------------------------------------------------------------------
#psi4
#
memory 32 gb

molecule  {
-1 1
  O        2.6974490    -0.8132830     0.2843680
  O        1.8995890     1.2895000    -0.0586210
  C       -2.1006760    -0.3536310    -0.4965290
  C       -3.0416170     0.2044990     0.5763330
  C       -0.7068700     0.1810590    -0.3555460
  C        0.3877260    -0.5533690    -0.1060630
  C        1.7845088     0.0199876     0.0540062
  H       -2.0809940    -1.4488000    -0.4417420
  H       -2.4997730    -0.0929160    -1.4864860
  H       -2.6911530    -0.0723110     1.5749530
  H       -3.0846210     1.2967820     0.5254720
  H       -4.0585250    -0.1801320     0.4514200
  H       -0.5779450     1.2609590    -0.4430690
  H        0.3166580    -1.6381538    -0.0061987
units angstrom
no_reorient  #important for SAPT in psi4, default
symmetry c1  #important for SAPT in psi4, default
}

set PROPERTIES_ORIGIN ["COM"]
properties('MP2/aug-cc-pvtz', properties = ['dipole'])
--------------------------------------------------------------------------

    Molecular point group: c1
  Charge       = -1
  Multiplicity = 1
  Basis Set: AUG-CC-PVTZ
    Blend: AUG-CC-PVTZ
  Basis Set: (AUG-CC-PVTZ AUX)
    Blend: AUG-CC-PVTZ-JKFIT

    Orbital Energies [Eh]
    ---------------------

    Doubly Occupied:

       1A    -20.298356     2A    -20.288497     3A    -11.141761
       4A    -11.115668     5A    -11.113918     6A    -11.085540
       7A    -11.069916     8A     -1.162822     9A     -1.060192
      10A     -0.954018    11A     -0.861991    12A     -0.743776
      13A     -0.633679    14A     -0.548216    15A     -0.494591
      16A     -0.485851    17A     -0.445962    18A     -0.419608
      19A     -0.408822    20A     -0.382692    21A     -0.376215
      22A     -0.358141    23A     -0.348328    24A     -0.212609
      25A     -0.207072    26A     -0.205178    27A     -0.190467

  @DF-RHF Final Energy:  -343.28547408630828

   => Energetics <=

    Nuclear Repulsion Energy =            270.8289778453091117
    One-Electron Energy =               -1015.0011317458807980
    Two-Electron Energy =                 400.8866798142633456
    Total Energy =                       -343.2854740863082839
  Basis Set: (AUG-CC-PVTZ AUX)
    Blend: AUG-CC-PVTZ-RI
    Molecular point group: c1

    Geometry (in Angstrom), charge = -1, multiplicity = 1:

       Center              X                  Y                   Z               Mass
    ------------   -----------------  -----------------  -----------------  -----------------
         O            2.549890270712    -0.820534097692     0.285852866554    15.994914619570
         O            1.752030270712     1.282248902308    -0.057136133446    15.994914619570
         C           -2.248234729288    -0.360882097692    -0.495044133446    12.000000000000
         C           -3.189175729288     0.197247902308     0.577817866554    12.000000000000
         C           -0.854428729288     0.173807902308    -0.354061133446    12.000000000000
         C            0.240167270712    -0.560620097692    -0.104578133446    12.000000000000
         C            1.636950070712     0.012736502308     0.055491066554    12.000000000000
         H           -2.228552729288    -1.456051097692    -0.440257133446     1.007825032230
         H           -2.647331729288    -0.100167097692    -1.485001133446     1.007825032230
         H           -2.838711729288    -0.079562097692     1.576437866554     1.007825032230
         H           -3.232179729288     1.289530902308     0.526956866554     1.007825032230
         H           -4.206083729288    -0.187383097692     0.452904866554     1.007825032230
         H           -0.725503729288     1.253707902308    -0.441584133446     1.007825032230
         H            0.169099270712    -1.645404897692    -0.004713833446     1.007825032230

  Basis Set: AUG-CC-PVTZ
    Blend: AUG-CC-PVTZ
  Basis Set: (AUG-CC-PVTZ AUX)
    Blend: AUG-CC-PVTZ-JKFIT
	 Reference Energy          =    -343.2854740863082839 [Eh]
	 Singles Energy            =      -0.0000000000000000 [Eh]
	 Same-Spin Energy          =      -0.3481034037404167 [Eh]
	 Opposite-Spin Energy      =      -1.1055220940494876 [Eh]
	 Correlation Energy        =      -1.4536254977899044 [Eh]
	 Total Energy              =    -344.7390995840981986 [Eh]

	 ================> DF-SCS-MP2 Energies <==================
	-----------------------------------------------------------
	 SCS Same-Spin Scale       =       0.3333333333333333 [-]
	 SCS Opposite-Spin Scale   =       1.2000000000000000 [-]
	 SCS Same-Spin Energy      =      -0.1160344679134722 [Eh]
	 SCS Opposite-Spin Energy  =      -1.3266265128593850 [Eh]
	 SCS Correlation Energy    =      -1.4426609807728572 [Eh]
	 SCS Total Energy          =    -344.7281350670811548 [Eh]
	-----------------------------------------------------------

  Dipole Moment: [D]
     X:    -9.4630      Y:    -1.2774      Z:    -0.5582     Total:     9.5652

*** Psi4 exiting successfully. Buy a developer a beer!
