                               Psi4 1.3.2 release

  ==> Input File <==

--------------------------------------------------------------------------
#psi4
#
memory 32 gb

molecule  {
-1 1
  O        2.6974490    -0.8132830     0.2843680
  O        1.8995890     1.2895000    -0.0586210
  C       -2.1006760    -0.3536310    -0.4965290
  C       -3.0416170     0.2044990     0.5763330
  C       -0.7003070     0.1907536    -0.3555272
  C        0.3877260    -0.5533690    -0.1060630
  C        1.7747465     0.0442884     0.0499562
  H       -2.0809940    -1.4488000    -0.4417420
  H       -2.4997730    -0.0929160    -1.4864860
  H       -2.6911530    -0.0723110     1.5749530
  H       -3.0846210     1.2967820     0.5254720
  H       -4.0585250    -0.1801320     0.4514200
  H       -0.5779450     1.2609590    -0.4430690
  H        0.3072680    -1.6376370    -0.0077220
units angstrom
no_reorient  #important for SAPT in psi4, default
symmetry c1  #important for SAPT in psi4, default
}

set PROPERTIES_ORIGIN ["COM"]
properties('MP2/aug-cc-pvtz', properties = ['dipole'])
--------------------------------------------------------------------------

    Molecular point group: c1
  Charge       = -1
  Multiplicity = 1
  Basis Set: AUG-CC-PVTZ
    Blend: AUG-CC-PVTZ
  Basis Set: (AUG-CC-PVTZ AUX)
    Blend: AUG-CC-PVTZ-JKFIT

    Orbital Energies [Eh]
    ---------------------

    Doubly Occupied:

       1A    -20.294525     2A    -20.292182     3A    -11.141646
       4A    -11.115680     5A    -11.114254     6A    -11.085109
       7A    -11.070125     8A     -1.162413     9A     -1.060164
      10A     -0.953047    11A     -0.862778    12A     -0.742705
      13A     -0.633721    14A     -0.549380    15A     -0.493959
      16A     -0.486192    17A     -0.446475    18A     -0.419348
      19A     -0.408391    20A     -0.383003    21A     -0.374207
      22A     -0.358166    23A     -0.351323    24A     -0.210854
      25A     -0.208689    26A     -0.204705    27A     -0.191145

  @DF-RHF Final Energy:  -343.28549546657695

   => Energetics <=

    Nuclear Repulsion Energy =            270.8452592897517093
    One-Electron Energy =               -1015.0331404764093577
    Two-Electron Energy =                 400.9023857200807583
    Total Energy =                       -343.2854954665769469
  Basis Set: (AUG-CC-PVTZ AUX)
    Blend: AUG-CC-PVTZ-RI
    Molecular point group: c1

    Geometry (in Angstrom), charge = -1, multiplicity = 1:

       Center              X                  Y                   Z               Mass
    ------------   -----------------  -----------------  -----------------  -----------------
         O            2.550373437638    -0.824658155193     0.286356777091    15.994914619570
         O            1.752513437638     1.278124844807    -0.056632222909    15.994914619570
         C           -2.247751562362    -0.365006155193    -0.494540222909    12.000000000000
         C           -3.188692562362     0.193123844807     0.578321777091    12.000000000000
         C           -0.847382562362     0.179378444807    -0.353538422909    12.000000000000
         C            0.240650437638    -0.564744155193    -0.104074222909    12.000000000000
         C            1.627670937638     0.032913244807     0.051944977091    12.000000000000
         H           -2.228069562362    -1.460175155193    -0.439753222909     1.007825032230
         H           -2.646848562362    -0.104291155193    -1.484497222909     1.007825032230
         H           -2.838228562362    -0.083686155193     1.576941777091     1.007825032230
         H           -3.231696562362     1.285406844807     0.527460777091     1.007825032230
         H           -4.205600562362    -0.191507155193     0.453408777091     1.007825032230
         H           -0.725020562362     1.249583844807    -0.441080222909     1.007825032230
         H            0.160192437638    -1.649012155193    -0.005733222909     1.007825032230

  Basis Set: AUG-CC-PVTZ
    Blend: AUG-CC-PVTZ
  Basis Set: (AUG-CC-PVTZ AUX)
    Blend: AUG-CC-PVTZ-JKFIT
	 Reference Energy          =    -343.2854954665769469 [Eh]
	 Singles Energy            =      -0.0000000000000000 [Eh]
	 Same-Spin Energy          =      -0.3480593516845702 [Eh]
	 Opposite-Spin Energy      =      -1.1054777954254447 [Eh]
	 Correlation Energy        =      -1.4535371471100149 [Eh]
	 Total Energy              =    -344.7390326136869589 [Eh]

	 ================> DF-SCS-MP2 Energies <==================
	-----------------------------------------------------------
	 SCS Same-Spin Scale       =       0.3333333333333333 [-]
	 SCS Opposite-Spin Scale   =       1.2000000000000000 [-]
	 SCS Same-Spin Energy      =      -0.1160197838948567 [Eh]
	 SCS Opposite-Spin Energy  =      -1.3265733545105336 [Eh]
	 SCS Correlation Energy    =      -1.4425931384053903 [Eh]
	 SCS Total Energy          =    -344.7280886049823607 [Eh]
	-----------------------------------------------------------

  Dipole Moment: [D]
     X:    -9.5536      Y:    -1.0245      Z:    -0.6001     Total:     9.6271

*** Psi4 exiting successfully. Buy a developer a beer!
