                               Psi4 1.3.2 release

  ==> Input File <==

--------------------------------------------------------------------------
#psi4
#
memory 32 gb

molecule  {
-1 1
  O        2.7122232    -0.7967875     0.2849760
  O        1.8995890     1.2895000    -0.0586210
  C       -2.1006760    -0.3536310    -0.4965290
  C       -3.0416170     0.2044990     0.5763330
  C       -0.7068700     0.1810590    -0.3555460
  C        0.3781782    -0.5289814    -0.1101028
  C        1.7796780     0.0321620     0.0520040
  H       -2.0809940    -1.4488000    -0.4417420
  H       -2.4997730    -0.0929160    -1.4864860
  H       -2.6911530    -0.0723110     1.5749530
  H       -3.0846210     1.2967820     0.5254720
  H       -4.0585250    -0.1801320     0.4514200
  H       -0.5779450     1.2609590    -0.4430690
  H        0.3072680    -1.6376370    -0.0077220
units angstrom
no_reorient  #important for SAPT in psi4, default
symmetry c1  #important for SAPT in psi4, default
}

set PROPERTIES_ORIGIN ["COM"]
properties('MP2/aug-cc-pvtz', properties = ['dipole'])
--------------------------------------------------------------------------

    Molecular point group: c1
  Charge       = -1
  Multiplicity = 1
  Basis Set: AUG-CC-PVTZ
    Blend: AUG-CC-PVTZ
  Basis Set: (AUG-CC-PVTZ AUX)
    Blend: AUG-CC-PVTZ-JKFIT

    Orbital Energies [Eh]
    ---------------------

    Doubly Occupied:

       1A    -20.295505     2A    -20.290137     3A    -11.141814
       4A    -11.116229     5A    -11.114650     6A    -11.082908
       7A    -11.070003     8A     -1.161901     9A     -1.059405
      10A     -0.956320    11A     -0.866344    12A     -0.744189
      13A     -0.633164    14A     -0.549331    15A     -0.495458
      16A     -0.484788    17A     -0.446418    18A     -0.419264
      19A     -0.409224    20A     -0.382291    21A     -0.377364
      22A     -0.357944    23A     -0.344634    24A     -0.212462
      25A     -0.210532    26A     -0.206965    27A     -0.189983

  @DF-RHF Final Energy:  -343.28513190022363

   => Energetics <=

    Nuclear Repulsion Energy =            271.0561105029386226
    One-Electron Energy =               -1015.4440298758192966
    Two-Electron Energy =                 401.1027874726570417
    Total Energy =                       -343.2851319002236323
  Basis Set: (AUG-CC-PVTZ AUX)
    Blend: AUG-CC-PVTZ-RI
    Molecular point group: c1

    Geometry (in Angstrom), charge = -1, multiplicity = 1:

       Center              X                  Y                   Z               Mass
    ------------   -----------------  -----------------  -----------------  -----------------
         O            2.564116178447    -0.811137509964     0.287110213503    15.994914619570
         O            1.751481978447     1.275149990036    -0.056486786497    15.994914619570
         C           -2.248783021553    -0.367981009964    -0.494394786497    12.000000000000
         C           -3.189724021553     0.190148990036     0.578467213503    12.000000000000
         C           -0.854977021553     0.166708990036    -0.353411786497    12.000000000000
         C            0.230071178447    -0.543331409964    -0.107968586497    12.000000000000
         C            1.631570978447     0.017811990036     0.054138213503    12.000000000000
         H           -2.229101021553    -1.463150009964    -0.439607786497     1.007825032230
         H           -2.647880021553    -0.107266009964    -1.484351786497     1.007825032230
         H           -2.839260021553    -0.086661009964     1.577087213503     1.007825032230
         H           -3.232728021553     1.282431990036     0.527606213503     1.007825032230
         H           -4.206632021553    -0.194482009964     0.453554213503     1.007825032230
         H           -0.726052021553     1.246608990036    -0.440934786497     1.007825032230
         H            0.159160978447    -1.651987009964    -0.005587786497     1.007825032230

  Basis Set: AUG-CC-PVTZ
    Blend: AUG-CC-PVTZ
  Basis Set: (AUG-CC-PVTZ AUX)
    Blend: AUG-CC-PVTZ-JKFIT
	 Reference Energy          =    -343.2851319002236323 [Eh]
	 Singles Energy            =      -0.0000000000000000 [Eh]
	 Same-Spin Energy          =      -0.3480072249466241 [Eh]
	 Opposite-Spin Energy      =      -1.1052014980768936 [Eh]
	 Correlation Energy        =      -1.4532087230235176 [Eh]
	 Total Energy              =    -344.7383406232471543 [Eh]

	 ================> DF-SCS-MP2 Energies <==================
	-----------------------------------------------------------
	 SCS Same-Spin Scale       =       0.3333333333333333 [-]
	 SCS Opposite-Spin Scale   =       1.2000000000000000 [-]
	 SCS Same-Spin Energy      =      -0.1160024083155413 [Eh]
	 SCS Opposite-Spin Energy  =      -1.3262417976922722 [Eh]
	 SCS Correlation Energy    =      -1.4422442060078136 [Eh]
	 SCS Total Energy          =    -344.7273761062314179 [Eh]
	-----------------------------------------------------------

  Dipole Moment: [D]
     X:    -9.5675      Y:    -1.1459      Z:    -0.5849     Total:     9.6536

*** Psi4 exiting successfully. Buy a developer a beer!
