                               Psi4 1.3.2 release

  ==> Input File <==

--------------------------------------------------------------------------
#psi4
#
memory 32 gb

molecule  {
-1 1
  O        2.6974490    -0.8132830     0.2843680
  O        1.8995890     1.2895000    -0.0586210
  C       -2.1006760    -0.3536310    -0.4965290
  C       -3.0416170     0.2044990     0.5763330
  C       -0.6139179     0.2167172    -0.3461439
  C        0.3877260    -0.5533690    -0.1060630
  C        1.7796780     0.0321620     0.0520040
  H       -2.0809940    -1.4488000    -0.4417420
  H       -2.4997730    -0.0929160    -1.4864860
  H       -2.6911530    -0.0723110     1.5749530
  H       -3.0846210     1.2967820     0.5254720
  H       -4.0585250    -0.1801320     0.4514200
  H       -0.5779450     1.2609590    -0.4430690
  H        0.3072680    -1.6376370    -0.0077220
units angstrom
no_reorient  #important for SAPT in psi4, default
symmetry c1  #important for SAPT in psi4, default
}

set PROPERTIES_ORIGIN ["COM"]
properties('MP2/aug-cc-pvtz', properties = ['dipole'])
--------------------------------------------------------------------------

    Molecular point group: c1
  Charge       = -1
  Multiplicity = 1
  Basis Set: AUG-CC-PVTZ
    Blend: AUG-CC-PVTZ
  Basis Set: (AUG-CC-PVTZ AUX)
    Blend: AUG-CC-PVTZ-JKFIT

    Orbital Energies [Eh]
    ---------------------

    Doubly Occupied:

       1A    -20.293998     2A    -20.290502     3A    -11.139371
       4A    -11.115134     5A    -11.114179     6A    -11.080083
       7A    -11.061363     8A     -1.161098     9A     -1.060221
      10A     -0.944878    11A     -0.873210    12A     -0.734055
      13A     -0.635395    14A     -0.551372    15A     -0.490320
      16A     -0.483572    17A     -0.448505    18A     -0.426196
      19A     -0.403977    20A     -0.380724    21A     -0.375305
      22A     -0.358681    23A     -0.335873    24A     -0.219104
      25A     -0.208519    26A     -0.207236    27A     -0.190645

  @DF-RHF Final Energy:  -343.27821686846761

   => Energetics <=

    Nuclear Repulsion Energy =            271.1248875695901006
    One-Electron Energy =               -1015.6391766575794691
    Two-Electron Energy =                 401.2360722195217591
    Total Energy =                       -343.2782168684676094
  Basis Set: (AUG-CC-PVTZ AUX)
    Blend: AUG-CC-PVTZ-RI
    Molecular point group: c1

    Geometry (in Angstrom), charge = -1, multiplicity = 1:

       Center              X                  Y                   Z               Mass
    ------------   -----------------  -----------------  -----------------  -----------------
         O            2.539309258969    -0.826334636218     0.284971813208    15.994914619570
         O            1.741449258969     1.276448363782    -0.058017186792    15.994914619570
         C           -2.258815741031    -0.366682636218    -0.495925186792    12.000000000000
         C           -3.199756741031     0.191447363782     0.576936813208    12.000000000000
         C           -0.772057641031     0.203665563782    -0.345540086792    12.000000000000
         C            0.229586258969    -0.566420636218    -0.105459186792    12.000000000000
         C            1.621538258969     0.019110363782     0.052607813208    12.000000000000
         H           -2.239133741031    -1.461851636218    -0.441138186792     1.007825032230
         H           -2.657912741031    -0.105967636218    -1.485882186792     1.007825032230
         H           -2.849292741031    -0.085362636218     1.575556813208     1.007825032230
         H           -3.242760741031     1.283730363782     0.526075813208     1.007825032230
         H           -4.216664741031    -0.193183636218     0.452023813208     1.007825032230
         H           -0.736084741031     1.247907363782    -0.442465186792     1.007825032230
         H            0.149128258969    -1.650688636218    -0.007118186792     1.007825032230

  Basis Set: AUG-CC-PVTZ
    Blend: AUG-CC-PVTZ
  Basis Set: (AUG-CC-PVTZ AUX)
    Blend: AUG-CC-PVTZ-JKFIT
	 Reference Energy          =    -343.2782168684676094 [Eh]
	 Singles Energy            =      -0.0000000000000000 [Eh]
	 Same-Spin Energy          =      -0.3470406607549207 [Eh]
	 Opposite-Spin Energy      =      -1.1039197088654906 [Eh]
	 Correlation Energy        =      -1.4509603696204114 [Eh]
	 Total Energy              =    -344.7291772380880275 [Eh]

	 ================> DF-SCS-MP2 Energies <==================
	-----------------------------------------------------------
	 SCS Same-Spin Scale       =       0.3333333333333333 [-]
	 SCS Opposite-Spin Scale   =       1.2000000000000000 [-]
	 SCS Same-Spin Energy      =      -0.1156802202516402 [Eh]
	 SCS Opposite-Spin Energy  =      -1.3247036506385887 [Eh]
	 SCS Correlation Energy    =      -1.4403838708902290 [Eh]
	 SCS Total Energy          =    -344.7186007393578393 [Eh]
	-----------------------------------------------------------

  Dipole Moment: [D]
     X:    -9.4246      Y:    -1.1115      Z:    -0.5703     Total:     9.5070

*** Psi4 exiting successfully. Buy a developer a beer!
