                               Psi4 1.3.2 release

  ==> Input File <==

--------------------------------------------------------------------------
#psi4
#
memory 32 gb

molecule  {
-1 1
  O        2.6974490    -0.8132830     0.2843680
  O        1.8995890     1.2895000    -0.0586210
  C       -2.1006760    -0.3536310    -0.4965290
  C       -3.0416170     0.2044990     0.5763330
  C       -0.7068700     0.1810590    -0.3555460
  C        0.3877260    -0.5533690    -0.1060630
  C        1.7796780     0.0321620     0.0520040
  H       -2.0809940    -1.4488000    -0.4417420
  H       -2.4997730    -0.0929160    -1.4864860
  H       -2.6911530    -0.0723110     1.5749530
  H       -3.0846210     1.2967820     0.5254720
  H       -4.0585250    -0.1801320     0.4514200
  H       -0.5779450     1.2609590    -0.4430690
  H        0.2411534    -1.7126148    -0.0104038
units angstrom
no_reorient  #important for SAPT in psi4, default
symmetry c1  #important for SAPT in psi4, default
}

set PROPERTIES_ORIGIN ["COM"]
properties('MP2/aug-cc-pvtz', properties = ['dipole'])
--------------------------------------------------------------------------

    Molecular point group: c1
  Charge       = -1
  Multiplicity = 1
  Basis Set: AUG-CC-PVTZ
    Blend: AUG-CC-PVTZ
  Basis Set: (AUG-CC-PVTZ AUX)
    Blend: AUG-CC-PVTZ-JKFIT

    Orbital Energies [Eh]
    ---------------------

    Doubly Occupied:

       1A    -20.295742     2A    -20.293590     3A    -11.144679
       4A    -11.115861     5A    -11.114088     6A    -11.085892
       7A    -11.079764     8A     -1.162913     9A     -1.062116
      10A     -0.954283    11A     -0.861177    12A     -0.742456
      13A     -0.629497    14A     -0.548457    15A     -0.494701
      16A     -0.479234    17A     -0.446559    18A     -0.416312
      19A     -0.408276    20A     -0.381861    21A     -0.376141
      22A     -0.359149    23A     -0.343695    24A     -0.212641
      25A     -0.210163    26A     -0.205499    27A     -0.192157

  @DF-RHF Final Energy:  -343.28024482351583

   => Energetics <=

    Nuclear Repulsion Energy =            270.4942457133862490
    One-Electron Energy =               -1014.3151738412910845
    Two-Electron Energy =                 400.5406833043890060
    Total Energy =                       -343.2802448235158295
  Basis Set: (AUG-CC-PVTZ AUX)
    Blend: AUG-CC-PVTZ-RI
    Molecular point group: c1

    Geometry (in Angstrom), charge = -1, multiplicity = 1:

       Center              X                  Y                   Z               Mass
    ------------   -----------------  -----------------  -----------------  -----------------
         O            2.551243853036    -0.821251442576     0.286138237021    15.994914619570
         O            1.753383853036     1.281531557424    -0.056850762979    15.994914619570
         C           -2.246881146964    -0.361599442576    -0.494758762979    12.000000000000
         C           -3.187822146964     0.196530557424     0.578103237021    12.000000000000
         C           -0.853075146964     0.173090557424    -0.353775762979    12.000000000000
         C            0.241520853036    -0.561337442576    -0.104292762979    12.000000000000
         C            1.633472853036     0.024193557424     0.053774237021    12.000000000000
         H           -2.227199146964    -1.456768442576    -0.439971762979     1.007825032230
         H           -2.645978146964    -0.100884442576    -1.484715762979     1.007825032230
         H           -2.837358146964    -0.080279442576     1.576723237021     1.007825032230
         H           -3.230826146964     1.288813557424     0.527242237021     1.007825032230
         H           -4.204730146964    -0.188100442576     0.453190237021     1.007825032230
         H           -0.724150146964     1.252990557424    -0.441298762979     1.007825032230
         H            0.094948253036    -1.720583242576    -0.008633562979     1.007825032230

  Basis Set: AUG-CC-PVTZ
    Blend: AUG-CC-PVTZ
  Basis Set: (AUG-CC-PVTZ AUX)
    Blend: AUG-CC-PVTZ-JKFIT
	 Reference Energy          =    -343.2802448235158295 [Eh]
	 Singles Energy            =      -0.0000000000000000 [Eh]
	 Same-Spin Energy          =      -0.3484239996232981 [Eh]
	 Opposite-Spin Energy      =      -1.1063734351493906 [Eh]
	 Correlation Energy        =      -1.4547974347726886 [Eh]
	 Total Energy              =    -344.7350422582885017 [Eh]

	 ================> DF-SCS-MP2 Energies <==================
	-----------------------------------------------------------
	 SCS Same-Spin Scale       =       0.3333333333333333 [-]
	 SCS Opposite-Spin Scale   =       1.2000000000000000 [-]
	 SCS Same-Spin Energy      =      -0.1161413332077660 [Eh]
	 SCS Opposite-Spin Energy  =      -1.3276481221792686 [Eh]
	 SCS Correlation Energy    =      -1.4437894553870347 [Eh]
	 SCS Total Energy          =    -344.7240342789028773 [Eh]
	-----------------------------------------------------------

  Dipole Moment: [D]
     X:    -9.4797      Y:    -1.0672      Z:    -0.5823     Total:     9.5574

*** Psi4 exiting successfully. Buy a developer a beer!
