                               Psi4 1.3.2 release

  ==> Input File <==

--------------------------------------------------------------------------
#psi4
#
memory 32 gb

molecule  {
-1 1
  O        2.6974490    -0.8132830     0.2843680
  O        1.8995890     1.2895000    -0.0586210
  C       -2.1006760    -0.3536310    -0.4965290
  C       -3.0442925     0.1920399     0.5803847
  C       -0.7068700     0.1810590    -0.3555460
  C        0.3877260    -0.5533690    -0.1060630
  C        1.7796780     0.0321620     0.0520040
  H       -2.0871815    -1.4485044    -0.4344465
  H       -2.4997730    -0.0929160    -1.4864860
  H       -2.6911530    -0.0723110     1.5749530
  H       -3.0846210     1.2967820     0.5254720
  H       -4.0585250    -0.1801320     0.4514200
  H       -0.5779450     1.2609590    -0.4430690
  H        0.3072680    -1.6376370    -0.0077220
units angstrom
no_reorient  #important for SAPT in psi4, default
symmetry c1  #important for SAPT in psi4, default
}

set PROPERTIES_ORIGIN ["COM"]
properties('MP2/aug-cc-pvtz', properties = ['dipole'])
--------------------------------------------------------------------------

    Molecular point group: c1
  Charge       = -1
  Multiplicity = 1
  Basis Set: AUG-CC-PVTZ
    Blend: AUG-CC-PVTZ
  Basis Set: (AUG-CC-PVTZ AUX)
    Blend: AUG-CC-PVTZ-JKFIT

    Orbital Energies [Eh]
    ---------------------

    Doubly Occupied:

       1A    -20.295418     2A    -20.291716     3A    -11.142069
       4A    -11.115653     5A    -11.113998     6A    -11.085513
       7A    -11.070159     8A     -1.161874     9A     -1.061095
      10A     -0.954177    11A     -0.862504    12A     -0.743690
      13A     -0.632950    14A     -0.548927    15A     -0.495893
      16A     -0.485372    17A     -0.445748    18A     -0.419421
      19A     -0.408996    20A     -0.381609    21A     -0.376560
      22A     -0.358062    23A     -0.348749    24A     -0.211320
      25A     -0.209067    26A     -0.204840    27A     -0.191244

  @DF-RHF Final Energy:  -343.28555012129470

   => Energetics <=

    Nuclear Repulsion Energy =            270.8292889139032695
    One-Electron Energy =               -1014.9964284236425556
    Two-Electron Energy =                 400.8815893884445813
    Total Energy =                       -343.2855501212947047
  Basis Set: (AUG-CC-PVTZ AUX)
    Blend: AUG-CC-PVTZ-RI
    Molecular point group: c1

    Geometry (in Angstrom), charge = -1, multiplicity = 1:

       Center              X                  Y                   Z               Mass
    ------------   -----------------  -----------------  -----------------  -----------------
         O            2.550958223833    -0.820507870691     0.285545819362    15.994914619570
         O            1.753098223833     1.282275129309    -0.057443180638    15.994914619570
         C           -2.247166776167    -0.360855870691    -0.495351180638    12.000000000000
         C           -3.190783276167     0.184815029309     0.581562519362    12.000000000000
         C           -0.853360776167     0.173834129309    -0.354368180638    12.000000000000
         C            0.241235223833    -0.560593870691    -0.104885180638    12.000000000000
         C            1.633187223833     0.024937129309     0.053181819362    12.000000000000
         H           -2.233672276167    -1.455729270691    -0.433268680638     1.007825032230
         H           -2.646263776167    -0.100140870691    -1.485308180638     1.007825032230
         H           -2.837643776167    -0.079535870691     1.576130819362     1.007825032230
         H           -3.231111776167     1.289557129309     0.526649819362     1.007825032230
         H           -4.205015776167    -0.187356870691     0.452597819362     1.007825032230
         H           -0.724435776167     1.253734129309    -0.441891180638     1.007825032230
         H            0.160777223833    -1.644861870691    -0.006544180638     1.007825032230

  Basis Set: AUG-CC-PVTZ
    Blend: AUG-CC-PVTZ
  Basis Set: (AUG-CC-PVTZ AUX)
    Blend: AUG-CC-PVTZ-JKFIT
	 Reference Energy          =    -343.2855501212947047 [Eh]
	 Singles Energy            =      -0.0000000000000000 [Eh]
	 Same-Spin Energy          =      -0.3481379408976065 [Eh]
	 Opposite-Spin Energy      =      -1.1055721430984280 [Eh]
	 Correlation Energy        =      -1.4537100839960346 [Eh]
	 Total Energy              =    -344.7392602052907478 [Eh]

	 ================> DF-SCS-MP2 Energies <==================
	-----------------------------------------------------------
	 SCS Same-Spin Scale       =       0.3333333333333333 [-]
	 SCS Opposite-Spin Scale   =       1.2000000000000000 [-]
	 SCS Same-Spin Energy      =      -0.1160459802992022 [Eh]
	 SCS Opposite-Spin Energy  =      -1.3266865717181135 [Eh]
	 SCS Correlation Energy    =      -1.4427325520173158 [Eh]
	 SCS Total Energy          =    -344.7282826733120373 [Eh]
	-----------------------------------------------------------

  Dipole Moment: [D]
     X:    -9.5109      Y:    -1.1688      Z:    -0.5741     Total:     9.5996

*** Psi4 exiting successfully. Buy a developer a beer!
