                               Psi4 1.3.2 release

  ==> Input File <==

--------------------------------------------------------------------------
#psi4
#
memory 32 gb

molecule  {
-1 1
  O        2.6974490    -0.8132830     0.2843680
  O        1.8995890     1.2895000    -0.0586210
  C       -2.1006760    -0.3536310    -0.4965290
  C       -3.0240670     0.2783278     0.5503182
  C       -0.7068700     0.1810590    -0.3555460
  C        0.3877260    -0.5533690    -0.1060630
  C        1.7796780     0.0321620     0.0520040
  H       -2.0439171    -1.4488217    -0.4855832
  H       -2.4997730    -0.0929160    -1.4864860
  H       -2.6911530    -0.0723110     1.5749530
  H       -3.0846210     1.2967820     0.5254720
  H       -4.0585250    -0.1801320     0.4514200
  H       -0.5779450     1.2609590    -0.4430690
  H        0.3072680    -1.6376370    -0.0077220
units angstrom
no_reorient  #important for SAPT in psi4, default
symmetry c1  #important for SAPT in psi4, default
}

set PROPERTIES_ORIGIN ["COM"]
properties('MP2/aug-cc-pvtz', properties = ['dipole'])
--------------------------------------------------------------------------

    Molecular point group: c1
  Charge       = -1
  Multiplicity = 1
  Basis Set: AUG-CC-PVTZ
    Blend: AUG-CC-PVTZ
  Basis Set: (AUG-CC-PVTZ AUX)
    Blend: AUG-CC-PVTZ-JKFIT

    Orbital Energies [Eh]
    ---------------------

    Doubly Occupied:

       1A    -20.295072     2A    -20.291419     3A    -11.141761
       4A    -11.118006     5A    -11.114692     6A    -11.084867
       7A    -11.069352     8A     -1.161560     9A     -1.060792
      10A     -0.955317    11A     -0.862229    12A     -0.745969
      13A     -0.633616    14A     -0.549187    15A     -0.497612
      16A     -0.483167    17A     -0.450451    18A     -0.419720
      19A     -0.411079    20A     -0.382315    21A     -0.369709
      22A     -0.357544    23A     -0.347894    24A     -0.210906
      25A     -0.208786    26A     -0.203817    27A     -0.190994

  @DF-RHF Final Energy:  -343.27714740642114

   => Energetics <=

    Nuclear Repulsion Energy =            271.0120473280292117
    One-Electron Energy =               -1015.3427229763474315
    Two-Electron Energy =                 401.0535282418970837
    Total Energy =                       -343.2771474064211361
  Basis Set: (AUG-CC-PVTZ AUX)
    Blend: AUG-CC-PVTZ-RI
    Molecular point group: c1

    Geometry (in Angstrom), charge = -1, multiplicity = 1:

       Center              X                  Y                   Z               Mass
    ------------   -----------------  -----------------  -----------------  -----------------
         O            2.548067516692    -0.830959071165     0.289708942114    15.994914619570
         O            1.750207516692     1.271823928835    -0.053280057886    15.994914619570
         C           -2.250057483308    -0.371307071165    -0.491188057886    12.000000000000
         C           -3.173448483308     0.260651728835     0.555659142114    12.000000000000
         C           -0.856251483308     0.163382928835    -0.350205057886    12.000000000000
         C            0.238344516692    -0.571045071165    -0.100722057886    12.000000000000
         C            1.630296516692     0.014485928835     0.057344942114    12.000000000000
         H           -2.193298583308    -1.466497771165    -0.480242257886     1.007825032230
         H           -2.649154483308    -0.110592071165    -1.481145057886     1.007825032230
         H           -2.840534483308    -0.089987071165     1.580293942114     1.007825032230
         H           -3.234002483308     1.279105928835     0.530812942114     1.007825032230
         H           -4.207906483308    -0.197808071165     0.456760942114     1.007825032230
         H           -0.727326483308     1.243282928835    -0.437728057886     1.007825032230
         H            0.157886516692    -1.655313071165    -0.002381057886     1.007825032230

  Basis Set: AUG-CC-PVTZ
    Blend: AUG-CC-PVTZ
  Basis Set: (AUG-CC-PVTZ AUX)
    Blend: AUG-CC-PVTZ-JKFIT
	 Reference Energy          =    -343.2771474064211361 [Eh]
	 Singles Energy            =      -0.0000000000000000 [Eh]
	 Same-Spin Energy          =      -0.3483315616840081 [Eh]
	 Opposite-Spin Energy      =      -1.1059564964614652 [Eh]
	 Correlation Energy        =      -1.4542880581454734 [Eh]
	 Total Energy              =    -344.7314354645666299 [Eh]

	 ================> DF-SCS-MP2 Energies <==================
	-----------------------------------------------------------
	 SCS Same-Spin Scale       =       0.3333333333333333 [-]
	 SCS Opposite-Spin Scale   =       1.2000000000000000 [-]
	 SCS Same-Spin Energy      =      -0.1161105205613360 [Eh]
	 SCS Opposite-Spin Energy  =      -1.3271477957537583 [Eh]
	 SCS Correlation Energy    =      -1.4432583163150943 [Eh]
	 SCS Total Energy          =    -344.7204057227362455 [Eh]
	-----------------------------------------------------------

  Dipole Moment: [D]
     X:    -9.4962      Y:    -1.0723      Z:    -0.6157     Total:     9.5763

*** Psi4 exiting successfully. Buy a developer a beer!
