                               Psi4 1.3.2 release

  ==> Input File <==

--------------------------------------------------------------------------
#psi4
#
memory 32 gb

molecule  {
-1 1
  O        2.6670754    -0.8455023     0.2828829
  O        1.8560066     1.2922459    -0.0658002
  C       -2.1006760    -0.3536310    -0.4965290
  C       -3.0416170     0.2044990     0.5763330
  C       -0.7068700     0.1810590    -0.3555460
  C        0.3877260    -0.5533690    -0.1060630
  C        1.7796780     0.0321620     0.0520040
  H       -2.0809940    -1.4488000    -0.4417420
  H       -2.4997730    -0.0929160    -1.4864860
  H       -2.6911530    -0.0723110     1.5749530
  H       -3.0846210     1.2967820     0.5254720
  H       -4.0585250    -0.1801320     0.4514200
  H       -0.5779450     1.2609590    -0.4430690
  H        0.3072680    -1.6376370    -0.0077220
units angstrom
no_reorient  #important for SAPT in psi4, default
symmetry c1  #important for SAPT in psi4, default
}

set PROPERTIES_ORIGIN ["COM"]
properties('MP2/aug-cc-pvtz', properties = ['dipole'])
--------------------------------------------------------------------------

    Molecular point group: c1
  Charge       = -1
  Multiplicity = 1
  Basis Set: AUG-CC-PVTZ
    Blend: AUG-CC-PVTZ
  Basis Set: (AUG-CC-PVTZ AUX)
    Blend: AUG-CC-PVTZ-JKFIT

    Orbital Energies [Eh]
    ---------------------

    Doubly Occupied:

       1A    -20.299355     2A    -20.295474     3A    -11.144085
       4A    -11.114031     5A    -11.111692     6A    -11.081453
       7A    -11.065318     8A     -1.162844     9A     -1.068517
      10A     -0.951581    11A     -0.859156    12A     -0.741234
      13A     -0.630312    14A     -0.547030    15A     -0.493450
      16A     -0.483750    17A     -0.446730    18A     -0.418577
      19A     -0.407106    20A     -0.383497    21A     -0.375985
      22A     -0.360144    23A     -0.345932    24A     -0.216603
      25A     -0.207339    26A     -0.201903    27A     -0.195673

  @DF-RHF Final Energy:  -343.28505741302524

   => Energetics <=

    Nuclear Repulsion Energy =            271.2650892495219068
    One-Electron Energy =               -1015.8827506710390480
    Two-Electron Energy =                 401.3326040084918986
    Total Energy =                       -343.2850574130252426
  Basis Set: (AUG-CC-PVTZ AUX)
    Blend: AUG-CC-PVTZ-RI
    Molecular point group: c1

    Geometry (in Angstrom), charge = -1, multiplicity = 1:

       Center              X                  Y                   Z               Mass
    ------------   -----------------  -----------------  -----------------  -----------------
         O            2.532140811011    -0.849473957340     0.286025063884    15.994914619570
         O            1.721072011011     1.288274242660    -0.062658036116    15.994914619570
         C           -2.235610588989    -0.357602657340    -0.493386836116    12.000000000000
         C           -3.176551588989     0.200527342660     0.579475163884    12.000000000000
         C           -0.841804588989     0.177087342660    -0.352403836116    12.000000000000
         C            0.252791411011    -0.557340657340    -0.102920836116    12.000000000000
         C            1.644743411011     0.028190342660     0.055146163884    12.000000000000
         H           -2.215928588989    -1.452771657340    -0.438599836116     1.007825032230
         H           -2.634707588989    -0.096887657340    -1.483343836116     1.007825032230
         H           -2.826087588989    -0.076282657340     1.578095163884     1.007825032230
         H           -3.219555588989     1.292810342660     0.528614163884     1.007825032230
         H           -4.193459588989    -0.184103657340     0.454562163884     1.007825032230
         H           -0.712879588989     1.256987342660    -0.439926836116     1.007825032230
         H            0.172333411011    -1.641608657340    -0.004579836116     1.007825032230

  Basis Set: AUG-CC-PVTZ
    Blend: AUG-CC-PVTZ
  Basis Set: (AUG-CC-PVTZ AUX)
    Blend: AUG-CC-PVTZ-JKFIT
	 Reference Energy          =    -343.2850574130252426 [Eh]
	 Singles Energy            =      -0.0000000000000000 [Eh]
	 Same-Spin Energy          =      -0.3483283258900678 [Eh]
	 Opposite-Spin Energy      =      -1.1057968250126864 [Eh]
	 Correlation Energy        =      -1.4541251509027542 [Eh]
	 Total Energy              =    -344.7391825639280114 [Eh]

	 ================> DF-SCS-MP2 Energies <==================
	-----------------------------------------------------------
	 SCS Same-Spin Scale       =       0.3333333333333333 [-]
	 SCS Opposite-Spin Scale   =       1.2000000000000000 [-]
	 SCS Same-Spin Energy      =      -0.1161094419633559 [Eh]
	 SCS Opposite-Spin Energy  =      -1.3269561900152236 [Eh]
	 SCS Correlation Energy    =      -1.4430656319785795 [Eh]
	 SCS Total Energy          =    -344.7281230450038265 [Eh]
	-----------------------------------------------------------

  Dipole Moment: [D]
     X:    -9.2551      Y:    -1.0784      Z:    -0.5537     Total:     9.3341

*** Psi4 exiting successfully. Buy a developer a beer!
