                               Psi4 1.3.2 release

  ==> Input File <==

--------------------------------------------------------------------------
#psi4
#
memory 32 gb

molecule  {
-1 1
  O        2.6974490    -0.8132830     0.2843680
  O        1.8995890     1.2895000    -0.0586210
  C       -2.1006760    -0.3536310    -0.4965290
  C       -3.0416170     0.2044990     0.5763330
  C       -0.7197454     0.1615027    -0.3555267
  C        0.3877260    -0.5533690    -0.1060630
  C        1.7892227     0.0077764     0.0560633
  H       -2.0809940    -1.4488000    -0.4417420
  H       -2.4997730    -0.0929160    -1.4864860
  H       -2.6911530    -0.0723110     1.5749530
  H       -3.0846210     1.2967820     0.5254720
  H       -4.0585250    -0.1801320     0.4514200
  H       -0.5779450     1.2609590    -0.4430690
  H        0.3072680    -1.6376370    -0.0077220
units angstrom
no_reorient  #important for SAPT in psi4, default
symmetry c1  #important for SAPT in psi4, default
}

set PROPERTIES_ORIGIN ["COM"]
properties('MP2/aug-cc-pvtz', properties = ['dipole'])
--------------------------------------------------------------------------

    Molecular point group: c1
  Charge       = -1
  Multiplicity = 1
  Basis Set: AUG-CC-PVTZ
    Blend: AUG-CC-PVTZ
  Basis Set: (AUG-CC-PVTZ AUX)
    Blend: AUG-CC-PVTZ-JKFIT

    Orbital Energies [Eh]
    ---------------------

    Doubly Occupied:

       1A    -20.301722     2A    -20.285954     3A    -11.142591
       4A    -11.115988     5A    -11.113466     6A    -11.086069
       7A    -11.069956     8A     -1.165908     9A     -1.058296
      10A     -0.956751    11A     -0.861626    12A     -0.746088
      13A     -0.631769    14A     -0.548280    15A     -0.496594
      16A     -0.485249    17A     -0.446578    18A     -0.418911
      19A     -0.410019    20A     -0.383226    21A     -0.379355
      22A     -0.359065    23A     -0.342922    24A     -0.214639
      25A     -0.205696    26A     -0.205411    27A     -0.189539

  @DF-RHF Final Energy:  -343.28360793635318

   => Energetics <=

    Nuclear Repulsion Energy =            270.8880190259222900
    One-Electron Energy =               -1015.0999157153572696
    Two-Electron Energy =                 400.9282887530818016
    Total Energy =                       -343.2836079363531780
  Basis Set: (AUG-CC-PVTZ AUX)
    Blend: AUG-CC-PVTZ-RI
    Molecular point group: c1

    Geometry (in Angstrom), charge = -1, multiplicity = 1:

       Center              X                  Y                   Z               Mass
    ------------   -----------------  -----------------  -----------------  -----------------
         O            2.550974645551    -0.816690484422     0.285616795338    15.994914619570
         O            1.753114645551     1.286092515578    -0.057372204662    15.994914619570
         C           -2.247150354449    -0.357038484422    -0.495280204662    12.000000000000
         C           -3.188091354449     0.201091515578     0.577581795338    12.000000000000
         C           -0.866219754449     0.158095215578    -0.354277904662    12.000000000000
         C            0.241251645551    -0.556776484422    -0.104814204662    12.000000000000
         C            1.642748345551     0.004368915578     0.057312095338    12.000000000000
         H           -2.227468354449    -1.452207484422    -0.440493204662     1.007825032230
         H           -2.646247354449    -0.096323484422    -1.485237204662     1.007825032230
         H           -2.837627354449    -0.075718484422     1.576201795338     1.007825032230
         H           -3.231095354449     1.293374515578     0.526720795338     1.007825032230
         H           -4.204999354449    -0.183539484422     0.452668795338     1.007825032230
         H           -0.724419354449     1.257551515578    -0.441820204662     1.007825032230
         H            0.160793645551    -1.641044484422    -0.006473204662     1.007825032230

  Basis Set: AUG-CC-PVTZ
    Blend: AUG-CC-PVTZ
  Basis Set: (AUG-CC-PVTZ AUX)
    Blend: AUG-CC-PVTZ-JKFIT
	 Reference Energy          =    -343.2836079363531780 [Eh]
	 Singles Energy            =      -0.0000000000000000 [Eh]
	 Same-Spin Energy          =      -0.3483432450727322 [Eh]
	 Opposite-Spin Energy      =      -1.1058214223278671 [Eh]
	 Correlation Energy        =      -1.4541646674005992 [Eh]
	 Total Energy              =    -344.7377726037537968 [Eh]

	 ================> DF-SCS-MP2 Energies <==================
	-----------------------------------------------------------
	 SCS Same-Spin Scale       =       0.3333333333333333 [-]
	 SCS Opposite-Spin Scale   =       1.2000000000000000 [-]
	 SCS Same-Spin Energy      =      -0.1161144150242440 [Eh]
	 SCS Opposite-Spin Energy  =      -1.3269857067934405 [Eh]
	 SCS Correlation Energy    =      -1.4431001218176847 [Eh]
	 SCS Total Energy          =    -344.7267080581708569 [Eh]
	-----------------------------------------------------------

  Dipole Moment: [D]
     X:    -9.4271      Y:    -1.4114      Z:    -0.5363     Total:     9.5472

*** Psi4 exiting successfully. Buy a developer a beer!
