                               Psi4 1.4a3.dev225

  ==> Input File <==

--------------------------------------------------------------------------
#psi4
#
memory 32 gb

molecule  {
-1 1
  O        2.6993700    -0.8109490     0.2832770
  O        1.8994270     1.2905180    -0.0615170
  C       -2.1001690    -0.3616000    -0.4913260
  C       -3.0433460     0.2119310     0.5709670
  C       -0.7080250     0.1770830    -0.3546910
  C        0.3885780    -0.5541740    -0.1016640
  C        1.7798570     0.0330080     0.0518740
  H       -2.0812530    -1.4558260    -0.4203270
  H       -2.4968010    -0.1155520    -1.4857470
  H       -2.6986290    -0.0550030     1.5741980
  H       -3.0817280     1.3037570     0.5071410
  H       -4.0608920    -0.1705790     0.4451360
  H       -0.5806440     1.2564400    -0.4499950
  H        0.3214078    -1.6222662     0.0049800
units angstrom
no_reorient  #important for SAPT in psi4, default
symmetry c1  #important for SAPT in psi4, default
}

set PROPERTIES_ORIGIN ["COM"]
properties('MP2/aug-cc-pvtz', properties = ['dipole'])
--------------------------------------------------------------------------

    Molecular point group: c1
  Charge       = -1
  Multiplicity = 1
  Basis Set: AUG-CC-PVTZ
    Blend: AUG-CC-PVTZ
  Basis Set: (AUG-CC-PVTZ AUX)
    Blend: AUG-CC-PVTZ-JKFIT

    Orbital Energies [Eh]
    ---------------------

    Doubly Occupied:

       1A    -20.295289     2A    -20.291252     3A    -11.141519
       4A    -11.115775     5A    -11.113970     6A    -11.085518
       7A    -11.068155     8A     -1.161481     9A     -1.060621
      10A     -0.954479    11A     -0.862719    12A     -0.744206
      13A     -0.634189    14A     -0.549148    15A     -0.494920
      16A     -0.487611    17A     -0.445862    18A     -0.419708
      19A     -0.409016    20A     -0.383194    21A     -0.375747
      22A     -0.357668    23A     -0.349946    24A     -0.211099
      25A     -0.208647    26A     -0.204444    27A     -0.190923

  @DF-RHF Final Energy:  -343.28580031526525

   => Energetics <=

    Nuclear Repulsion Energy =            270.9111383569070881
    One-Electron Energy =               -1015.1596641597608368
    Two-Electron Energy =                 400.9627254875884432
    Total Energy =                       -343.2858003152652486
  Basis Set: (AUG-CC-PVTZ AUX)
    Blend: AUG-CC-PVTZ-RI
    Molecular point group: c1

    Geometry (in Angstrom), charge = -1, multiplicity = 1:

       Center              X                  Y                   Z               Mass
    ------------   -----------------  -----------------  -----------------  -----------------
         O            2.552297817682    -0.819832775979     0.285036705476    15.994914619570
         O            1.752354817682     1.281634224021    -0.059757294524    15.994914619570
         C           -2.247241182318    -0.370483775979    -0.489566294524    12.000000000000
         C           -3.190418182318     0.203047224021     0.572726705476    12.000000000000
         C           -0.855097182318     0.168199224021    -0.352931294524    12.000000000000
         C            0.241505817682    -0.563057775979    -0.099904294524    12.000000000000
         C            1.632784817682     0.024124224021     0.053633705476    12.000000000000
         H           -2.228325182318    -1.464709775979    -0.418567294524     1.007825032230
         H           -2.643873182318    -0.124435775979    -1.483987294524     1.007825032230
         H           -2.845701182318    -0.063886775979     1.575957705476     1.007825032230
         H           -3.228800182318     1.294873224021     0.508900705476     1.007825032230
         H           -4.207964182318    -0.179462775979     0.446895705476     1.007825032230
         H           -0.727716182318     1.247556224021    -0.448235294524     1.007825032230
         H            0.174335617682    -1.631149975979     0.006739705476     1.007825032230

  Basis Set: AUG-CC-PVTZ
    Blend: AUG-CC-PVTZ
  Basis Set: (AUG-CC-PVTZ AUX)
    Blend: AUG-CC-PVTZ-JKFIT
	 Reference Energy          =    -343.2858003152652486 [Eh]
	 Singles Energy            =      -0.0000000000000000 [Eh]
	 Same-Spin Energy          =      -0.3481146844026985 [Eh]
	 Opposite-Spin Energy      =      -1.1054798895022868 [Eh]
	 Correlation Energy        =      -1.4535945739049854 [Eh]
	 Total Energy              =    -344.7393948891702280 [Eh]

	 ================> DF-SCS-MP2 Energies <==================
	-----------------------------------------------------------
	 SCS Same-Spin Scale       =       0.3333333333333333 [-]
	 SCS Opposite-Spin Scale   =       1.2000000000000000 [-]
	 SCS Same-Spin Energy      =      -0.1160382281342328 [Eh]
	 SCS Opposite-Spin Energy  =      -1.3265758674027441 [Eh]
	 SCS Correlation Energy    =      -1.4426140955369771 [Eh]
	 SCS Total Energy          =    -344.7284144108022019 [Eh]
	-----------------------------------------------------------

  Dipole Moment: [D]
     X:    -9.5246      Y:    -1.1793      Z:    -0.5685     Total:     9.6142

*** Psi4 exiting successfully. Buy a developer a beer!
