                               Psi4 1.3.2 release

  ==> Input File <==

--------------------------------------------------------------------------
#psi4
#
memory 32 gb

molecule  {
-1 1
  O        2.6974490    -0.8132830     0.2843680
  O        1.8995890     1.2895000    -0.0586210
  C       -2.1006760    -0.3536310    -0.4965290
  C       -3.0416170     0.2044990     0.5763330
  C       -0.7068700     0.1810590    -0.3555460
  C        0.3877260    -0.5533690    -0.1060630
  C        1.7592985     0.0804046     0.0438765
  H       -2.0809940    -1.4488000    -0.4417420
  H       -2.4997730    -0.0929160    -1.4864860
  H       -2.6911530    -0.0723110     1.5749530
  H       -3.0846210     1.2967820     0.5254720
  H       -4.0585250    -0.1801320     0.4514200
  H       -0.5779450     1.2609590    -0.4430690
  H        0.2697766    -1.6347447    -0.0138890
units angstrom
no_reorient  #important for SAPT in psi4, default
symmetry c1  #important for SAPT in psi4, default
}

set PROPERTIES_ORIGIN ["COM"]
properties('MP2/aug-cc-pvtz', properties = ['dipole'])
--------------------------------------------------------------------------

    Molecular point group: c1
  Charge       = -1
  Multiplicity = 1
  Basis Set: AUG-CC-PVTZ
    Blend: AUG-CC-PVTZ
  Basis Set: (AUG-CC-PVTZ AUX)
    Blend: AUG-CC-PVTZ-JKFIT

    Orbital Energies [Eh]
    ---------------------

    Doubly Occupied:

       1A    -20.304296     2A    -20.283390     3A    -11.142426
       4A    -11.116251     5A    -11.114372     6A    -11.084947
       7A    -11.070627     8A     -1.174402     9A     -1.050317
      10A     -0.955194    11A     -0.863947    12A     -0.744079
      13A     -0.630392    14A     -0.552540    15A     -0.495631
      16A     -0.486367    17A     -0.450325    18A     -0.417503
      19A     -0.409623    20A     -0.384054    21A     -0.374585
      22A     -0.362012    23A     -0.351292    24A     -0.214726
      25A     -0.206438    26A     -0.202310    27A     -0.187897

  @DF-RHF Final Energy:  -343.28107693306657

   => Energetics <=

    Nuclear Repulsion Energy =            271.0028784224645051
    One-Electron Energy =               -1015.3080240894604458
    Two-Electron Energy =                 401.0240687339293686
    Total Energy =                       -343.2810769330665721
  Basis Set: (AUG-CC-PVTZ AUX)
    Blend: AUG-CC-PVTZ-RI
    Molecular point group: c1

    Geometry (in Angstrom), charge = -1, multiplicity = 1:

       Center              X                  Y                   Z               Mass
    ------------   -----------------  -----------------  -----------------  -----------------
         O            2.553421728587    -0.827888761586     0.287158408411    15.994914619570
         O            1.755561728587     1.274894238414    -0.055830591589    15.994914619570
         C           -2.244703271413    -0.368236761586    -0.493738591589    12.000000000000
         C           -3.185644271413     0.189893238414     0.579123408411    12.000000000000
         C           -0.850897271413     0.166453238414    -0.352755591589    12.000000000000
         C            0.243698728587    -0.567974761586    -0.103272591589    12.000000000000
         C            1.615271228587     0.065798838414     0.046666908411    12.000000000000
         H           -2.225021271413    -1.463405761586    -0.438951591589     1.007825032230
         H           -2.643800271413    -0.107521761586    -1.483695591589     1.007825032230
         H           -2.835180271413    -0.086916761586     1.577743408411     1.007825032230
         H           -3.228648271413     1.282176238414     0.528262408411     1.007825032230
         H           -4.202552271413    -0.194737761586     0.454210408411     1.007825032230
         H           -0.721972271413     1.246353238414    -0.440278591589     1.007825032230
         H            0.125749328587    -1.649350461586    -0.011098591589     1.007825032230

  Basis Set: AUG-CC-PVTZ
    Blend: AUG-CC-PVTZ
  Basis Set: (AUG-CC-PVTZ AUX)
    Blend: AUG-CC-PVTZ-JKFIT
	 Reference Energy          =    -343.2810769330665721 [Eh]
	 Singles Energy            =      -0.0000000000000000 [Eh]
	 Same-Spin Energy          =      -0.3483265584440269 [Eh]
	 Opposite-Spin Energy      =      -1.1058163764177369 [Eh]
	 Correlation Energy        =      -1.4541429348617638 [Eh]
	 Total Energy              =    -344.7352198679283219 [Eh]

	 ================> DF-SCS-MP2 Energies <==================
	-----------------------------------------------------------
	 SCS Same-Spin Scale       =       0.3333333333333333 [-]
	 SCS Opposite-Spin Scale   =       1.2000000000000000 [-]
	 SCS Same-Spin Energy      =      -0.1161088528146756 [Eh]
	 SCS Opposite-Spin Energy  =      -1.3269796517012842 [Eh]
	 SCS Correlation Energy    =      -1.4430885045159598 [Eh]
	 SCS Total Energy          =    -344.7241654375825419 [Eh]
	-----------------------------------------------------------

  Dipole Moment: [D]
     X:    -9.7164      Y:    -0.6565      Z:    -0.6627     Total:     9.7611

*** Psi4 exiting successfully. Buy a developer a beer!
