                               Psi4 1.3.2 release

  ==> Input File <==

--------------------------------------------------------------------------
#psi4
#
memory 32 gb

molecule  {
-1 1
  O        2.6974490    -0.8132830     0.2843680
  O        1.8995890     1.2895000    -0.0586210
  C       -2.1050615    -0.3414835    -0.4986351
  C       -3.0416170     0.2044990     0.5763330
  C       -0.7068700     0.1810590    -0.3555460
  C        0.3942377    -0.5436421    -0.1062733
  C        1.7796780     0.0321620     0.0520040
  H       -2.0809940    -1.4488000    -0.4417420
  H       -2.4997730    -0.0929160    -1.4864860
  H       -2.6911530    -0.0723110     1.5749530
  H       -3.0846210     1.2967820     0.5254720
  H       -4.0585250    -0.1801320     0.4514200
  H       -0.5779450     1.2609590    -0.4430690
  H        0.3072680    -1.6376370    -0.0077220
units angstrom
no_reorient  #important for SAPT in psi4, default
symmetry c1  #important for SAPT in psi4, default
}

set PROPERTIES_ORIGIN ["COM"]
properties('MP2/aug-cc-pvtz', properties = ['dipole'])
--------------------------------------------------------------------------

    Molecular point group: c1
  Charge       = -1
  Multiplicity = 1
  Basis Set: AUG-CC-PVTZ
    Blend: AUG-CC-PVTZ
  Basis Set: (AUG-CC-PVTZ AUX)
    Blend: AUG-CC-PVTZ-JKFIT

    Orbital Energies [Eh]
    ---------------------

    Doubly Occupied:

       1A    -20.295472     2A    -20.291373     3A    -11.141512
       4A    -11.115940     5A    -11.114687     6A    -11.085615
       7A    -11.070868     8A     -1.162157     9A     -1.061127
      10A     -0.954841    11A     -0.863244    12A     -0.744452
      13A     -0.633448    14A     -0.549232    15A     -0.496100
      16A     -0.484852    17A     -0.446041    18A     -0.419824
      19A     -0.410545    20A     -0.381391    21A     -0.376752
      22A     -0.358646    23A     -0.345077    24A     -0.212332
      25A     -0.208886    26A     -0.205024    27A     -0.191076

  @DF-RHF Final Energy:  -343.28509410340769

   => Energetics <=

    Nuclear Repulsion Energy =            270.9693919263579005
    One-Electron Energy =               -1015.2679406027243658
    Two-Electron Energy =                 401.0134545729587217
    Total Energy =                       -343.2850941034076868
  Basis Set: (AUG-CC-PVTZ AUX)
    Blend: AUG-CC-PVTZ-RI
    Molecular point group: c1

    Geometry (in Angstrom), charge = -1, multiplicity = 1:

       Center              X                  Y                   Z               Mass
    ------------   -----------------  -----------------  -----------------  -----------------
         O            2.550313501006    -0.824664625006     0.286391597766    15.994914619570
         O            1.752453501006     1.278118374994    -0.056597402234    15.994914619570
         C           -2.252196998994    -0.352865125006    -0.496611502234    12.000000000000
         C           -3.188752498994     0.193117374994     0.578356597766    12.000000000000
         C           -0.854005498994     0.169677374994    -0.353522402234    12.000000000000
         C            0.247102201006    -0.555023725006    -0.104249702234    12.000000000000
         C            1.632542501006     0.020780374994     0.054027597766    12.000000000000
         H           -2.228129498994    -1.460181625006    -0.439718402234     1.007825032230
         H           -2.646908498994    -0.104297625006    -1.484462402234     1.007825032230
         H           -2.838288498994    -0.083692625006     1.576976597766     1.007825032230
         H           -3.231756498994     1.285400374994     0.527495597766     1.007825032230
         H           -4.205660498994    -0.191513625006     0.453443597766     1.007825032230
         H           -0.725080498994     1.249577374994    -0.441045402234     1.007825032230
         H            0.160132501006    -1.649018625006    -0.005698402234     1.007825032230

  Basis Set: AUG-CC-PVTZ
    Blend: AUG-CC-PVTZ
  Basis Set: (AUG-CC-PVTZ AUX)
    Blend: AUG-CC-PVTZ-JKFIT
	 Reference Energy          =    -343.2850941034076868 [Eh]
	 Singles Energy            =      -0.0000000000000000 [Eh]
	 Same-Spin Energy          =      -0.3482510289425655 [Eh]
	 Opposite-Spin Energy      =      -1.1057633409014223 [Eh]
	 Correlation Energy        =      -1.4540143698439878 [Eh]
	 Total Energy              =    -344.7391084732516902 [Eh]

	 ================> DF-SCS-MP2 Energies <==================
	-----------------------------------------------------------
	 SCS Same-Spin Scale       =       0.3333333333333333 [-]
	 SCS Opposite-Spin Scale   =       1.2000000000000000 [-]
	 SCS Same-Spin Energy      =      -0.1160836763141885 [Eh]
	 SCS Opposite-Spin Energy  =      -1.3269160090817067 [Eh]
	 SCS Correlation Energy    =      -1.4429996853958953 [Eh]
	 SCS Total Energy          =    -344.7280937888035623 [Eh]
	-----------------------------------------------------------

  Dipole Moment: [D]
     X:    -9.5227      Y:    -1.1292      Z:    -0.5813     Total:     9.6070

*** Psi4 exiting successfully. Buy a developer a beer!
