                               Psi4 1.3.2 release

  ==> Input File <==

--------------------------------------------------------------------------
#psi4
#
memory 32 gb

molecule  {
-1 1
  O        2.6974490    -0.8132830     0.2843680
  O        1.8995890     1.2895000    -0.0586210
  C       -2.1006760    -0.3536310    -0.4965290
  C       -3.0416170     0.2044990     0.5763330
  C       -0.7068700     0.1810590    -0.3555460
  C        0.4693177    -0.6081136    -0.0874664
  C        1.7796780     0.0321620     0.0520040
  H       -2.0809940    -1.4488000    -0.4417420
  H       -2.4997730    -0.0929160    -1.4864860
  H       -2.6911530    -0.0723110     1.5749530
  H       -3.0846210     1.2967820     0.5254720
  H       -4.0585250    -0.1801320     0.4514200
  H       -0.5779450     1.2609590    -0.4430690
  H        0.3072680    -1.6376370    -0.0077220
units angstrom
no_reorient  #important for SAPT in psi4, default
symmetry c1  #important for SAPT in psi4, default
}

set PROPERTIES_ORIGIN ["COM"]
properties('MP2/aug-cc-pvtz', properties = ['dipole'])
--------------------------------------------------------------------------

    Molecular point group: c1
  Charge       = -1
  Multiplicity = 1
  Basis Set: AUG-CC-PVTZ
    Blend: AUG-CC-PVTZ
  Basis Set: (AUG-CC-PVTZ AUX)
    Blend: AUG-CC-PVTZ-JKFIT

    Orbital Energies [Eh]
    ---------------------

    Doubly Occupied:

       1A    -20.292061     2A    -20.290990     3A    -11.137587
       4A    -11.117029     5A    -11.116187     6A    -11.100942
       7A    -11.078015     8A     -1.162709     9A     -1.060513
      10A     -0.950244    11A     -0.851131    12A     -0.749612
      13A     -0.638616    14A     -0.554922    15A     -0.498718
      16A     -0.484727    17A     -0.444030    18A     -0.418585
      19A     -0.410444    20A     -0.387057    21A     -0.370177
      22A     -0.359328    23A     -0.354295    24A     -0.213822
      25A     -0.207638    26A     -0.190381    27A     -0.183075

  @DF-RHF Final Energy:  -343.26736885785016

   => Energetics <=

    Nuclear Repulsion Energy =            270.3649172259543434
    One-Electron Energy =               -1014.0189038023621606
    Two-Electron Energy =                 400.3866177185576021
    Total Energy =                       -343.2673688578501583
  Basis Set: (AUG-CC-PVTZ AUX)
    Blend: AUG-CC-PVTZ-RI
    Molecular point group: c1

    Geometry (in Angstrom), charge = -1, multiplicity = 1:

       Center              X                  Y                   Z               Mass
    ------------   -----------------  -----------------  -----------------  -----------------
         O            2.540685657014    -0.815381655934     0.283857830265    15.994914619570
         O            1.742825657014     1.287401344066    -0.059131169735    15.994914619570
         C           -2.257439342986    -0.355729655934    -0.497039169735    12.000000000000
         C           -3.198380342986     0.202400344066     0.575822830265    12.000000000000
         C           -0.863633342986     0.178960344066    -0.356056169735    12.000000000000
         C            0.312554357014    -0.610212255934    -0.087976569735    12.000000000000
         C            1.622914657014     0.030063344066     0.051493830265    12.000000000000
         H           -2.237757342986    -1.450898655934    -0.442252169735     1.007825032230
         H           -2.656536342986    -0.095014655934    -1.486996169735     1.007825032230
         H           -2.847916342986    -0.074409655934     1.574442830265     1.007825032230
         H           -3.241384342986     1.294683344066     0.524961830265     1.007825032230
         H           -4.215288342986    -0.182230655934     0.450909830265     1.007825032230
         H           -0.734708342986     1.258860344066    -0.443579169735     1.007825032230
         H            0.150504657014    -1.639735655934    -0.008232169735     1.007825032230

  Basis Set: AUG-CC-PVTZ
    Blend: AUG-CC-PVTZ
  Basis Set: (AUG-CC-PVTZ AUX)
    Blend: AUG-CC-PVTZ-JKFIT
	 Reference Energy          =    -343.2673688578501583 [Eh]
	 Singles Energy            =      -0.0000000000000000 [Eh]
	 Same-Spin Energy          =      -0.3496978215672317 [Eh]
	 Opposite-Spin Energy      =      -1.1090190036635263 [Eh]
	 Correlation Energy        =      -1.4587168252307581 [Eh]
	 Total Energy              =    -344.7260856830808962 [Eh]

	 ================> DF-SCS-MP2 Energies <==================
	-----------------------------------------------------------
	 SCS Same-Spin Scale       =       0.3333333333333333 [-]
	 SCS Opposite-Spin Scale   =       1.2000000000000000 [-]
	 SCS Same-Spin Energy      =      -0.1165659405224106 [Eh]
	 SCS Opposite-Spin Energy  =      -1.3308228043962316 [Eh]
	 SCS Correlation Energy    =      -1.4473887449186422 [Eh]
	 SCS Total Energy          =    -344.7147576027688274 [Eh]
	-----------------------------------------------------------

  Dipole Moment: [D]
     X:    -9.5037      Y:    -1.2634      Z:    -0.5663     Total:     9.6040

*** Psi4 exiting successfully. Buy a developer a beer!
