                               Psi4 1.3.2 release

  ==> Input File <==

--------------------------------------------------------------------------
#psi4
#
memory 32 gb

molecule  {
-1 1
  O        2.6974490    -0.8132830     0.2843680
  O        1.8995890     1.2895000    -0.0586210
  C       -2.1006760    -0.3536310    -0.4965290
  C       -3.0360513     0.2292887     0.5679848
  C       -0.7068700     0.1810590    -0.3555460
  C        0.3877260    -0.5533690    -0.1060630
  C        1.7796780     0.0321620     0.0520040
  H       -2.0686240    -1.4491409    -0.4563450
  H       -2.4997730    -0.0929160    -1.4864860
  H       -2.6911530    -0.0723110     1.5749530
  H       -3.0846210     1.2967820     0.5254720
  H       -4.0585250    -0.1801320     0.4514200
  H       -0.5779450     1.2609590    -0.4430690
  H        0.3072680    -1.6376370    -0.0077220
units angstrom
no_reorient  #important for SAPT in psi4, default
symmetry c1  #important for SAPT in psi4, default
}

set PROPERTIES_ORIGIN ["COM"]
properties('MP2/aug-cc-pvtz', properties = ['dipole'])
--------------------------------------------------------------------------

    Molecular point group: c1
  Charge       = -1
  Multiplicity = 1
  Basis Set: AUG-CC-PVTZ
    Blend: AUG-CC-PVTZ
  Basis Set: (AUG-CC-PVTZ AUX)
    Blend: AUG-CC-PVTZ-JKFIT

    Orbital Energies [Eh]
    ---------------------

    Doubly Occupied:

       1A    -20.295241     2A    -20.291560     3A    -11.141905
       4A    -11.116238     5A    -11.114102     6A    -11.085181
       7A    -11.069761     8A     -1.161710     9A     -1.060936
      10A     -0.954478    11A     -0.862179    12A     -0.744227
      13A     -0.633078    14A     -0.549046    15A     -0.493620
      16A     -0.486383    17A     -0.446787    18A     -0.418863
      19A     -0.409495    20A     -0.384266    21A     -0.374234
      22A     -0.357833    23A     -0.348749    24A     -0.211111
      25A     -0.208918    26A     -0.204362    27A     -0.191112

  @DF-RHF Final Energy:  -343.28476211740428

   => Energetics <=

    Nuclear Repulsion Energy =            270.9025900764900712
    One-Electron Energy =               -1015.1439580441440285
    Two-Electron Energy =                 400.9566058502497299
    Total Energy =                       -343.2847621174042843
  Basis Set: (AUG-CC-PVTZ AUX)
    Blend: AUG-CC-PVTZ-RI
    Molecular point group: c1

    Geometry (in Angstrom), charge = -1, multiplicity = 1:

       Center              X                  Y                   Z               Mass
    ------------   -----------------  -----------------  -----------------  -----------------
         O            2.549770909151    -0.825014366747     0.287270988112    15.994914619570
         O            1.751910909151     1.277768633253    -0.055718011888    15.994914619570
         C           -2.248354090849    -0.365362366747    -0.493626011888    12.000000000000
         C           -3.183729390849     0.217557333253     0.570887788112    12.000000000000
         C           -0.854548090849     0.169327633253    -0.352643011888    12.000000000000
         C            0.240047909151    -0.565100366747    -0.103160011888    12.000000000000
         C            1.631999909151     0.020430633253     0.054906988112    12.000000000000
         H           -2.216302090849    -1.460872266747    -0.453442011888     1.007825032230
         H           -2.647451090849    -0.104647366747    -1.483583011888     1.007825032230
         H           -2.838831090849    -0.084042366747     1.577855988112     1.007825032230
         H           -3.232299090849     1.285050633253     0.528374988112     1.007825032230
         H           -4.206203090849    -0.191863366747     0.454322988112     1.007825032230
         H           -0.725623090849     1.249227633253    -0.440166011888     1.007825032230
         H            0.159589909151    -1.649368366747    -0.004819011888     1.007825032230

  Basis Set: AUG-CC-PVTZ
    Blend: AUG-CC-PVTZ
  Basis Set: (AUG-CC-PVTZ AUX)
    Blend: AUG-CC-PVTZ-JKFIT
	 Reference Energy          =    -343.2847621174042843 [Eh]
	 Singles Energy            =      -0.0000000000000000 [Eh]
	 Same-Spin Energy          =      -0.3481738232217952 [Eh]
	 Opposite-Spin Energy      =      -1.1056074487596306 [Eh]
	 Correlation Energy        =      -1.4537812719814258 [Eh]
	 Total Energy              =    -344.7385433893857112 [Eh]

	 ================> DF-SCS-MP2 Energies <==================
	-----------------------------------------------------------
	 SCS Same-Spin Scale       =       0.3333333333333333 [-]
	 SCS Opposite-Spin Scale   =       1.2000000000000000 [-]
	 SCS Same-Spin Energy      =      -0.1160579410739317 [Eh]
	 SCS Opposite-Spin Energy  =      -1.3267289385115566 [Eh]
	 SCS Correlation Energy    =      -1.4427868795854883 [Eh]
	 SCS Total Energy          =    -344.7275489969897535 [Eh]
	-----------------------------------------------------------

  Dipole Moment: [D]
     X:    -9.5092      Y:    -1.1235      Z:    -0.5895     Total:     9.5934

*** Psi4 exiting successfully. Buy a developer a beer!
