                               Psi4 1.3.2 release

  ==> Input File <==

--------------------------------------------------------------------------
#psi4
#
memory 32 gb

molecule  {
-1 1
  O        2.6974490    -0.8132830     0.2843680
  O        1.8995890     1.2895000    -0.0586210
  C       -2.1006760    -0.3536310    -0.4965290
  C       -3.0416170     0.2044990     0.5763330
  C       -0.7068700     0.1810590    -0.3555460
  C        0.3877260    -0.5533690    -0.1060630
  C        1.7796780     0.0321620     0.0520040
  H       -2.0809940    -1.4488000    -0.4417420
  H       -2.4997730    -0.0929160    -1.4864860
  H       -2.6911530    -0.0723110     1.5749530
  H       -3.0846210     1.2967820     0.5254720
  H       -4.0585250    -0.1801320     0.4514200
  H       -0.5779450     1.2609590    -0.4430690
  H        0.1750388    -1.7875926    -0.0130857
units angstrom
no_reorient  #important for SAPT in psi4, default
symmetry c1  #important for SAPT in psi4, default
}

set PROPERTIES_ORIGIN ["COM"]
properties('MP2/aug-cc-pvtz', properties = ['dipole'])
--------------------------------------------------------------------------

    Molecular point group: c1
  Charge       = -1
  Multiplicity = 1
  Basis Set: AUG-CC-PVTZ
    Blend: AUG-CC-PVTZ
  Basis Set: (AUG-CC-PVTZ AUX)
    Blend: AUG-CC-PVTZ-JKFIT

    Orbital Energies [Eh]
    ---------------------

    Doubly Occupied:

       1A    -20.296379     2A    -20.295737     3A    -11.147521
       4A    -11.116001     5A    -11.114211     6A    -11.089789
       7A    -11.086523     8A     -1.164276     9A     -1.063417
      10A     -0.954499    11A     -0.860594    12A     -0.741775
      13A     -0.627788    14A     -0.547947    15A     -0.495028
      16A     -0.473741    17A     -0.447502    18A     -0.414751
      19A     -0.407195    20A     -0.380662    21A     -0.376378
      22A     -0.360562    23A     -0.336285    24A     -0.214336
      25A     -0.211140    26A     -0.206665    27A     -0.193321

  @DF-RHF Final Energy:  -343.26875253802393

   => Energetics <=

    Nuclear Repulsion Energy =            270.1616112361510886
    One-Electron Energy =               -1013.6126830102260783
    Two-Electron Energy =                 400.1823192360510575
    Total Energy =                       -343.2687525380239322
  Basis Set: (AUG-CC-PVTZ AUX)
    Blend: AUG-CC-PVTZ-RI
    Molecular point group: c1

    Geometry (in Angstrom), charge = -1, multiplicity = 1:

       Center              X                  Y                   Z               Mass
    ------------   -----------------  -----------------  -----------------  -----------------
         O            2.551916599919    -0.820488508501     0.286165526604    15.994914619570
         O            1.754056599919     1.282294491499    -0.056823473396    15.994914619570
         C           -2.246208400081    -0.360836508501    -0.494731473396    12.000000000000
         C           -3.187149400081     0.197293491499     0.578130526604    12.000000000000
         C           -0.852402400081     0.173853491499    -0.353748473396    12.000000000000
         C            0.242193599919    -0.560574508501    -0.104265473396    12.000000000000
         C            1.634145599919     0.024956491499     0.053801526604    12.000000000000
         H           -2.226526400081    -1.456005508501    -0.439944473396     1.007825032230
         H           -2.645305400081    -0.100121508501    -1.484688473396     1.007825032230
         H           -2.836685400081    -0.079516508501     1.576750526604     1.007825032230
         H           -3.230153400081     1.289576491499     0.527269526604     1.007825032230
         H           -4.204057400081    -0.187337508501     0.453217526604     1.007825032230
         H           -0.723477400081     1.253753491499    -0.441271473396     1.007825032230
         H            0.029506399919    -1.794798108501    -0.011288173396     1.007825032230

  Basis Set: AUG-CC-PVTZ
    Blend: AUG-CC-PVTZ
  Basis Set: (AUG-CC-PVTZ AUX)
    Blend: AUG-CC-PVTZ-JKFIT
	 Reference Energy          =    -343.2687525380239322 [Eh]
	 Singles Energy            =      -0.0000000000000000 [Eh]
	 Same-Spin Energy          =      -0.3487820181617300 [Eh]
	 Opposite-Spin Energy      =      -1.1075059461618988 [Eh]
	 Correlation Energy        =      -1.4562879643236288 [Eh]
	 Total Energy              =    -344.7250405023475537 [Eh]

	 ================> DF-SCS-MP2 Energies <==================
	-----------------------------------------------------------
	 SCS Same-Spin Scale       =       0.3333333333333333 [-]
	 SCS Opposite-Spin Scale   =       1.2000000000000000 [-]
	 SCS Same-Spin Energy      =      -0.1162606727205767 [Eh]
	 SCS Opposite-Spin Energy  =      -1.3290071353942785 [Eh]
	 SCS Correlation Energy    =      -1.4452678081148551 [Eh]
	 SCS Total Energy          =    -344.7140203461387955 [Eh]
	-----------------------------------------------------------

  Dipole Moment: [D]
     X:    -9.4392      Y:    -0.9565      Z:    -0.5866     Total:     9.5056

*** Psi4 exiting successfully. Buy a developer a beer!
