                               Psi4 1.3.2 release

  ==> Input File <==

--------------------------------------------------------------------------
#psi4
#
memory 32 gb

molecule  {
-1 1
  O        2.6974490    -0.8132830     0.2843680
  O        1.8995890     1.2895000    -0.0586210
  C       -2.1006760    -0.3536310    -0.4965290
  C       -3.0416170     0.2044990     0.5763330
  C       -0.6813761     0.1071026    -0.3489582
  C        0.3877260    -0.5533690    -0.1060630
  C        1.7796780     0.0321620     0.0520040
  H       -2.0240373    -1.4459376    -0.4350718
  H       -2.4997730    -0.0929160    -1.4864860
  H       -2.6911530    -0.0723110     1.5749530
  H       -3.0846210     1.2967820     0.5254720
  H       -4.0585250    -0.1801320     0.4514200
  H       -0.5779450     1.2609590    -0.4430690
  H        0.3072680    -1.6376370    -0.0077220
units angstrom
no_reorient  #important for SAPT in psi4, default
symmetry c1  #important for SAPT in psi4, default
}

set PROPERTIES_ORIGIN ["COM"]
properties('MP2/aug-cc-pvtz', properties = ['dipole'])
--------------------------------------------------------------------------

    Molecular point group: c1
  Charge       = -1
  Multiplicity = 1
  Basis Set: AUG-CC-PVTZ
    Blend: AUG-CC-PVTZ
  Basis Set: (AUG-CC-PVTZ AUX)
    Blend: AUG-CC-PVTZ-JKFIT

    Orbital Energies [Eh]
    ---------------------

    Doubly Occupied:

       1A    -20.295746     2A    -20.292286     3A    -11.143113
       4A    -11.117331     5A    -11.114558     6A    -11.081611
       7A    -11.060587     8A     -1.162301     9A     -1.061420
      10A     -0.958093    11A     -0.873762    12A     -0.747343
      13A     -0.622669    14A     -0.550341    15A     -0.499318
      16A     -0.483713    17A     -0.446314    18A     -0.421254
      19A     -0.409916    20A     -0.387923    21A     -0.379035
      22A     -0.359330    23A     -0.322619    24A     -0.219556
      25A     -0.212285    26A     -0.209330    27A     -0.191504

  @DF-RHF Final Energy:  -343.27786508001407

   => Energetics <=

    Nuclear Repulsion Energy =            271.5645344637646872
    One-Electron Energy =               -1016.4382830493120764
    Two-Electron Energy =                 401.5958835055333793
    Total Energy =                       -343.2778650800140667
  Basis Set: (AUG-CC-PVTZ AUX)
    Blend: AUG-CC-PVTZ-RI
    Molecular point group: c1

    Geometry (in Angstrom), charge = -1, multiplicity = 1:

       Center              X                  Y                   Z               Mass
    ------------   -----------------  -----------------  -----------------  -----------------
         O            2.546902767126    -0.813083127883     0.285244914460    15.994914619570
         O            1.749042767126     1.289699872117    -0.057744085540    15.994914619570
         C           -2.251222232874    -0.353431127883    -0.495652085540    12.000000000000
         C           -3.192163232874     0.204698872117     0.577209914460    12.000000000000
         C           -0.831922332874     0.107302472117    -0.348081285540    12.000000000000
         C            0.237179767126    -0.553169127883    -0.105186085540    12.000000000000
         C            1.629131767126     0.032361872117     0.052880914460    12.000000000000
         H           -2.174583532874    -1.445737727883    -0.434194885540     1.007825032230
         H           -2.650319232874    -0.092716127883    -1.485609085540     1.007825032230
         H           -2.841699232874    -0.072111127883     1.575829914460     1.007825032230
         H           -3.235167232874     1.296981872117     0.526348914460     1.007825032230
         H           -4.209071232874    -0.179932127883     0.452296914460     1.007825032230
         H           -0.728491232874     1.261158872117    -0.442192085540     1.007825032230
         H            0.156721767126    -1.637437127883    -0.006845085540     1.007825032230

  Basis Set: AUG-CC-PVTZ
    Blend: AUG-CC-PVTZ
  Basis Set: (AUG-CC-PVTZ AUX)
    Blend: AUG-CC-PVTZ-JKFIT
	 Reference Energy          =    -343.2778650800140667 [Eh]
	 Singles Energy            =      -0.0000000000000000 [Eh]
	 Same-Spin Energy          =      -0.3481007072800504 [Eh]
	 Opposite-Spin Energy      =      -1.1049989241943976 [Eh]
	 Correlation Energy        =      -1.4530996314744480 [Eh]
	 Total Energy              =    -344.7309647114885252 [Eh]

	 ================> DF-SCS-MP2 Energies <==================
	-----------------------------------------------------------
	 SCS Same-Spin Scale       =       0.3333333333333333 [-]
	 SCS Opposite-Spin Scale   =       1.2000000000000000 [-]
	 SCS Same-Spin Energy      =      -0.1160335690933501 [Eh]
	 SCS Opposite-Spin Energy  =      -1.3259987090332770 [Eh]
	 SCS Correlation Energy    =      -1.4420322781266270 [Eh]
	 SCS Total Energy          =    -344.7198973581407131 [Eh]
	-----------------------------------------------------------

  Dipole Moment: [D]
     X:    -9.5032      Y:    -1.1943      Z:    -0.5509     Total:     9.5937

*** Psi4 exiting successfully. Buy a developer a beer!
