                               Psi4 1.3.2 release

  ==> Input File <==

--------------------------------------------------------------------------
#psi4
#
memory 32 gb

molecule  {
-1 1
  O        2.6974490    -0.8132830     0.2843680
  O        1.8995890     1.2895000    -0.0586210
  C       -2.1006760    -0.3536310    -0.4965290
  C       -3.0416170     0.2044990     0.5763330
  C       -0.7068700     0.1810590    -0.3555460
  C        0.3877260    -0.5533690    -0.1060630
  C        1.7796780     0.0321620     0.0520040
  H       -2.0809940    -1.4488000    -0.4417420
  H       -2.4997730    -0.0929160    -1.4864860
  H       -2.6911530    -0.0723110     1.5749530
  H       -3.0846210     1.2967820     0.5254720
  H       -4.0585250    -0.1801320     0.4514200
  H       -0.5661288     1.3599339    -0.4510906
  H        0.3072680    -1.6376370    -0.0077220
units angstrom
no_reorient  #important for SAPT in psi4, default
symmetry c1  #important for SAPT in psi4, default
}

set PROPERTIES_ORIGIN ["COM"]
properties('MP2/aug-cc-pvtz', properties = ['dipole'])
--------------------------------------------------------------------------

    Molecular point group: c1
  Charge       = -1
  Multiplicity = 1
  Basis Set: AUG-CC-PVTZ
    Blend: AUG-CC-PVTZ
  Basis Set: (AUG-CC-PVTZ AUX)
    Blend: AUG-CC-PVTZ-JKFIT

    Orbital Energies [Eh]
    ---------------------

    Doubly Occupied:

       1A    -20.295583     2A    -20.291661     3A    -11.142313
       4A    -11.115752     5A    -11.114950     6A    -11.096378
       7A    -11.070955     8A     -1.161953     9A     -1.061165
      10A     -0.953128    11A     -0.861180    12A     -0.744145
      13A     -0.624596    14A     -0.543512    15A     -0.494931
      16A     -0.484848    17A     -0.444551    18A     -0.416805
      19A     -0.408960    20A     -0.383190    21A     -0.376342
      22A     -0.358162    23A     -0.338043    24A     -0.211526
      25A     -0.209047    26A     -0.205387    27A     -0.191309

  @DF-RHF Final Energy:  -343.27850739942602

   => Energetics <=

    Nuclear Repulsion Energy =            270.4391052930677688
    One-Electron Energy =               -1014.2344785025950387
    Two-Electron Energy =                 400.5168658101012511
    Total Energy =                       -343.2785073994260188
  Basis Set: (AUG-CC-PVTZ AUX)
    Blend: AUG-CC-PVTZ-RI
    Molecular point group: c1

    Geometry (in Angstrom), charge = -1, multiplicity = 1:

       Center              X                  Y                   Z               Mass
    ------------   -----------------  -----------------  -----------------  -----------------
         O            2.550450870809    -0.823021492408     0.286192571976    15.994914619570
         O            1.752590870809     1.279761507592    -0.056796428024    15.994914619570
         C           -2.247674129191    -0.363369492408    -0.494704428024    12.000000000000
         C           -3.188615129191     0.194760507592     0.578157571976    12.000000000000
         C           -0.853868129191     0.171320507592    -0.353721428024    12.000000000000
         C            0.240727870809    -0.563107492408    -0.104238428024    12.000000000000
         C            1.632679870809     0.022423507592     0.053828571976    12.000000000000
         H           -2.227992129191    -1.458538492408    -0.439917428024     1.007825032230
         H           -2.646771129191    -0.102654492408    -1.484661428024     1.007825032230
         H           -2.838151129191    -0.082049492408     1.576777571976     1.007825032230
         H           -3.231619129191     1.287043507592     0.527296571976     1.007825032230
         H           -4.205523129191    -0.189870492408     0.453244571976     1.007825032230
         H           -0.713126929191     1.350195407592    -0.449266028024     1.007825032230
         H            0.160269870809    -1.647375492408    -0.005897428024     1.007825032230

  Basis Set: AUG-CC-PVTZ
    Blend: AUG-CC-PVTZ
  Basis Set: (AUG-CC-PVTZ AUX)
    Blend: AUG-CC-PVTZ-JKFIT
	 Reference Energy          =    -343.2785073994260188 [Eh]
	 Singles Energy            =      -0.0000000000000000 [Eh]
	 Same-Spin Energy          =      -0.3484815926073258 [Eh]
	 Opposite-Spin Energy      =      -1.1065086962384354 [Eh]
	 Correlation Energy        =      -1.4549902888457611 [Eh]
	 Total Energy              =    -344.7334976882717683 [Eh]

	 ================> DF-SCS-MP2 Energies <==================
	-----------------------------------------------------------
	 SCS Same-Spin Scale       =       0.3333333333333333 [-]
	 SCS Opposite-Spin Scale   =       1.2000000000000000 [-]
	 SCS Same-Spin Energy      =      -0.1161605308691086 [Eh]
	 SCS Opposite-Spin Energy  =      -1.3278104354861224 [Eh]
	 SCS Correlation Energy    =      -1.4439709663552311 [Eh]
	 SCS Total Energy          =    -344.7224783657812281 [Eh]
	-----------------------------------------------------------

  Dipole Moment: [D]
     X:    -9.4873      Y:    -1.1843      Z:    -0.5724     Total:     9.5780

*** Psi4 exiting successfully. Buy a developer a beer!
