                               Psi4 1.3.2 release

  ==> Input File <==

--------------------------------------------------------------------------
#psi4
#
memory 32 gb

molecule  {
-1 1
  O        2.6974490    -0.8132830     0.2843680
  O        1.8559974     1.2922519    -0.0657421
  C       -2.1006760    -0.3536310    -0.4965290
  C       -3.0416170     0.2044990     0.5763330
  C       -0.7068700     0.1810590    -0.3555460
  C        0.3690478    -0.5044165    -0.1140322
  C        1.7796780     0.0321620     0.0520040
  H       -2.0809940    -1.4488000    -0.4417420
  H       -2.4997730    -0.0929160    -1.4864860
  H       -2.6911530    -0.0723110     1.5749530
  H       -3.0846210     1.2967820     0.5254720
  H       -4.0585250    -0.1801320     0.4514200
  H       -0.5779450     1.2609590    -0.4430690
  H        0.3072680    -1.6376370    -0.0077220
units angstrom
no_reorient  #important for SAPT in psi4, default
symmetry c1  #important for SAPT in psi4, default
}

set PROPERTIES_ORIGIN ["COM"]
properties('MP2/aug-cc-pvtz', properties = ['dipole'])
--------------------------------------------------------------------------

    Molecular point group: c1
  Charge       = -1
  Multiplicity = 1
  Basis Set: AUG-CC-PVTZ
    Blend: AUG-CC-PVTZ
  Basis Set: (AUG-CC-PVTZ AUX)
    Blend: AUG-CC-PVTZ-JKFIT

    Orbital Energies [Eh]
    ---------------------

    Doubly Occupied:

       1A    -20.299800     2A    -20.292616     3A    -11.143815
       4A    -11.114982     5A    -11.113073     6A    -11.076615
       7A    -11.065461     8A     -1.162991     9A     -1.065598
      10A     -0.955875    11A     -0.867291    12A     -0.742169
      13A     -0.630926    14A     -0.547845    15A     -0.495333
      16A     -0.481091    17A     -0.447899    18A     -0.418671
      19A     -0.408066    20A     -0.381405    21A     -0.379792
      22A     -0.360128    23A     -0.337084    24A     -0.215268
      25A     -0.213586    26A     -0.207285    27A     -0.193673

  @DF-RHF Final Energy:  -343.28263831252525

   => Energetics <=

    Nuclear Repulsion Energy =            271.6584605555291887
    One-Electron Energy =               -1016.6455163395031605
    Two-Electron Energy =                 401.7044174714487781
    Total Energy =                       -343.2826383125252505
  Basis Set: (AUG-CC-PVTZ AUX)
    Blend: AUG-CC-PVTZ-RI
    Molecular point group: c1

    Geometry (in Angstrom), charge = -1, multiplicity = 1:

       Center              X                  Y                   Z               Mass
    ------------   -----------------  -----------------  -----------------  -----------------
         O            2.559873806943    -0.828389750746     0.288226477995    15.994914619570
         O            1.718422206943     1.277145149254    -0.061883622005    15.994914619570
         C           -2.238251193057    -0.368737750746    -0.492670522005    12.000000000000
         C           -3.179192193057     0.189392249254     0.580191477995    12.000000000000
         C           -0.844445193057     0.165952249254    -0.351687522005    12.000000000000
         C            0.231472606943    -0.519523250746    -0.110173722005    12.000000000000
         C            1.642102806943     0.017055249254     0.055862477995    12.000000000000
         H           -2.218569193057    -1.463906750746    -0.437883522005     1.007825032230
         H           -2.637348193057    -0.108022750746    -1.482627522005     1.007825032230
         H           -2.828728193057    -0.087417750746     1.578811477995     1.007825032230
         H           -3.222196193057     1.281675249254     0.529330477995     1.007825032230
         H           -4.196100193057    -0.195238750746     0.455278477995     1.007825032230
         H           -0.715520193057     1.245852249254    -0.439210522005     1.007825032230
         H            0.169692806943    -1.652743750746    -0.003863522005     1.007825032230

  Basis Set: AUG-CC-PVTZ
    Blend: AUG-CC-PVTZ
  Basis Set: (AUG-CC-PVTZ AUX)
    Blend: AUG-CC-PVTZ-JKFIT
	 Reference Energy          =    -343.2826383125252505 [Eh]
	 Singles Energy            =      -0.0000000000000000 [Eh]
	 Same-Spin Energy          =      -0.3480780919546301 [Eh]
	 Opposite-Spin Energy      =      -1.1051353709196714 [Eh]
	 Correlation Energy        =      -1.4532134628743014 [Eh]
	 Total Energy              =    -344.7358517753995670 [Eh]

	 ================> DF-SCS-MP2 Energies <==================
	-----------------------------------------------------------
	 SCS Same-Spin Scale       =       0.3333333333333333 [-]
	 SCS Opposite-Spin Scale   =       1.2000000000000000 [-]
	 SCS Same-Spin Energy      =      -0.1160260306515434 [Eh]
	 SCS Opposite-Spin Energy  =      -1.3261624451036056 [Eh]
	 SCS Correlation Energy    =      -1.4421884757551489 [Eh]
	 SCS Total Energy          =    -344.7248267882803816 [Eh]
	-----------------------------------------------------------

  Dipole Moment: [D]
     X:    -9.3665      Y:    -1.0561      Z:    -0.5664     Total:     9.4429

*** Psi4 exiting successfully. Buy a developer a beer!
