                               Psi4 1.3.2 release

  ==> Input File <==

--------------------------------------------------------------------------
#psi4
#
memory 32 gb

molecule  {
-1 1
  O        2.6974490    -0.8132830     0.2843680
  O        1.8995890     1.2895000    -0.0586210
  C       -2.1006760    -0.3536310    -0.4965290
  C       -3.0416170     0.2044990     0.5763330
  C       -0.7068700     0.1810590    -0.3555460
  C        0.2245427    -0.4438798    -0.1432561
  C        1.7796780     0.0321620     0.0520040
  H       -2.0809940    -1.4488000    -0.4417420
  H       -2.4997730    -0.0929160    -1.4864860
  H       -2.6911530    -0.0723110     1.5749530
  H       -3.0846210     1.2967820     0.5254720
  H       -4.0585250    -0.1801320     0.4514200
  H       -0.5779450     1.2609590    -0.4430690
  H        0.3072680    -1.6376370    -0.0077220
units angstrom
no_reorient  #important for SAPT in psi4, default
symmetry c1  #important for SAPT in psi4, default
}

set PROPERTIES_ORIGIN ["COM"]
properties('MP2/aug-cc-pvtz', properties = ['dipole'])
--------------------------------------------------------------------------

    Molecular point group: c1
  Charge       = -1
  Multiplicity = 1
  Basis Set: AUG-CC-PVTZ
    Blend: AUG-CC-PVTZ
  Basis Set: (AUG-CC-PVTZ AUX)
    Blend: AUG-CC-PVTZ-JKFIT

    Orbital Energies [Eh]
    ---------------------

    Doubly Occupied:

       1A    -20.304108     2A    -20.294387     3A    -11.151776
       4A    -11.113821     5A    -11.110128     6A    -11.052952
       7A    -11.046849     8A     -1.162551     9A     -1.064339
      10A     -0.977594    11A     -0.887924    12A     -0.737186
      13A     -0.609964    14A     -0.549378    15A     -0.498762
      16A     -0.477988    17A     -0.452201    18A     -0.420890
      19A     -0.406488    20A     -0.386160    21A     -0.377486
      22A     -0.358327    23A     -0.322056    24A     -0.257451
      25A     -0.214572    26A     -0.195104    27A     -0.191447

  @DF-RHF Final Energy:  -343.21511017082406

   => Energetics <=

    Nuclear Repulsion Energy =            272.4394512678959472
    One-Electron Energy =               -1018.0653383714967504
    Two-Electron Energy =                 402.4107769327767414
    Total Energy =                       -343.2151101708240617
  Basis Set: (AUG-CC-PVTZ AUX)
    Blend: AUG-CC-PVTZ-RI
    Molecular point group: c1

    Geometry (in Angstrom), charge = -1, multiplicity = 1:

       Center              X                  Y                   Z               Mass
    ------------   -----------------  -----------------  -----------------  -----------------
         O            2.570341992317    -0.835279818086     0.290617172721    15.994914619570
         O            1.772481992317     1.267503181914    -0.052371827279    15.994914619570
         C           -2.227783007683    -0.375627818086    -0.490279827279    12.000000000000
         C           -3.168724007683     0.182502181914     0.582582172721    12.000000000000
         C           -0.833977007683     0.159062181914    -0.349296827279    12.000000000000
         C            0.097435692317    -0.465876618086    -0.137006927279    12.000000000000
         C            1.652570992317     0.010165181914     0.058253172721    12.000000000000
         H           -2.208101007683    -1.470796818086    -0.435492827279     1.007825032230
         H           -2.626880007683    -0.114912818086    -1.480236827279     1.007825032230
         H           -2.818260007683    -0.094307818086     1.581202172721     1.007825032230
         H           -3.211728007683     1.274785181914     0.531721172721     1.007825032230
         H           -4.185632007683    -0.202128818086     0.457669172721     1.007825032230
         H           -0.705052007683     1.238962181914    -0.436819827279     1.007825032230
         H            0.180160992317    -1.659633818086    -0.001472827279     1.007825032230

  Basis Set: AUG-CC-PVTZ
    Blend: AUG-CC-PVTZ
  Basis Set: (AUG-CC-PVTZ AUX)
    Blend: AUG-CC-PVTZ-JKFIT
	 Reference Energy          =    -343.2151101708240617 [Eh]
	 Singles Energy            =      -0.0000000000000000 [Eh]
	 Same-Spin Energy          =      -0.3482372949889190 [Eh]
	 Opposite-Spin Energy      =      -1.1039136562022249 [Eh]
	 Correlation Energy        =      -1.4521509511911439 [Eh]
	 Total Energy              =    -344.6672611220151907 [Eh]

	 ================> DF-SCS-MP2 Energies <==================
	-----------------------------------------------------------
	 SCS Same-Spin Scale       =       0.3333333333333333 [-]
	 SCS Opposite-Spin Scale   =       1.2000000000000000 [-]
	 SCS Same-Spin Energy      =      -0.1160790983296397 [Eh]
	 SCS Opposite-Spin Energy  =      -1.3246963874426698 [Eh]
	 SCS Correlation Energy    =      -1.4407754857723094 [Eh]
	 SCS Total Energy          =    -344.6558856565963538 [Eh]
	-----------------------------------------------------------

  Dipole Moment: [D]
     X:    -9.3097      Y:    -0.9006      Z:    -0.5776     Total:     9.3709

*** Psi4 exiting successfully. Buy a developer a beer!
