                               Psi4 1.3.2 release

  ==> Input File <==

--------------------------------------------------------------------------
#psi4
#
memory 32 gb

molecule  {
-1 1
  O        2.6974490    -0.8132830     0.2843680
  O        1.8995890     1.2895000    -0.0586210
  C       -2.0961409    -0.3657708    -0.4947157
  C       -3.0416170     0.2044990     0.5763330
  C       -0.7068700     0.1810590    -0.3555460
  C        0.3877260    -0.5533690    -0.1060630
  C        1.7796780     0.0321620     0.0520040
  H       -2.0809940    -1.4488000    -0.4417420
  H       -2.4997730    -0.0929160    -1.4864860
  H       -2.6911530    -0.0723110     1.5749530
  H       -3.0846210     1.2967820     0.5254720
  H       -4.0585250    -0.1801320     0.4514200
  H       -0.5685852     1.2599130    -0.4416698
  H        0.3072680    -1.6376370    -0.0077220
units angstrom
no_reorient  #important for SAPT in psi4, default
symmetry c1  #important for SAPT in psi4, default
}

set PROPERTIES_ORIGIN ["COM"]
properties('MP2/aug-cc-pvtz', properties = ['dipole'])
--------------------------------------------------------------------------

    Molecular point group: c1
  Charge       = -1
  Multiplicity = 1
  Basis Set: AUG-CC-PVTZ
    Blend: AUG-CC-PVTZ
  Basis Set: (AUG-CC-PVTZ AUX)
    Blend: AUG-CC-PVTZ-JKFIT

    Orbital Energies [Eh]
    ---------------------

    Doubly Occupied:

       1A    -20.295291     2A    -20.291704     3A    -11.141902
       4A    -11.115911     5A    -11.114003     6A    -11.085210
       7A    -11.069570     8A     -1.161801     9A     -1.061037
      10A     -0.953735    11A     -0.861892    12A     -0.743911
      13A     -0.633385    14A     -0.548882    15A     -0.493703
      16A     -0.486508    17A     -0.446010    18A     -0.418393
      19A     -0.407269    20A     -0.384543    21A     -0.375352
      22A     -0.357848    23A     -0.350623    24A     -0.211120
      25A     -0.209055    26A     -0.204242    27A     -0.191218

  @DF-RHF Final Energy:  -343.28564082277666

   => Energetics <=

    Nuclear Repulsion Energy =            270.8468201380574669
    One-Electron Energy =               -1015.0366868217406591
    Two-Electron Energy =                 400.9042258609065925
    Total Energy =                       -343.2856408227766565
  Basis Set: (AUG-CC-PVTZ AUX)
    Blend: AUG-CC-PVTZ-RI
    Molecular point group: c1

    Geometry (in Angstrom), charge = -1, multiplicity = 1:

       Center              X                  Y                   Z               Mass
    ------------   -----------------  -----------------  -----------------  -----------------
         O            2.549926404294    -0.820532904886     0.285877015987    15.994914619570
         O            1.752066404294     1.282250095114    -0.057111984013    15.994914619570
         C           -2.243663495706    -0.373020704886    -0.493206684013    12.000000000000
         C           -3.189139595706     0.197249095114     0.577842015987    12.000000000000
         C           -0.854392595706     0.173809095114    -0.354036984013    12.000000000000
         C            0.240203404294    -0.560618904886    -0.104553984013    12.000000000000
         C            1.632155404294     0.024912095114     0.053513015987    12.000000000000
         H           -2.228516595706    -1.456049904886    -0.440232984013     1.007825032230
         H           -2.647295595706    -0.100165904886    -1.484976984013     1.007825032230
         H           -2.838675595706    -0.079560904886     1.576462015987     1.007825032230
         H           -3.232143595706     1.289532095114     0.526981015987     1.007825032230
         H           -4.206047595706    -0.187381904886     0.452929015987     1.007825032230
         H           -0.716107795706     1.252663095114    -0.440160784013     1.007825032230
         H            0.159745404294    -1.644886904886    -0.006212984013     1.007825032230

  Basis Set: AUG-CC-PVTZ
    Blend: AUG-CC-PVTZ
  Basis Set: (AUG-CC-PVTZ AUX)
    Blend: AUG-CC-PVTZ-JKFIT
	 Reference Energy          =    -343.2856408227766565 [Eh]
	 Singles Energy            =      -0.0000000000000000 [Eh]
	 Same-Spin Energy          =      -0.3481292842439285 [Eh]
	 Opposite-Spin Energy      =      -1.1055192521079440 [Eh]
	 Correlation Energy        =      -1.4536485363518725 [Eh]
	 Total Energy              =    -344.7392893591285201 [Eh]

	 ================> DF-SCS-MP2 Energies <==================
	-----------------------------------------------------------
	 SCS Same-Spin Scale       =       0.3333333333333333 [-]
	 SCS Opposite-Spin Scale   =       1.2000000000000000 [-]
	 SCS Same-Spin Energy      =      -0.1160430947479762 [Eh]
	 SCS Opposite-Spin Energy  =      -1.3266231025295327 [Eh]
	 SCS Correlation Energy    =      -1.4426661972775090 [Eh]
	 SCS Total Energy          =    -344.7283070200541601 [Eh]
	-----------------------------------------------------------

  Dipole Moment: [D]
     X:    -9.5048      Y:    -1.1674      Z:    -0.5767     Total:     9.5935

*** Psi4 exiting successfully. Buy a developer a beer!
