                               Psi4 1.3.2 release

  ==> Input File <==

--------------------------------------------------------------------------
#psi4
#
memory 32 gb

molecule  {
-1 1
  O        2.6974490    -0.8132830     0.2843680
  O        1.8995890     1.2895000    -0.0586210
  C       -2.1006760    -0.3536310    -0.4965290
  C       -3.0416170     0.2044990     0.5763330
  C       -0.7068700     0.1810590    -0.3555460
  C        0.3877260    -0.5533690    -0.1060630
  C        1.7891356     0.1313307     0.0432788
  H       -2.0809940    -1.4488000    -0.4417420
  H       -2.4997730    -0.0929160    -1.4864860
  H       -2.6911530    -0.0723110     1.5749530
  H       -3.0846210     1.2967820     0.5254720
  H       -4.0585250    -0.1801320     0.4514200
  H       -0.5779450     1.2609590    -0.4430690
  H        0.3072680    -1.6376370    -0.0077220
units angstrom
no_reorient  #important for SAPT in psi4, default
symmetry c1  #important for SAPT in psi4, default
}

set PROPERTIES_ORIGIN ["COM"]
properties('MP2/aug-cc-pvtz', properties = ['dipole'])
--------------------------------------------------------------------------

    Molecular point group: c1
  Charge       = -1
  Multiplicity = 1
  Basis Set: AUG-CC-PVTZ
    Blend: AUG-CC-PVTZ
  Basis Set: (AUG-CC-PVTZ AUX)
    Blend: AUG-CC-PVTZ-JKFIT

    Orbital Energies [Eh]
    ---------------------

    Doubly Occupied:

       1A    -20.315904     2A    -20.277509     3A    -11.141516
       4A    -11.113839     5A    -11.111112     6A    -11.079390
       7A    -11.066986     8A     -1.210017     9A     -1.048641
      10A     -0.951169    11A     -0.857688    12A     -0.738066
      13A     -0.621470    14A     -0.545896    15A     -0.495717
      16A     -0.483276    17A     -0.459957    18A     -0.415627
      19A     -0.408011    20A     -0.387741    21A     -0.379017
      22A     -0.377159    23A     -0.350446    24A     -0.216778
      25A     -0.206773    26A     -0.193518    27A     -0.188259

  @DF-RHF Final Energy:  -343.27412157516244

   => Energetics <=

    Nuclear Repulsion Energy =            271.1441891443969325
    One-Electron Energy =               -1015.5536579999871947
    Two-Electron Energy =                 401.1353472804278226
    Total Energy =                       -343.2741215751624395
  Basis Set: (AUG-CC-PVTZ AUX)
    Blend: AUG-CC-PVTZ-RI
    Molecular point group: c1

    Geometry (in Angstrom), charge = -1, multiplicity = 1:

       Center              X                  Y                   Z               Mass
    ------------   -----------------  -----------------  -----------------  -----------------
         O            2.549425246663    -0.834029411760     0.287168072168    15.994914619570
         O            1.751565246663     1.268753588240    -0.055820927832    15.994914619570
         C           -2.248699753337    -0.374377411760    -0.493728927832    12.000000000000
         C           -3.189640753337     0.183752588240     0.579133072168    12.000000000000
         C           -0.854893753337     0.160312588240    -0.352745927832    12.000000000000
         C            0.239702246663    -0.574115411760    -0.103262927832    12.000000000000
         C            1.641111846663     0.110584288240     0.046078872168    12.000000000000
         H           -2.229017753337    -1.469546411760    -0.438941927832     1.007825032230
         H           -2.647796753337    -0.113662411760    -1.483685927832     1.007825032230
         H           -2.839176753337    -0.093057411760     1.577753072168     1.007825032230
         H           -3.232644753337     1.276035588240     0.528272072168     1.007825032230
         H           -4.206548753337    -0.200878411760     0.454220072168     1.007825032230
         H           -0.725968753337     1.240212588240    -0.440268927832     1.007825032230
         H            0.159244246663    -1.658383411760    -0.004921927832     1.007825032230

  Basis Set: AUG-CC-PVTZ
    Blend: AUG-CC-PVTZ
  Basis Set: (AUG-CC-PVTZ AUX)
    Blend: AUG-CC-PVTZ-JKFIT
	 Reference Energy          =    -343.2741215751624395 [Eh]
	 Singles Energy            =      -0.0000000000000000 [Eh]
	 Same-Spin Energy          =      -0.3474824309045838 [Eh]
	 Opposite-Spin Energy      =      -1.1038778620974616 [Eh]
	 Correlation Energy        =      -1.4513602930020455 [Eh]
	 Total Energy              =    -344.7254818681644792 [Eh]

	 ================> DF-SCS-MP2 Energies <==================
	-----------------------------------------------------------
	 SCS Same-Spin Scale       =       0.3333333333333333 [-]
	 SCS Opposite-Spin Scale   =       1.2000000000000000 [-]
	 SCS Same-Spin Energy      =      -0.1158274769681946 [Eh]
	 SCS Opposite-Spin Energy  =      -1.3246534345169538 [Eh]
	 SCS Correlation Energy    =      -1.4404809114851485 [Eh]
	 SCS Total Energy          =    -344.7146024866476068 [Eh]
	-----------------------------------------------------------

  Dipole Moment: [D]
     X:    -9.5139      Y:    -0.2074      Z:    -0.6881     Total:     9.5410

*** Psi4 exiting successfully. Buy a developer a beer!
