                               Psi4 1.3.2 release

  ==> Input File <==

--------------------------------------------------------------------------
#psi4
#
memory 32 gb

molecule  {
-1 1
  O        2.6974490    -0.8132830     0.2843680
  O        1.8995890     1.2895000    -0.0586210
  C       -2.1006760    -0.3536310    -0.4965290
  C       -3.0416170     0.2044990     0.5763330
  C       -0.7068700     0.1810590    -0.3555460
  C        0.3877260    -0.5533690    -0.1060630
  C        1.7796780     0.0321620     0.0520040
  H       -2.0809940    -1.4488000    -0.4417420
  H       -2.4997730    -0.0929160    -1.4864860
  H       -2.6911530    -0.0723110     1.5749530
  H       -3.0846210     1.2967820     0.5254720
  H       -4.0585250    -0.1801320     0.4514200
  H       -0.5897612     1.1619841    -0.4350474
  H        0.3072680    -1.6376370    -0.0077220
units angstrom
no_reorient  #important for SAPT in psi4, default
symmetry c1  #important for SAPT in psi4, default
}

set PROPERTIES_ORIGIN ["COM"]
properties('MP2/aug-cc-pvtz', properties = ['dipole'])
--------------------------------------------------------------------------

    Molecular point group: c1
  Charge       = -1
  Multiplicity = 1
  Basis Set: AUG-CC-PVTZ
    Blend: AUG-CC-PVTZ
  Basis Set: (AUG-CC-PVTZ AUX)
    Blend: AUG-CC-PVTZ-JKFIT

    Orbital Energies [Eh]
    ---------------------

    Doubly Occupied:

       1A    -20.295228     2A    -20.291711     3A    -11.141826
       4A    -11.115857     5A    -11.113194     6A    -11.073758
       7A    -11.069322     8A     -1.161758     9A     -1.060982
      10A     -0.956245    11A     -0.864465    12A     -0.743626
      13A     -0.645570    14A     -0.554624    15A     -0.494441
      16A     -0.487510    17A     -0.447621    18A     -0.421760
      19A     -0.408788    20A     -0.382938    21A     -0.375516
      22A     -0.357998    23A     -0.357199    24A     -0.211087
      25A     -0.208942    26A     -0.204258    27A     -0.191131

  @DF-RHF Final Energy:  -343.27999003493971

   => Energetics <=

    Nuclear Repulsion Energy =            271.3184115483819028
    One-Electron Energy =               -1015.9220958719755572
    Two-Electron Energy =                 401.3236942886538827
    Total Energy =                       -343.2799900349397149
  Basis Set: (AUG-CC-PVTZ AUX)
    Blend: AUG-CC-PVTZ-RI
    Molecular point group: c1

    Geometry (in Angstrom), charge = -1, multiplicity = 1:

       Center              X                  Y                   Z               Mass
    ------------   -----------------  -----------------  -----------------  -----------------
         O            2.550691341498    -0.821007260894     0.286029324935    15.994914619570
         O            1.752831341498     1.281775739106    -0.056959675065    15.994914619570
         C           -2.247433658502    -0.361355260894    -0.494867675065    12.000000000000
         C           -3.188374658502     0.196774739106     0.577994324935    12.000000000000
         C           -0.853627658502     0.173334739106    -0.353884675065    12.000000000000
         C            0.240968341498    -0.561093260894    -0.104401675065    12.000000000000
         C            1.632920341498     0.024437739106     0.053665324935    12.000000000000
         H           -2.227751658502    -1.456524260894    -0.440080675065     1.007825032230
         H           -2.646530658502    -0.100640260894    -1.484824675065     1.007825032230
         H           -2.837910658502    -0.080035260894     1.576614324935     1.007825032230
         H           -3.231378658502     1.289057739106     0.527133324935     1.007825032230
         H           -4.205282658502    -0.187856260894     0.453081324935     1.007825032230
         H           -0.736518858502     1.154259839106    -0.433386075065     1.007825032230
         H            0.160510341498    -1.645361260894    -0.006060675065     1.007825032230

  Basis Set: AUG-CC-PVTZ
    Blend: AUG-CC-PVTZ
  Basis Set: (AUG-CC-PVTZ AUX)
    Blend: AUG-CC-PVTZ-JKFIT
	 Reference Energy          =    -343.2799900349397149 [Eh]
	 Singles Energy            =      -0.0000000000000000 [Eh]
	 Same-Spin Energy          =      -0.3478899750536706 [Eh]
	 Opposite-Spin Energy      =      -1.1050413210845649 [Eh]
	 Correlation Energy        =      -1.4529312961382355 [Eh]
	 Total Energy              =    -344.7329213310779323 [Eh]

	 ================> DF-SCS-MP2 Energies <==================
	-----------------------------------------------------------
	 SCS Same-Spin Scale       =       0.3333333333333333 [-]
	 SCS Opposite-Spin Scale   =       1.2000000000000000 [-]
	 SCS Same-Spin Energy      =      -0.1159633250178902 [Eh]
	 SCS Opposite-Spin Energy  =      -1.3260495853014778 [Eh]
	 SCS Correlation Energy    =      -1.4420129103193680 [Eh]
	 SCS Total Energy          =    -344.7220029452590779 [Eh]
	-----------------------------------------------------------

  Dipole Moment: [D]
     X:    -9.5294      Y:    -1.1358      Z:    -0.5826     Total:     9.6145

*** Psi4 exiting successfully. Buy a developer a beer!
