                               Psi4 1.3.2 release

  ==> Input File <==

--------------------------------------------------------------------------
#psi4
#
memory 32 gb

molecule  {
0 1
  O       -0.9563780    -0.4388210    -0.0000030
  O        0.2877040     1.4679350     0.0000020
  C        1.3727200    -0.6723210     0.0000000
  C        2.6037930    -0.2014450     0.7447700
  C        2.6037930    -0.2014430    -0.7447690
  C        0.2798215     0.3255034     0.0000011
  C       -2.1420260     0.3946970    -0.0000030
  C       -3.3280480    -0.5423980     0.0000030
  H        1.1423820    -1.7315890    -0.0000010
  H        3.1808050    -0.9553730     1.2690820
  H        2.5170100     0.7570390     1.2445660
  H        2.5170090     0.7570420    -1.2445640
  H        3.1808050    -0.9553700    -1.2690830
  H       -2.1212600     1.0385680     0.8834360
  H       -2.1212640     1.0385610    -0.8834470
  H       -4.2577950     0.0335490     0.0000030
  H       -3.3134860    -1.1794470    -0.8868320
  H       -3.3134830    -1.1794400     0.8868430
units angstrom
no_reorient  #important for SAPT in psi4, default
symmetry c1  #important for SAPT in psi4, default
}

set PROPERTIES_ORIGIN ["COM"]
properties('MP2/aug-cc-pvtz', properties = ['dipole'])
--------------------------------------------------------------------------

    Molecular point group: c1
  Charge       = 0
  Multiplicity = 1
  Basis Set: AUG-CC-PVTZ
    Blend: AUG-CC-PVTZ
  Basis Set: (AUG-CC-PVTZ AUX)
    Blend: AUG-CC-PVTZ-JKFIT

    Orbital Energies [Eh]
    ---------------------

    Doubly Occupied:

       1A    -20.573934     2A    -20.557591     3A    -11.375370
       4A    -11.274295     5A    -11.251446     6A    -11.244416
       7A    -11.243709     8A    -11.215691     9A     -1.467417
      10A     -1.350411    11A     -1.165618    12A     -1.023197
      13A     -0.912363    14A     -0.837154    15A     -0.826128
      16A     -0.752452    17A     -0.727061    18A     -0.684498
      19A     -0.662575    20A     -0.648814    21A     -0.594202
      22A     -0.588131    23A     -0.561842    24A     -0.539408
      25A     -0.530346    26A     -0.513455    27A     -0.504915
      28A     -0.459175    29A     -0.450951    30A     -0.430963
      31A     -0.429149

  @DF-RHF Final Energy:  -382.87313841844485

   => Energetics <=

    Nuclear Repulsion Energy =            376.1929705766301026
    One-Electron Energy =               -1267.3388664626279478
    Two-Electron Energy =                 508.2727574675529354
    Total Energy =                       -382.8731384184448530
  Basis Set: (AUG-CC-PVTZ AUX)
    Blend: AUG-CC-PVTZ-RI
    Molecular point group: c1

    Geometry (in Angstrom), charge = 0, multiplicity = 1:

       Center              X                  Y                   Z               Mass
    ------------   -----------------  -----------------  -----------------  -----------------
         O           -0.985971908293    -0.467721771367    -0.000003107204    15.994914619570
         O            0.258110091707     1.439034228633     0.000001892796    15.994914619570
         C            1.343126091707    -0.701221771367    -0.000000107204    12.000000000000
         C            2.574199091707    -0.230345771367     0.744769892796    12.000000000000
         C            2.574199091707    -0.230343771367    -0.744769107204    12.000000000000
         C            0.250227591707     0.296602628633     0.000000992796    12.000000000000
         C           -2.171619908293     0.365796228633    -0.000003107204    12.000000000000
         C           -3.357641908293    -0.571298771367     0.000002892796    12.000000000000
         H            1.112788091707    -1.760489771367    -0.000001107204     1.007825032230
         H            3.151211091707    -0.984273771367     1.269081892796     1.007825032230
         H            2.487416091707     0.728138228633     1.244565892796     1.007825032230
         H            2.487415091707     0.728141228633    -1.244564107204     1.007825032230
         H            3.151211091707    -0.984270771367    -1.269083107204     1.007825032230
         H           -2.150853908293     1.009667228633     0.883435892796     1.007825032230
         H           -2.150857908293     1.009660228633    -0.883447107204     1.007825032230
         H           -4.287388908293     0.004648228633     0.000002892796     1.007825032230
         H           -3.343079908293    -1.208347771367    -0.886832107204     1.007825032230
         H           -3.343076908293    -1.208340771367     0.886842892796     1.007825032230

  Basis Set: AUG-CC-PVTZ
    Blend: AUG-CC-PVTZ
  Basis Set: (AUG-CC-PVTZ AUX)
    Blend: AUG-CC-PVTZ-JKFIT
	 Reference Energy          =    -382.8731384184448530 [Eh]
	 Singles Energy            =      -0.0000000000000000 [Eh]
	 Same-Spin Energy          =      -0.3849563044365488 [Eh]
	 Opposite-Spin Energy      =      -1.2543018079187802 [Eh]
	 Correlation Energy        =      -1.6392581123553289 [Eh]
	 Total Energy              =    -384.5123965308001743 [Eh]

	 ================> DF-SCS-MP2 Energies <==================
	-----------------------------------------------------------
	 SCS Same-Spin Scale       =       0.3333333333333333 [-]
	 SCS Opposite-Spin Scale   =       1.2000000000000000 [-]
	 SCS Same-Spin Energy      =      -0.1283187681455163 [Eh]
	 SCS Opposite-Spin Energy  =      -1.5051621695025361 [Eh]
	 SCS Correlation Energy    =      -1.6334809376480524 [Eh]
	 SCS Total Energy          =    -384.5066193560929264 [Eh]
	-----------------------------------------------------------

  Dipole Moment: [D]
     X:     0.3642      Y:    -1.1191      Z:     0.0000     Total:     1.1768

*** Psi4 exiting successfully. Buy a developer a beer!
