                               Psi4 1.3.2 release

  ==> Input File <==

--------------------------------------------------------------------------
#psi4
#
memory 32 gb

molecule  {
0 1
  O       -0.9563780    -0.4388210    -0.0000030
  O        0.2877040     1.4679350     0.0000020
  C        1.3727200    -0.6723210     0.0000000
  C        2.6037930    -0.2014450     0.7447700
  C        2.6037930    -0.2014430    -0.7447690
  C        0.2128790     0.2468360     0.0000010
  C       -2.1420260     0.3946970    -0.0000030
  C       -3.3280480    -0.5423980     0.0000030
  H        1.1423820    -1.7315890    -0.0000010
  H        3.1808050    -0.9553730     1.2690820
  H        2.5170100     0.7570390     1.2445660
  H        2.5170090     0.7570420    -1.2445640
  H        3.1808050    -0.9553700    -1.2690830
  H       -2.1212600     1.0385680     0.8834360
  H       -2.1212640     1.0385610    -0.8834470
  H       -4.2577950     0.0335490     0.0000030
  H       -3.3134860    -1.1794470    -0.8868320
  H       -3.3134830    -1.1794400     0.8868430
units angstrom
no_reorient  #important for SAPT in psi4, default
symmetry c1  #important for SAPT in psi4, default
}

set PROPERTIES_ORIGIN ["COM"]
properties('MP2/aug-cc-pvtz', properties = ['dipole'])
--------------------------------------------------------------------------

    Molecular point group: c1
  Charge       = 0
  Multiplicity = 1
  Basis Set: AUG-CC-PVTZ
    Blend: AUG-CC-PVTZ
  Basis Set: (AUG-CC-PVTZ AUX)
    Blend: AUG-CC-PVTZ-JKFIT

    Orbital Energies [Eh]
    ---------------------

    Doubly Occupied:

       1A    -20.600260     2A    -20.536044     3A    -11.378030
       4A    -11.286529     5A    -11.247528     6A    -11.241314
       7A    -11.240611     8A    -11.223618     9A     -1.448703
      10A     -1.347307    11A     -1.158897    12A     -1.040892
      13A     -0.919583    14A     -0.836078    15A     -0.832731
      16A     -0.763600    17A     -0.719469    18A     -0.676458
      19A     -0.669823    20A     -0.645953    21A     -0.592179
      22A     -0.583668    23A     -0.554157    24A     -0.542728
      25A     -0.528691    26A     -0.511372    27A     -0.506974
      28A     -0.456500    29A     -0.452361    30A     -0.435405
      31A     -0.425330

  @DF-RHF Final Energy:  -382.88514243322140

   => Energetics <=

    Nuclear Repulsion Energy =            376.0586063080207850
    One-Electron Energy =               -1267.0819097617438729
    Two-Electron Energy =                 508.1381610205016841
    Total Energy =                       -382.8851424332214037
  Basis Set: (AUG-CC-PVTZ AUX)
    Blend: AUG-CC-PVTZ-RI
    Molecular point group: c1

    Geometry (in Angstrom), charge = 0, multiplicity = 1:

       Center              X                  Y                   Z               Mass
    ------------   -----------------  -----------------  -----------------  -----------------
         O           -0.978929534974    -0.459445934660    -0.000003096684    15.994914619570
         O            0.265152465026     1.447310065340     0.000001903316    15.994914619570
         C            1.350168465026    -0.692945934660    -0.000000096684    12.000000000000
         C            2.581241465026    -0.222069934660     0.744769903316    12.000000000000
         C            2.581241465026    -0.222067934660    -0.744769096684    12.000000000000
         C            0.190327465026     0.226211065340     0.000000903316    12.000000000000
         C           -2.164577534974     0.374072065340    -0.000003096684    12.000000000000
         C           -3.350599534974    -0.563022934660     0.000002903316    12.000000000000
         H            1.119830465026    -1.752213934660    -0.000001096684     1.007825032230
         H            3.158253465026    -0.975997934660     1.269081903316     1.007825032230
         H            2.494458465026     0.736414065340     1.244565903316     1.007825032230
         H            2.494457465026     0.736417065340    -1.244564096684     1.007825032230
         H            3.158253465026    -0.975994934660    -1.269083096684     1.007825032230
         H           -2.143811534974     1.017943065340     0.883435903316     1.007825032230
         H           -2.143815534974     1.017936065340    -0.883447096684     1.007825032230
         H           -4.280346534974     0.012924065340     0.000002903316     1.007825032230
         H           -3.336037534974    -1.200071934660    -0.886832096684     1.007825032230
         H           -3.336034534974    -1.200064934660     0.886842903316     1.007825032230

  Basis Set: AUG-CC-PVTZ
    Blend: AUG-CC-PVTZ
  Basis Set: (AUG-CC-PVTZ AUX)
    Blend: AUG-CC-PVTZ-JKFIT
	 Reference Energy          =    -382.8851424332214037 [Eh]
	 Singles Energy            =      -0.0000000000000000 [Eh]
	 Same-Spin Energy          =      -0.3853051348531672 [Eh]
	 Opposite-Spin Energy      =      -1.2547860524205698 [Eh]
	 Correlation Energy        =      -1.6400911872737369 [Eh]
	 Total Energy              =    -384.5252336204951575 [Eh]

	 ================> DF-SCS-MP2 Energies <==================
	-----------------------------------------------------------
	 SCS Same-Spin Scale       =       0.3333333333333333 [-]
	 SCS Opposite-Spin Scale   =       1.2000000000000000 [-]
	 SCS Same-Spin Energy      =      -0.1284350449510557 [Eh]
	 SCS Opposite-Spin Energy  =      -1.5057432629046839 [Eh]
	 SCS Correlation Energy    =      -1.6341783078557395 [Eh]
	 SCS Total Energy          =    -384.5193207410771379 [Eh]
	-----------------------------------------------------------

  Dipole Moment: [D]
     X:    -0.4536      Y:    -1.6299      Z:    -0.0000     Total:     1.6918

*** Psi4 exiting successfully. Buy a developer a beer!
