                               Psi4 1.3.2 release

  ==> Input File <==

--------------------------------------------------------------------------
#psi4
#
memory 32 gb

molecule  {
0 1
  O       -0.9563780    -0.4388210    -0.0000030
  O        0.2877040     1.4679350     0.0000020
  C        1.3727200    -0.6723210     0.0000000
  C        2.6037930    -0.2014450     0.7447700
  C        2.6037930    -0.2014430    -0.7447690
  C        0.2912523     0.1847263     0.0000009
  C       -2.1420260     0.3946970    -0.0000030
  C       -3.3280480    -0.5423980     0.0000030
  H        1.1423820    -1.7315890    -0.0000010
  H        3.1808050    -0.9553730     1.2690820
  H        2.5170100     0.7570390     1.2445660
  H        2.5170090     0.7570420    -1.2445640
  H        3.1808050    -0.9553700    -1.2690830
  H       -2.1212600     1.0385680     0.8834360
  H       -2.1212640     1.0385610    -0.8834470
  H       -4.2577950     0.0335490     0.0000030
  H       -3.3134860    -1.1794470    -0.8868320
  H       -3.3134830    -1.1794400     0.8868430
units angstrom
no_reorient  #important for SAPT in psi4, default
symmetry c1  #important for SAPT in psi4, default
}

set PROPERTIES_ORIGIN ["COM"]
properties('MP2/aug-cc-pvtz', properties = ['dipole'])
--------------------------------------------------------------------------

    Molecular point group: c1
  Charge       = 0
  Multiplicity = 1
  Basis Set: AUG-CC-PVTZ
    Blend: AUG-CC-PVTZ
  Basis Set: (AUG-CC-PVTZ AUX)
    Blend: AUG-CC-PVTZ-JKFIT

    Orbital Energies [Eh]
    ---------------------

    Doubly Occupied:

       1A    -20.590497     2A    -20.527143     3A    -11.382833
       4A    -11.281009     5A    -11.253342     6A    -11.252485
       7A    -11.251366     8A    -11.219537     9A     -1.421591
      10A     -1.309282    11A     -1.176436    12A     -1.035906
      13A     -0.945119    14A     -0.843197    15A     -0.838048
      16A     -0.753747    17A     -0.728337    18A     -0.666994
      19A     -0.664472    20A     -0.637760    21A     -0.589311
      22A     -0.574949    23A     -0.552643    24A     -0.542918
      25A     -0.535590    26A     -0.503521    27A     -0.499810
      28A     -0.453275    29A     -0.446797    30A     -0.438688
      31A     -0.424038

  @DF-RHF Final Energy:  -382.86283661108223

   => Energetics <=

    Nuclear Repulsion Energy =            375.6909719045792713
    One-Electron Energy =               -1266.4263314193060523
    Two-Electron Energy =                 507.8725229036444944
    Total Energy =                       -382.8628366110822299
  Basis Set: (AUG-CC-PVTZ AUX)
    Blend: AUG-CC-PVTZ-RI
    Molecular point group: c1

    Geometry (in Angstrom), charge = 0, multiplicity = 1:

       Center              X                  Y                   Z               Mass
    ------------   -----------------  -----------------  -----------------  -----------------
         O           -0.987174432264    -0.452911973512    -0.000003086164    15.994914619570
         O            0.256907567736     1.453844026488     0.000001913836    15.994914619570
         C            1.341923567736    -0.686411973512    -0.000000086164    12.000000000000
         C            2.572996567736    -0.215535973512     0.744769913836    12.000000000000
         C            2.572996567736    -0.215533973512    -0.744769086164    12.000000000000
         C            0.260455867736     0.170635326488     0.000000813836    12.000000000000
         C           -2.172822432264     0.380606026488    -0.000003086164    12.000000000000
         C           -3.358844432264    -0.556488973512     0.000002913836    12.000000000000
         H            1.111585567736    -1.745679973512    -0.000001086164     1.007825032230
         H            3.150008567736    -0.969463973512     1.269081913836     1.007825032230
         H            2.486213567736     0.742948026488     1.244565913836     1.007825032230
         H            2.486212567736     0.742951026488    -1.244564086164     1.007825032230
         H            3.150008567736    -0.969460973512    -1.269083086164     1.007825032230
         H           -2.152056432264     1.024477026488     0.883435913836     1.007825032230
         H           -2.152060432264     1.024470026488    -0.883447086164     1.007825032230
         H           -4.288591432264     0.019458026488     0.000002913836     1.007825032230
         H           -3.344282432264    -1.193537973512    -0.886832086164     1.007825032230
         H           -3.344279432264    -1.193530973512     0.886842913836     1.007825032230

  Basis Set: AUG-CC-PVTZ
    Blend: AUG-CC-PVTZ
  Basis Set: (AUG-CC-PVTZ AUX)
    Blend: AUG-CC-PVTZ-JKFIT
	 Reference Energy          =    -382.8628366110822299 [Eh]
	 Singles Energy            =      -0.0000000000000000 [Eh]
	 Same-Spin Energy          =      -0.3879406061780110 [Eh]
	 Opposite-Spin Energy      =      -1.2594498297780541 [Eh]
	 Correlation Energy        =      -1.6473904359560652 [Eh]
	 Total Energy              =    -384.5102270470383132 [Eh]

	 ================> DF-SCS-MP2 Energies <==================
	-----------------------------------------------------------
	 SCS Same-Spin Scale       =       0.3333333333333333 [-]
	 SCS Opposite-Spin Scale   =       1.2000000000000000 [-]
	 SCS Same-Spin Energy      =      -0.1293135353926703 [Eh]
	 SCS Opposite-Spin Energy  =      -1.5113397957336649 [Eh]
	 SCS Correlation Energy    =      -1.6406533311263352 [Eh]
	 SCS Total Energy          =    -384.5034899422085459 [Eh]
	-----------------------------------------------------------

  Dipole Moment: [D]
     X:     0.3117      Y:    -1.9589      Z:    -0.0000     Total:     1.9836

*** Psi4 exiting successfully. Buy a developer a beer!
