                               Psi4 1.3.2 release

  ==> Input File <==

--------------------------------------------------------------------------
#psi4
#
memory 32 gb

molecule  {
0 1
  O       -0.9563780    -0.4388210    -0.0000030
  O        0.2877040     1.4679350     0.0000020
  C        1.3727200    -0.6723210     0.0000000
  C        2.6037930    -0.2014450     0.7447700
  C        2.6037930    -0.2014430    -0.7447690
  C        0.1815074     0.2057982     0.0000010
  C       -2.1420260     0.3946970    -0.0000030
  C       -3.3280480    -0.5423980     0.0000030
  H        1.1423820    -1.7315890    -0.0000010
  H        3.1808050    -0.9553730     1.2690820
  H        2.5170100     0.7570390     1.2445660
  H        2.5170090     0.7570420    -1.2445640
  H        3.1808050    -0.9553700    -1.2690830
  H       -2.1212600     1.0385680     0.8834360
  H       -2.1212640     1.0385610    -0.8834470
  H       -4.2577950     0.0335490     0.0000030
  H       -3.3134860    -1.1794470    -0.8868320
  H       -3.3134830    -1.1794400     0.8868430
units angstrom
no_reorient  #important for SAPT in psi4, default
symmetry c1  #important for SAPT in psi4, default
}

set PROPERTIES_ORIGIN ["COM"]
properties('MP2/aug-cc-pvtz', properties = ['dipole'])
--------------------------------------------------------------------------

    Molecular point group: c1
  Charge       = 0
  Multiplicity = 1
  Basis Set: AUG-CC-PVTZ
    Blend: AUG-CC-PVTZ
  Basis Set: (AUG-CC-PVTZ AUX)
    Blend: AUG-CC-PVTZ-JKFIT

    Orbital Energies [Eh]
    ---------------------

    Doubly Occupied:

       1A    -20.612231     2A    -20.524722     3A    -11.378980
       4A    -11.292533     5A    -11.246448     6A    -11.240125
       7A    -11.239422     8A    -11.227414     9A     -1.464954
      10A     -1.323663    11A     -1.155948    12A     -1.050286
      13A     -0.924131    14A     -0.841017    15A     -0.830909
      16A     -0.773633    17A     -0.715008    18A     -0.685437
      19A     -0.669273    20A     -0.643019    21A     -0.593609
      22A     -0.585789    23A     -0.555116    24A     -0.536793
      25A     -0.526823    26A     -0.514800    27A     -0.505283
      28A     -0.454707    29A     -0.445376    30A     -0.435160
      31A     -0.419960

  @DF-RHF Final Energy:  -382.88002418057897

   => Energetics <=

    Nuclear Repulsion Energy =            376.0721985471519702
    One-Electron Energy =               -1267.0793116134993852
    Two-Electron Energy =                 508.1270888857684440
    Total Energy =                       -382.8800241805789710
  Basis Set: (AUG-CC-PVTZ AUX)
    Blend: AUG-CC-PVTZ-RI
    Molecular point group: c1

    Geometry (in Angstrom), charge = 0, multiplicity = 1:

       Center              X                  Y                   Z               Mass
    ------------   -----------------  -----------------  -----------------  -----------------
         O           -0.975629232195    -0.455128744418    -0.000003096684    15.994914619570
         O            0.268452767805     1.451627255582     0.000001903316    15.994914619570
         C            1.353468767805    -0.688628744418    -0.000000096684    12.000000000000
         C            2.584541767805    -0.217752744418     0.744769903316    12.000000000000
         C            2.584541767805    -0.217750744418    -0.744769096684    12.000000000000
         C            0.162256167805     0.189490455582     0.000000903316    12.000000000000
         C           -2.161277232195     0.378389255582    -0.000003096684    12.000000000000
         C           -3.347299232195    -0.558705744418     0.000002903316    12.000000000000
         H            1.123130767805    -1.747896744418    -0.000001096684     1.007825032230
         H            3.161553767805    -0.971680744418     1.269081903316     1.007825032230
         H            2.497758767805     0.740731255582     1.244565903316     1.007825032230
         H            2.497757767805     0.740734255582    -1.244564096684     1.007825032230
         H            3.161553767805    -0.971677744418    -1.269083096684     1.007825032230
         H           -2.140511232195     1.022260255582     0.883435903316     1.007825032230
         H           -2.140515232195     1.022253255582    -0.883447096684     1.007825032230
         H           -4.277046232195     0.017241255582     0.000002903316     1.007825032230
         H           -3.332737232195    -1.195754744418    -0.886832096684     1.007825032230
         H           -3.332734232195    -1.195747744418     0.886842903316     1.007825032230

  Basis Set: AUG-CC-PVTZ
    Blend: AUG-CC-PVTZ
  Basis Set: (AUG-CC-PVTZ AUX)
    Blend: AUG-CC-PVTZ-JKFIT
	 Reference Energy          =    -382.8800241805789710 [Eh]
	 Singles Energy            =      -0.0000000000000000 [Eh]
	 Same-Spin Energy          =      -0.3856355629642106 [Eh]
	 Opposite-Spin Energy      =      -1.2553261593075247 [Eh]
	 Correlation Energy        =      -1.6409617222717352 [Eh]
	 Total Energy              =    -384.5209859028507253 [Eh]

	 ================> DF-SCS-MP2 Energies <==================
	-----------------------------------------------------------
	 SCS Same-Spin Scale       =       0.3333333333333333 [-]
	 SCS Opposite-Spin Scale   =       1.2000000000000000 [-]
	 SCS Same-Spin Energy      =      -0.1285451876547369 [Eh]
	 SCS Opposite-Spin Energy  =      -1.5063913911690296 [Eh]
	 SCS Correlation Energy    =      -1.6349365788237664 [Eh]
	 SCS Total Energy          =    -384.5149607594027543 [Eh]
	-----------------------------------------------------------

  Dipole Moment: [D]
     X:    -0.8284      Y:    -1.8833      Z:    -0.0000     Total:     2.0574

*** Psi4 exiting successfully. Buy a developer a beer!
