                               Psi4 1.3.2 release

  ==> Input File <==

--------------------------------------------------------------------------
#psi4
#
memory 32 gb

molecule  {
0 1
  O       -0.9563780    -0.4388210    -0.0000030
  O        0.2663815     1.4690549     0.0000020
  C        1.3727200    -0.6723210     0.0000000
  C        2.6037930    -0.2014450     0.7447700
  C        2.6037930    -0.2014430    -0.7447690
  C        0.2128790     0.2468360     0.0000010
  C       -2.1420260     0.3946970    -0.0000030
  C       -3.3280480    -0.5423980     0.0000030
  H        1.1423820    -1.7315890    -0.0000010
  H        3.1808050    -0.9553730     1.2690820
  H        2.5170100     0.7570390     1.2445660
  H        2.5170090     0.7570420    -1.2445640
  H        3.1808050    -0.9553700    -1.2690830
  H       -2.1212600     1.0385680     0.8834360
  H       -2.1212640     1.0385610    -0.8834470
  H       -4.2577950     0.0335490     0.0000030
  H       -3.3134860    -1.1794470    -0.8868320
  H       -3.3134830    -1.1794400     0.8868430
units angstrom
no_reorient  #important for SAPT in psi4, default
symmetry c1  #important for SAPT in psi4, default
}

set PROPERTIES_ORIGIN ["COM"]
properties('MP2/aug-cc-pvtz', properties = ['dipole'])
--------------------------------------------------------------------------

    Molecular point group: c1
  Charge       = 0
  Multiplicity = 1
  Basis Set: AUG-CC-PVTZ
    Blend: AUG-CC-PVTZ
  Basis Set: (AUG-CC-PVTZ AUX)
    Blend: AUG-CC-PVTZ-JKFIT

    Orbital Energies [Eh]
    ---------------------

    Doubly Occupied:

       1A    -20.598862     2A    -20.535729     3A    -11.377921
       4A    -11.285660     5A    -11.248640     6A    -11.242087
       7A    -11.241382     8A    -11.223004     9A     -1.448708
      10A     -1.345831    11A     -1.159885    12A     -1.040231
      13A     -0.919840    14A     -0.835664    15A     -0.833443
      16A     -0.763123    17A     -0.719971    18A     -0.675800
      19A     -0.669731    20A     -0.646254    21A     -0.592248
      22A     -0.583175    23A     -0.554149    24A     -0.542445
      25A     -0.529006    26A     -0.510411    27A     -0.506601
      28A     -0.455771    29A     -0.452733    30A     -0.435810
      31A     -0.426128

  @DF-RHF Final Energy:  -382.88515161447413

   => Energetics <=

    Nuclear Repulsion Energy =            376.0784029983859114
    One-Electron Energy =               -1267.1266233289004504
    Two-Electron Energy =                 508.1630687160404705
    Total Energy =                       -382.8851516144741254
  Basis Set: (AUG-CC-PVTZ AUX)
    Blend: AUG-CC-PVTZ-RI
    Molecular point group: c1

    Geometry (in Angstrom), charge = 0, multiplicity = 1:

       Center              X                  Y                   Z               Mass
    ------------   -----------------  -----------------  -----------------  -----------------
         O           -0.975939640095    -0.459602969870    -0.000003096684    15.994914619570
         O            0.246819859905     1.448272930130     0.000001903316    15.994914619570
         C            1.353158359905    -0.693102969870    -0.000000096684    12.000000000000
         C            2.584231359905    -0.222226969870     0.744769903316    12.000000000000
         C            2.584231359905    -0.222224969870    -0.744769096684    12.000000000000
         C            0.193317359905     0.226054030130     0.000000903316    12.000000000000
         C           -2.161587640095     0.373915030130    -0.000003096684    12.000000000000
         C           -3.347609640095    -0.563179969870     0.000002903316    12.000000000000
         H            1.122820359905    -1.752370969870    -0.000001096684     1.007825032230
         H            3.161243359905    -0.976154969870     1.269081903316     1.007825032230
         H            2.497448359905     0.736257030130     1.244565903316     1.007825032230
         H            2.497447359905     0.736260030130    -1.244564096684     1.007825032230
         H            3.161243359905    -0.976151969870    -1.269083096684     1.007825032230
         H           -2.140821640095     1.017786030130     0.883435903316     1.007825032230
         H           -2.140825640095     1.017779030130    -0.883447096684     1.007825032230
         H           -4.277356640095     0.012767030130     0.000002903316     1.007825032230
         H           -3.333047640095    -1.200228969870    -0.886832096684     1.007825032230
         H           -3.333044640095    -1.200221969870     0.886842903316     1.007825032230

  Basis Set: AUG-CC-PVTZ
    Blend: AUG-CC-PVTZ
  Basis Set: (AUG-CC-PVTZ AUX)
    Blend: AUG-CC-PVTZ-JKFIT
	 Reference Energy          =    -382.8851516144741254 [Eh]
	 Singles Energy            =      -0.0000000000000000 [Eh]
	 Same-Spin Energy          =      -0.3852927161401323 [Eh]
	 Opposite-Spin Energy      =      -1.2547349885143002 [Eh]
	 Correlation Energy        =      -1.6400277046544325 [Eh]
	 Total Energy              =    -384.5251793191285401 [Eh]

	 ================> DF-SCS-MP2 Energies <==================
	-----------------------------------------------------------
	 SCS Same-Spin Scale       =       0.3333333333333333 [-]
	 SCS Opposite-Spin Scale   =       1.2000000000000000 [-]
	 SCS Same-Spin Energy      =      -0.1284309053800441 [Eh]
	 SCS Opposite-Spin Energy  =      -1.5056819862171602 [Eh]
	 SCS Correlation Energy    =      -1.6341128915972043 [Eh]
	 SCS Total Energy          =    -384.5192645060713517 [Eh]
	-----------------------------------------------------------

  Dipole Moment: [D]
     X:    -0.3770      Y:    -1.6406      Z:    -0.0000     Total:     1.6834

*** Psi4 exiting successfully. Buy a developer a beer!
