                               Psi4 1.3.2 release

  ==> Input File <==

--------------------------------------------------------------------------
#psi4
#
memory 32 gb

molecule  {
0 1
  O       -0.9563780    -0.4388210    -0.0000030
  O        0.2877040     1.4679350     0.0000020
  C        1.3727200    -0.6723210     0.0000000
  C        2.5224115    -0.0699264     0.7792801
  C        2.6037930    -0.2014430    -0.7447690
  C        0.2128790     0.2468360     0.0000010
  C       -2.1420260     0.3946970    -0.0000030
  C       -3.3280480    -0.5423980     0.0000030
  H        1.1423820    -1.7315890    -0.0000010
  H        3.1808050    -0.9553730     1.2690820
  H        2.5170100     0.7570390     1.2445660
  H        2.5170090     0.7570420    -1.2445640
  H        3.1808050    -0.9553700    -1.2690830
  H       -2.1212600     1.0385680     0.8834360
  H       -2.1212640     1.0385610    -0.8834470
  H       -4.2577950     0.0335490     0.0000030
  H       -3.3134860    -1.1794470    -0.8868320
  H       -3.3134830    -1.1794400     0.8868430
units angstrom
no_reorient  #important for SAPT in psi4, default
symmetry c1  #important for SAPT in psi4, default
}

set PROPERTIES_ORIGIN ["COM"]
properties('MP2/aug-cc-pvtz', properties = ['dipole'])
--------------------------------------------------------------------------

    Molecular point group: c1
  Charge       = 0
  Multiplicity = 1
  Basis Set: AUG-CC-PVTZ
    Blend: AUG-CC-PVTZ
  Basis Set: (AUG-CC-PVTZ AUX)
    Blend: AUG-CC-PVTZ-JKFIT

    Orbital Energies [Eh]
    ---------------------

    Doubly Occupied:

       1A    -20.600590     2A    -20.535969     3A    -11.377800
       4A    -11.286697     5A    -11.252245     6A    -11.243947
       7A    -11.243251     8A    -11.223861     9A     -1.449251
      10A     -1.348014    11A     -1.154766    12A     -1.040833
      13A     -0.918426    14A     -0.847030    15A     -0.836088
      16A     -0.766031    17A     -0.721134    18A     -0.677136
      19A     -0.675804    20A     -0.639607    21A     -0.598014
      22A     -0.583395    23A     -0.555158    24A     -0.542541
      25A     -0.524099    26A     -0.511644    27A     -0.511062
      28A     -0.458098    29A     -0.451439    30A     -0.427498
      31A     -0.421642

  @DF-RHF Final Energy:  -382.85288395603430

   => Energetics <=

    Nuclear Repulsion Energy =            376.6693900994725936
    One-Electron Energy =               -1268.1984141351279050
    Two-Electron Energy =                 508.6761400796210069
    Total Energy =                       -382.8528839560343044
  Basis Set: (AUG-CC-PVTZ AUX)
    Blend: AUG-CC-PVTZ-RI
    Molecular point group: c1

    Geometry (in Angstrom), charge = 0, multiplicity = 1:

       Center              X                  Y                   Z               Mass
    ------------   -----------------  -----------------  -----------------  -----------------
         O           -0.970368174042    -0.473281735228    -0.003633570710    15.994914619570
         O            0.273713825958     1.433474264772    -0.003628570710    15.994914619570
         C            1.358729825958    -0.706781735228    -0.003630570710    12.000000000000
         C            2.508421325958    -0.104387135228     0.775649529290    12.000000000000
         C            2.589802825958    -0.235903735228    -0.748399570710    12.000000000000
         C            0.198888825958     0.212375264772    -0.003629570710    12.000000000000
         C           -2.156016174042     0.360236264772    -0.003633570710    12.000000000000
         C           -3.342038174042    -0.576858735228    -0.003627570710    12.000000000000
         H            1.128391825958    -1.766049735228    -0.003631570710     1.007825032230
         H            3.166814825958    -0.989833735228     1.265451429290     1.007825032230
         H            2.503019825958     0.722578264772     1.240935429290     1.007825032230
         H            2.503018825958     0.722581264772    -1.248194570710     1.007825032230
         H            3.166814825958    -0.989830735228    -1.272713570710     1.007825032230
         H           -2.135250174042     1.004107264772     0.879805429290     1.007825032230
         H           -2.135254174042     1.004100264772    -0.887077570710     1.007825032230
         H           -4.271785174042    -0.000911735228    -0.003627570710     1.007825032230
         H           -3.327476174042    -1.213907735228    -0.890462570710     1.007825032230
         H           -3.327473174042    -1.213900735228     0.883212429290     1.007825032230

  Basis Set: AUG-CC-PVTZ
    Blend: AUG-CC-PVTZ
  Basis Set: (AUG-CC-PVTZ AUX)
    Blend: AUG-CC-PVTZ-JKFIT
	 Reference Energy          =    -382.8528839560343044 [Eh]
	 Singles Energy            =      -0.0000000000000000 [Eh]
	 Same-Spin Energy          =      -0.3856189066754987 [Eh]
	 Opposite-Spin Energy      =      -1.2565237450619660 [Eh]
	 Correlation Energy        =      -1.6421426517374647 [Eh]
	 Total Energy              =    -384.4950266077717629 [Eh]

	 ================> DF-SCS-MP2 Energies <==================
	-----------------------------------------------------------
	 SCS Same-Spin Scale       =       0.3333333333333333 [-]
	 SCS Opposite-Spin Scale   =       1.2000000000000000 [-]
	 SCS Same-Spin Energy      =      -0.1285396355584996 [Eh]
	 SCS Opposite-Spin Energy  =      -1.5078284940743591 [Eh]
	 SCS Correlation Energy    =      -1.6363681296328587 [Eh]
	 SCS Total Energy          =    -384.4892520856671467 [Eh]
	-----------------------------------------------------------

  Dipole Moment: [D]
     X:    -0.5350      Y:    -1.6136      Z:    -0.0804     Total:     1.7019

*** Psi4 exiting successfully. Buy a developer a beer!
