                               Psi4 1.3.2 release

  ==> Input File <==

--------------------------------------------------------------------------
#psi4
#
memory 32 gb

molecule  {
0 1
  O       -0.9442336    -0.4591229    -0.0000030
  O        0.2877040     1.4679350     0.0000020
  C        1.3727200    -0.6723210     0.0000000
  C        2.6037930    -0.2014450     0.7447700
  C        2.6037930    -0.2014430    -0.7447690
  C        0.2128790     0.2468360     0.0000010
  C       -2.1420260     0.3946970    -0.0000030
  C       -3.3280480    -0.5423980     0.0000030
  H        1.1423820    -1.7315890    -0.0000010
  H        3.1808050    -0.9553730     1.2690820
  H        2.5170100     0.7570390     1.2445660
  H        2.5170090     0.7570420    -1.2445640
  H        3.1808050    -0.9553700    -1.2690830
  H       -2.1212600     1.0385680     0.8834360
  H       -2.1212640     1.0385610    -0.8834470
  H       -4.2577950     0.0335490     0.0000030
  H       -3.3134860    -1.1794470    -0.8868320
  H       -3.3134830    -1.1794400     0.8868430
units angstrom
no_reorient  #important for SAPT in psi4, default
symmetry c1  #important for SAPT in psi4, default
}

set PROPERTIES_ORIGIN ["COM"]
properties('MP2/aug-cc-pvtz', properties = ['dipole'])
--------------------------------------------------------------------------

    Molecular point group: c1
  Charge       = 0
  Multiplicity = 1
  Basis Set: AUG-CC-PVTZ
    Blend: AUG-CC-PVTZ
  Basis Set: (AUG-CC-PVTZ AUX)
    Blend: AUG-CC-PVTZ-JKFIT

    Orbital Energies [Eh]
    ---------------------

    Doubly Occupied:

       1A    -20.601294     2A    -20.536340     3A    -11.377344
       4A    -11.289044     5A    -11.245965     6A    -11.240349
       7A    -11.239650     8A    -11.224510     9A     -1.445429
      10A     -1.346254    11A     -1.157822    12A     -1.040957
      13A     -0.917751    14A     -0.835969    15A     -0.831872
      16A     -0.761706    17A     -0.717962    18A     -0.674219
      19A     -0.669486    20A     -0.644891    21A     -0.590390
      22A     -0.584581    23A     -0.555024    24A     -0.540546
      25A     -0.527911    26A     -0.514483    27A     -0.507053
      28A     -0.458619    29A     -0.452083    30A     -0.433746
      31A     -0.424516

  @DF-RHF Final Energy:  -382.88360637038994

   => Energetics <=

    Nuclear Repulsion Energy =            375.7575590952019979
    One-Electron Energy =               -1266.5068022846055555
    Two-Electron Energy =                 507.8656368190136732
    Total Energy =                       -382.8836063703899413
  Basis Set: (AUG-CC-PVTZ AUX)
    Blend: AUG-CC-PVTZ-RI
    Molecular point group: c1

    Geometry (in Angstrom), charge = 0, multiplicity = 1:

       Center              X                  Y                   Z               Mass
    ------------   -----------------  -----------------  -----------------  -----------------
         O           -0.968488053458    -0.476901050894    -0.000003096684    15.994914619570
         O            0.263449546542     1.450156849106     0.000001903316    15.994914619570
         C            1.348465546542    -0.690099150894    -0.000000096684    12.000000000000
         C            2.579538546542    -0.219223150894     0.744769903316    12.000000000000
         C            2.579538546542    -0.219221150894    -0.744769096684    12.000000000000
         C            0.188624546542     0.229057849106     0.000000903316    12.000000000000
         C           -2.166280453458     0.376918849106    -0.000003096684    12.000000000000
         C           -3.352302453458    -0.560176150894     0.000002903316    12.000000000000
         H            1.118127546542    -1.749367150894    -0.000001096684     1.007825032230
         H            3.156550546542    -0.973151150894     1.269081903316     1.007825032230
         H            2.492755546542     0.739260849106     1.244565903316     1.007825032230
         H            2.492754546542     0.739263849106    -1.244564096684     1.007825032230
         H            3.156550546542    -0.973148150894    -1.269083096684     1.007825032230
         H           -2.145514453458     1.020789849106     0.883435903316     1.007825032230
         H           -2.145518453458     1.020782849106    -0.883447096684     1.007825032230
         H           -4.282049453458     0.015770849106     0.000002903316     1.007825032230
         H           -3.337740453458    -1.197225150894    -0.886832096684     1.007825032230
         H           -3.337737453458    -1.197218150894     0.886842903316     1.007825032230

  Basis Set: AUG-CC-PVTZ
    Blend: AUG-CC-PVTZ
  Basis Set: (AUG-CC-PVTZ AUX)
    Blend: AUG-CC-PVTZ-JKFIT
	 Reference Energy          =    -382.8836063703899413 [Eh]
	 Singles Energy            =      -0.0000000000000000 [Eh]
	 Same-Spin Energy          =      -0.3855156606770295 [Eh]
	 Opposite-Spin Energy      =      -1.2555078243373421 [Eh]
	 Correlation Energy        =      -1.6410234850143717 [Eh]
	 Total Energy              =    -384.5246298554043278 [Eh]

	 ================> DF-SCS-MP2 Energies <==================
	-----------------------------------------------------------
	 SCS Same-Spin Scale       =       0.3333333333333333 [-]
	 SCS Opposite-Spin Scale   =       1.2000000000000000 [-]
	 SCS Same-Spin Energy      =      -0.1285052202256765 [Eh]
	 SCS Opposite-Spin Energy  =      -1.5066093892048105 [Eh]
	 SCS Correlation Energy    =      -1.6351146094304869 [Eh]
	 SCS Total Energy          =    -384.5187209798204435 [Eh]
	-----------------------------------------------------------

  Dipole Moment: [D]
     X:    -0.5461      Y:    -1.5850      Z:    -0.0000     Total:     1.6764

*** Psi4 exiting successfully. Buy a developer a beer!
