                               Psi4 1.3.2 release

  ==> Input File <==

--------------------------------------------------------------------------
#psi4
#
memory 32 gb

molecule  {
0 1
  O       -0.9563780    -0.4388210    -0.0000030
  O        0.2877040     1.4679350     0.0000020
  C        1.3727200    -0.6723210     0.0000000
  C        2.6506031    -0.2920817     0.7172029
  C        2.6037930    -0.2014430    -0.7447690
  C        0.2128790     0.2468360     0.0000010
  C       -2.1420260     0.3946970    -0.0000030
  C       -3.3280480    -0.5423980     0.0000030
  H        1.1423820    -1.7315890    -0.0000010
  H        3.1808050    -0.9553730     1.2690820
  H        2.5170100     0.7570390     1.2445660
  H        2.5170090     0.7570420    -1.2445640
  H        3.1808050    -0.9553700    -1.2690830
  H       -2.1212600     1.0385680     0.8834360
  H       -2.1212640     1.0385610    -0.8834470
  H       -4.2577950     0.0335490     0.0000030
  H       -3.3134860    -1.1794470    -0.8868320
  H       -3.3134830    -1.1794400     0.8868430
units angstrom
no_reorient  #important for SAPT in psi4, default
symmetry c1  #important for SAPT in psi4, default
}

set PROPERTIES_ORIGIN ["COM"]
properties('MP2/aug-cc-pvtz', properties = ['dipole'])
--------------------------------------------------------------------------

    Molecular point group: c1
  Charge       = 0
  Multiplicity = 1
  Basis Set: AUG-CC-PVTZ
    Blend: AUG-CC-PVTZ
  Basis Set: (AUG-CC-PVTZ AUX)
    Blend: AUG-CC-PVTZ-JKFIT

    Orbital Energies [Eh]
    ---------------------

    Doubly Occupied:

       1A    -20.600618     2A    -20.536736     3A    -11.379075
       4A    -11.286780     5A    -11.246781     6A    -11.242425
       7A    -11.241321     8A    -11.223724     9A     -1.448976
      10A     -1.347542    11A     -1.162893    12A     -1.041313
      13A     -0.921614    14A     -0.837263    15A     -0.834233
      16A     -0.764194    17A     -0.715964    18A     -0.676933
      19A     -0.672042    20A     -0.656316    21A     -0.590127
      22A     -0.584179    23A     -0.553710    24A     -0.542913
      25A     -0.523666    26A     -0.511553    27A     -0.500856
      28A     -0.456255    29A     -0.454071    30A     -0.440199
      31A     -0.420762

  @DF-RHF Final Energy:  -382.87201301509322

   => Energetics <=

    Nuclear Repulsion Energy =            375.7495640042362766
    One-Electron Energy =               -1266.4130836017818638
    Two-Electron Energy =                 507.7915065824523708
    Total Energy =                       -382.8720130150932164
  Basis Set: (AUG-CC-PVTZ AUX)
    Blend: AUG-CC-PVTZ-RI
    Molecular point group: c1

    Geometry (in Angstrom), charge = 0, multiplicity = 1:

       Center              X                  Y                   Z               Mass
    ------------   -----------------  -----------------  -----------------  -----------------
         O           -0.983853973101    -0.449910923602     0.002896971427    15.994914619570
         O            0.260228026899     1.456845076398     0.002901971427    15.994914619570
         C            1.345244026899    -0.683410923602     0.002899971427    12.000000000000
         C            2.623127126899    -0.303171623602     0.720102871427    12.000000000000
         C            2.576317026899    -0.212532923602    -0.741869028573    12.000000000000
         C            0.185403026899     0.235746076398     0.002900971427    12.000000000000
         C           -2.169501973101     0.383607076398     0.002896971427    12.000000000000
         C           -3.355523973101    -0.553487923602     0.002902971427    12.000000000000
         H            1.114906026899    -1.742678923602     0.002898971427     1.007825032230
         H            3.153329026899    -0.966462923602     1.271981971427     1.007825032230
         H            2.489534026899     0.745949076398     1.247465971427     1.007825032230
         H            2.489533026899     0.745952076398    -1.241664028573     1.007825032230
         H            3.153329026899    -0.966459923602    -1.266183028573     1.007825032230
         H           -2.148735973101     1.027478076398     0.886335971427     1.007825032230
         H           -2.148739973101     1.027471076398    -0.880547028573     1.007825032230
         H           -4.285270973101     0.022459076398     0.002902971427     1.007825032230
         H           -3.340961973101    -1.190536923602    -0.883932028573     1.007825032230
         H           -3.340958973101    -1.190529923602     0.889742971427     1.007825032230

  Basis Set: AUG-CC-PVTZ
    Blend: AUG-CC-PVTZ
  Basis Set: (AUG-CC-PVTZ AUX)
    Blend: AUG-CC-PVTZ-JKFIT
	 Reference Energy          =    -382.8720130150932164 [Eh]
	 Singles Energy            =      -0.0000000000000000 [Eh]
	 Same-Spin Energy          =      -0.3856090659874732 [Eh]
	 Opposite-Spin Energy      =      -1.2554217622946833 [Eh]
	 Correlation Energy        =      -1.6410308282821564 [Eh]
	 Total Energy              =    -384.5130438433753852 [Eh]

	 ================> DF-SCS-MP2 Energies <==================
	-----------------------------------------------------------
	 SCS Same-Spin Scale       =       0.3333333333333333 [-]
	 SCS Opposite-Spin Scale   =       1.2000000000000000 [-]
	 SCS Same-Spin Energy      =      -0.1285363553291577 [Eh]
	 SCS Opposite-Spin Energy  =      -1.5065061147536198 [Eh]
	 SCS Correlation Energy    =      -1.6350424700827775 [Eh]
	 SCS Total Energy          =    -384.5070554851760107 [Eh]
	-----------------------------------------------------------

  Dipole Moment: [D]
     X:    -0.4457      Y:    -1.6529      Z:    -0.0045     Total:     1.7120

*** Psi4 exiting successfully. Buy a developer a beer!
