                               Psi4 1.3.2 release

  ==> Input File <==

--------------------------------------------------------------------------
#psi4
#
memory 32 gb

molecule  {
0 1
  O       -0.9681663    -0.4183102    -0.0000030
  O        0.2877040     1.4679350     0.0000020
  C        1.3727200    -0.6723210     0.0000000
  C        2.6037930    -0.2014450     0.7447700
  C        2.6037930    -0.2014430    -0.7447690
  C        0.2128790     0.2468360     0.0000010
  C       -2.1420260     0.3946970    -0.0000030
  C       -3.3280480    -0.5423980     0.0000030
  H        1.1423820    -1.7315890    -0.0000010
  H        3.1808050    -0.9553730     1.2690820
  H        2.5170100     0.7570390     1.2445660
  H        2.5170090     0.7570420    -1.2445640
  H        3.1808050    -0.9553700    -1.2690830
  H       -2.1212600     1.0385680     0.8834360
  H       -2.1212640     1.0385610    -0.8834470
  H       -4.2577950     0.0335490     0.0000030
  H       -3.3134860    -1.1794470    -0.8868320
  H       -3.3134830    -1.1794400     0.8868430
units angstrom
no_reorient  #important for SAPT in psi4, default
symmetry c1  #important for SAPT in psi4, default
}

set PROPERTIES_ORIGIN ["COM"]
properties('MP2/aug-cc-pvtz', properties = ['dipole'])
--------------------------------------------------------------------------

    Molecular point group: c1
  Charge       = 0
  Multiplicity = 1
  Basis Set: AUG-CC-PVTZ
    Blend: AUG-CC-PVTZ
  Basis Set: (AUG-CC-PVTZ AUX)
    Blend: AUG-CC-PVTZ-JKFIT

    Orbital Energies [Eh]
    ---------------------

    Doubly Occupied:

       1A    -20.599104     2A    -20.535747     3A    -11.378772
       4A    -11.284066     5A    -11.249092     6A    -11.242271
       7A    -11.241565     8A    -11.222741     9A     -1.452192
      10A     -1.348417    11A     -1.159961    12A     -1.040911
      13A     -0.921432    14A     -0.836451    15A     -0.833586
      16A     -0.765395    17A     -0.720926    18A     -0.678866
      19A     -0.670166    20A     -0.646999    21A     -0.594112
      22A     -0.582765    23A     -0.553319    24A     -0.544814
      25A     -0.529471    26A     -0.508085    27A     -0.507007
      28A     -0.454153    29A     -0.452594    30A     -0.436971
      31A     -0.426130

  @DF-RHF Final Energy:  -382.88587339378563

   => Energetics <=

    Nuclear Repulsion Energy =            376.3674631911582651
    One-Electron Energy =               -1267.6705089443694305
    Two-Electron Energy =                 508.4171723594254786
    Total Energy =                       -382.8858733937856300
  Basis Set: (AUG-CC-PVTZ AUX)
    Blend: AUG-CC-PVTZ-RI
    Molecular point group: c1

    Geometry (in Angstrom), charge = 0, multiplicity = 1:

       Center              X                  Y                   Z               Mass
    ------------   -----------------  -----------------  -----------------  -----------------
         O           -0.989064849733    -0.441811210912    -0.000003096684    15.994914619570
         O            0.266805450267     1.444433989088     0.000001903316    15.994914619570
         C            1.351821450267    -0.695822010912    -0.000000096684    12.000000000000
         C            2.582894450267    -0.224946010912     0.744769903316    12.000000000000
         C            2.582894450267    -0.224944010912    -0.744769096684    12.000000000000
         C            0.191980450267     0.223334989088     0.000000903316    12.000000000000
         C           -2.162924549733     0.371195989088    -0.000003096684    12.000000000000
         C           -3.348946549733    -0.565899010912     0.000002903316    12.000000000000
         H            1.121483450267    -1.755090010912    -0.000001096684     1.007825032230
         H            3.159906450267    -0.978874010912     1.269081903316     1.007825032230
         H            2.496111450267     0.733537989088     1.244565903316     1.007825032230
         H            2.496110450267     0.733540989088    -1.244564096684     1.007825032230
         H            3.159906450267    -0.978871010912    -1.269083096684     1.007825032230
         H           -2.142158549733     1.015066989088     0.883435903316     1.007825032230
         H           -2.142162549733     1.015059989088    -0.883447096684     1.007825032230
         H           -4.278693549733     0.010047989088     0.000002903316     1.007825032230
         H           -3.334384549733    -1.202948010912    -0.886832096684     1.007825032230
         H           -3.334381549733    -1.202941010912     0.886842903316     1.007825032230

  Basis Set: AUG-CC-PVTZ
    Blend: AUG-CC-PVTZ
  Basis Set: (AUG-CC-PVTZ AUX)
    Blend: AUG-CC-PVTZ-JKFIT
	 Reference Energy          =    -382.8858733937856300 [Eh]
	 Singles Energy            =      -0.0000000000000000 [Eh]
	 Same-Spin Energy          =      -0.3851243261837850 [Eh]
	 Opposite-Spin Energy      =      -1.2541216364517167 [Eh]
	 Correlation Energy        =      -1.6392459626355018 [Eh]
	 Total Energy              =    -384.5251193564211576 [Eh]

	 ================> DF-SCS-MP2 Energies <==================
	-----------------------------------------------------------
	 SCS Same-Spin Scale       =       0.3333333333333333 [-]
	 SCS Opposite-Spin Scale   =       1.2000000000000000 [-]
	 SCS Same-Spin Energy      =      -0.1283747753945950 [Eh]
	 SCS Opposite-Spin Energy  =      -1.5049459637420599 [Eh]
	 SCS Correlation Energy    =      -1.6333207391366549 [Eh]
	 SCS Total Energy          =    -384.5191941329222800 [Eh]
	-----------------------------------------------------------

  Dipole Moment: [D]
     X:    -0.3603      Y:    -1.6764      Z:    -0.0000     Total:     1.7146

*** Psi4 exiting successfully. Buy a developer a beer!
