                               Psi4 1.3.2 release

  ==> Input File <==

--------------------------------------------------------------------------
#psi4
#
memory 32 gb

molecule  {
0 1
  O       -0.9563780    -0.4388210    -0.0000030
  O        0.2877040     1.4679350     0.0000020
  C        1.3727200    -0.6723210     0.0000000
  C        2.6037930    -0.2014450     0.7447700
  C        2.6037930    -0.2014430    -0.7447690
  C        0.2290972     0.2669380     0.0000010
  C       -2.1420260     0.3946970    -0.0000030
  C       -3.3280480    -0.5423980     0.0000030
  H        1.1423820    -1.7315890    -0.0000010
  H        3.1808050    -0.9553730     1.2690820
  H        2.5170100     0.7570390     1.2445660
  H        2.5170090     0.7570420    -1.2445640
  H        3.1808050    -0.9553700    -1.2690830
  H       -2.1212600     1.0385680     0.8834360
  H       -2.1212640     1.0385610    -0.8834470
  H       -4.2577950     0.0335490     0.0000030
  H       -3.3134860    -1.1794470    -0.8868320
  H       -3.3134830    -1.1794400     0.8868430
units angstrom
no_reorient  #important for SAPT in psi4, default
symmetry c1  #important for SAPT in psi4, default
}

set PROPERTIES_ORIGIN ["COM"]
properties('MP2/aug-cc-pvtz', properties = ['dipole'])
--------------------------------------------------------------------------

    Molecular point group: c1
  Charge       = 0
  Multiplicity = 1
  Basis Set: AUG-CC-PVTZ
    Blend: AUG-CC-PVTZ
  Basis Set: (AUG-CC-PVTZ AUX)
    Blend: AUG-CC-PVTZ-JKFIT

    Orbital Energies [Eh]
    ---------------------

    Doubly Occupied:

       1A    -20.594026     2A    -20.541526     3A    -11.377398
       4A    -11.283516     5A    -11.248254     6A    -11.241982
       7A    -11.241280     8A    -11.221695     9A     -1.446032
      10A     -1.354657    11A     -1.160447    12A     -1.036347
      13A     -0.917533    14A     -0.833722    15A     -0.833623
      16A     -0.759402    17A     -0.721623    18A     -0.672426
      19A     -0.672102    20A     -0.647061    21A     -0.590915
      22A     -0.584298    23A     -0.555832    24A     -0.543190
      25A     -0.529389    26A     -0.509310    27A     -0.508692
      28A     -0.456057    29A     -0.455397    30A     -0.434483
      31A     -0.427356

  @DF-RHF Final Energy:  -382.88493762233213

   => Energetics <=

    Nuclear Repulsion Energy =            376.0728423355553787
    One-Electron Energy =               -1267.1164179794473057
    Two-Electron Energy =                 508.1586380215597956
    Total Energy =                       -382.8849376223321315
  Basis Set: (AUG-CC-PVTZ AUX)
    Blend: AUG-CC-PVTZ-RI
    Molecular point group: c1

    Geometry (in Angstrom), charge = 0, multiplicity = 1:

       Center              X                  Y                   Z               Mass
    ------------   -----------------  -----------------  -----------------  -----------------
         O           -0.980635695022    -0.461560671762    -0.000003096684    15.994914619570
         O            0.263446304978     1.445195328238     0.000001903316    15.994914619570
         C            1.348462304978    -0.695060671762    -0.000000096684    12.000000000000
         C            2.579535304978    -0.224184671762     0.744769903316    12.000000000000
         C            2.579535304978    -0.224182671762    -0.744769096684    12.000000000000
         C            0.204839504978     0.244198328238     0.000000903316    12.000000000000
         C           -2.166283695022     0.371957328238    -0.000003096684    12.000000000000
         C           -3.352305695022    -0.565137671762     0.000002903316    12.000000000000
         H            1.118124304978    -1.754328671762    -0.000001096684     1.007825032230
         H            3.156547304978    -0.978112671762     1.269081903316     1.007825032230
         H            2.492752304978     0.734299328238     1.244565903316     1.007825032230
         H            2.492751304978     0.734302328238    -1.244564096684     1.007825032230
         H            3.156547304978    -0.978109671762    -1.269083096684     1.007825032230
         H           -2.145517695022     1.015828328238     0.883435903316     1.007825032230
         H           -2.145521695022     1.015821328238    -0.883447096684     1.007825032230
         H           -4.282052695022     0.010809328238     0.000002903316     1.007825032230
         H           -3.337743695022    -1.202186671762    -0.886832096684     1.007825032230
         H           -3.337740695022    -1.202179671762     0.886842903316     1.007825032230

  Basis Set: AUG-CC-PVTZ
    Blend: AUG-CC-PVTZ
  Basis Set: (AUG-CC-PVTZ AUX)
    Blend: AUG-CC-PVTZ-JKFIT
	 Reference Energy          =    -382.8849376223321315 [Eh]
	 Singles Energy            =      -0.0000000000000000 [Eh]
	 Same-Spin Energy          =      -0.3851725361140075 [Eh]
	 Opposite-Spin Energy      =      -1.2545808160967029 [Eh]
	 Correlation Energy        =      -1.6397533522107104 [Eh]
	 Total Energy              =    -384.5246909745428638 [Eh]

	 ================> DF-SCS-MP2 Energies <==================
	-----------------------------------------------------------
	 SCS Same-Spin Scale       =       0.3333333333333333 [-]
	 SCS Opposite-Spin Scale   =       1.2000000000000000 [-]
	 SCS Same-Spin Energy      =      -0.1283908453713358 [Eh]
	 SCS Opposite-Spin Energy  =      -1.5054969793160435 [Eh]
	 SCS Correlation Energy    =      -1.6338878246873794 [Eh]
	 SCS Total Energy          =    -384.5188254470195375 [Eh]
	-----------------------------------------------------------

  Dipole Moment: [D]
     X:    -0.2584      Y:    -1.5030      Z:    -0.0000     Total:     1.5250

*** Psi4 exiting successfully. Buy a developer a beer!
