                               Psi4 1.3.2 release

  ==> Input File <==

--------------------------------------------------------------------------
#psi4
#
memory 32 gb

molecule  {
0 1
  O       -0.9563780    -0.4388210    -0.0000030
  O        0.2877040     1.4679350     0.0000020
  C        1.3727200    -0.6723210     0.0000000
  C        2.6279627    -0.2465039     0.7314320
  C        2.6037930    -0.2014430    -0.7447690
  C        0.2128790     0.2468360     0.0000010
  C       -2.1420260     0.3946970    -0.0000030
  C       -3.3280480    -0.5423980     0.0000030
  H        1.1423820    -1.7315890    -0.0000010
  H        3.1808050    -0.9553730     1.2690820
  H        2.5170100     0.7570390     1.2445660
  H        2.5170090     0.7570420    -1.2445640
  H        3.1808050    -0.9553700    -1.2690830
  H       -2.1212600     1.0385680     0.8834360
  H       -2.1212640     1.0385610    -0.8834470
  H       -4.2577950     0.0335490     0.0000030
  H       -3.3134860    -1.1794470    -0.8868320
  H       -3.3134830    -1.1794400     0.8868430
units angstrom
no_reorient  #important for SAPT in psi4, default
symmetry c1  #important for SAPT in psi4, default
}

set PROPERTIES_ORIGIN ["COM"]
properties('MP2/aug-cc-pvtz', properties = ['dipole'])
--------------------------------------------------------------------------

    Molecular point group: c1
  Charge       = 0
  Multiplicity = 1
  Basis Set: AUG-CC-PVTZ
    Blend: AUG-CC-PVTZ
  Basis Set: (AUG-CC-PVTZ AUX)
    Blend: AUG-CC-PVTZ-JKFIT

    Orbital Energies [Eh]
    ---------------------

    Doubly Occupied:

       1A    -20.600386     2A    -20.536332     3A    -11.378473
       4A    -11.286622     5A    -11.246925     6A    -11.241537
       7A    -11.240742     8A    -11.223647     9A     -1.448782
      10A     -1.347362    11A     -1.160778    12A     -1.041068
      13A     -0.920496    14A     -0.836441    15A     -0.832604
      16A     -0.763665    17A     -0.717845    18A     -0.676591
      19A     -0.669837    20A     -0.651658    21A     -0.590384
      22A     -0.583974    23A     -0.553646    24A     -0.542920
      25A     -0.526597    26A     -0.511430    27A     -0.504498
      28A     -0.456167    29A     -0.453507    30A     -0.438156
      31A     -0.423383

  @DF-RHF Final Energy:  -382.88174160925269

   => Energetics <=

    Nuclear Repulsion Energy =            375.8957473223421175
    One-Electron Energy =               -1266.7420701236669629
    Two-Electron Energy =                 507.9645811920721599
    Total Energy =                       -382.8817416092526855
  Basis Set: (AUG-CC-PVTZ AUX)
    Blend: AUG-CC-PVTZ-RI
    Molecular point group: c1

    Geometry (in Angstrom), charge = 0, multiplicity = 1:

       Center              X                  Y                   Z               Mass
    ------------   -----------------  -----------------  -----------------  -----------------
         O           -0.981472195473    -0.454705723357     0.001400065363    15.994914619570
         O            0.262609804527     1.452050276643     0.001405065363    15.994914619570
         C            1.347625804527    -0.688205723357     0.001403065363    12.000000000000
         C            2.602868504527    -0.262388623357     0.732835065363    12.000000000000
         C            2.578698804527    -0.217327723357    -0.743365934637    12.000000000000
         C            0.187784804527     0.230951276643     0.001404065363    12.000000000000
         C           -2.167120195473     0.378812276643     0.001400065363    12.000000000000
         C           -3.353142195473    -0.558282723357     0.001406065363    12.000000000000
         H            1.117287804527    -1.747473723357     0.001402065363     1.007825032230
         H            3.155710804527    -0.971257723357     1.270485065363     1.007825032230
         H            2.491915804527     0.741154276643     1.245969065363     1.007825032230
         H            2.491914804527     0.741157276643    -1.243160934637     1.007825032230
         H            3.155710804527    -0.971254723357    -1.267679934637     1.007825032230
         H           -2.146354195473     1.022683276643     0.884839065363     1.007825032230
         H           -2.146358195473     1.022676276643    -0.882043934637     1.007825032230
         H           -4.282889195473     0.017664276643     0.001406065363     1.007825032230
         H           -3.338580195473    -1.195331723357    -0.885428934637     1.007825032230
         H           -3.338577195473    -1.195324723357     0.888246065363     1.007825032230

  Basis Set: AUG-CC-PVTZ
    Blend: AUG-CC-PVTZ
  Basis Set: (AUG-CC-PVTZ AUX)
    Blend: AUG-CC-PVTZ-JKFIT
	 Reference Energy          =    -382.8817416092526855 [Eh]
	 Singles Energy            =      -0.0000000000000000 [Eh]
	 Same-Spin Energy          =      -0.3854072522579807 [Eh]
	 Opposite-Spin Energy      =      -1.2549304999720543 [Eh]
	 Correlation Energy        =      -1.6403377522300351 [Eh]
	 Total Energy              =    -384.5220793614827244 [Eh]

	 ================> DF-SCS-MP2 Energies <==================
	-----------------------------------------------------------
	 SCS Same-Spin Scale       =       0.3333333333333333 [-]
	 SCS Opposite-Spin Scale   =       1.2000000000000000 [-]
	 SCS Same-Spin Energy      =      -0.1284690840859936 [Eh]
	 SCS Opposite-Spin Energy  =      -1.5059165999664652 [Eh]
	 SCS Correlation Energy    =      -1.6343856840524587 [Eh]
	 SCS Total Energy          =    -384.5161272933051464 [Eh]
	-----------------------------------------------------------

  Dipole Moment: [D]
     X:    -0.4455      Y:    -1.6399      Z:     0.0034     Total:     1.6993

*** Psi4 exiting successfully. Buy a developer a beer!
