                               Psi4 1.4a3.dev225

  ==> Input File <==

--------------------------------------------------------------------------
#psi4
#
memory 32 gb

molecule  {
0 1
  O       -0.9563780    -0.4388210    -0.0000030
  O        0.2877040     1.4679350     0.0000020
  C        1.3727200    -0.6723210     0.0000000
  C        2.6037930    -0.2014450     0.7447700
  C        2.6037930    -0.2014430    -0.7447690
  C        0.1736923     0.2778909     0.0000010
  C       -2.1420260     0.3946970    -0.0000030
  C       -3.3280480    -0.5423980     0.0000030
  H        1.1423820    -1.7315890    -0.0000010
  H        3.1808050    -0.9553730     1.2690820
  H        2.5170100     0.7570390     1.2445660
  H        2.5170090     0.7570420    -1.2445640
  H        3.1808050    -0.9553700    -1.2690830
  H       -2.1212600     1.0385680     0.8834360
  H       -2.1212640     1.0385610    -0.8834470
  H       -4.2577950     0.0335490     0.0000030
  H       -3.3134860    -1.1794470    -0.8868320
  H       -3.3134830    -1.1794400     0.8868430
units angstrom
no_reorient  #important for SAPT in psi4, default
symmetry c1  #important for SAPT in psi4, default
}

set PROPERTIES_ORIGIN ["COM"]
properties('MP2/aug-cc-pvtz', properties = ['dipole'])
--------------------------------------------------------------------------

    Molecular point group: c1
  Charge       = 0
  Multiplicity = 1
  Basis Set: AUG-CC-PVTZ
    Blend: AUG-CC-PVTZ
  Basis Set: (AUG-CC-PVTZ AUX)
    Blend: AUG-CC-PVTZ-JKFIT

    Orbital Energies [Eh]
    ---------------------

    Doubly Occupied:

       1A    -20.604893     2A    -20.540208     3A    -11.375811
       4A    -11.289184     5A    -11.244339     6A    -11.236025
       7A    -11.235317     8A    -11.225546     9A     -1.462060
      10A     -1.366614    11A     -1.151045    12A     -1.043506
      13A     -0.910117    14A     -0.833155    15A     -0.827942
      16A     -0.769137    17A     -0.715154    18A     -0.682829
      19A     -0.675675    20A     -0.646325    21A     -0.593474
      22A     -0.589056    23A     -0.555308    24A     -0.542924
      25A     -0.526441    26A     -0.516665    27A     -0.509163
      28A     -0.463020    29A     -0.452390    30A     -0.427744
      31A     -0.422348

  @DF-RHF Final Energy:  -382.88504012191464

   => Energetics <=

    Nuclear Repulsion Energy =            376.2865710373615116
    One-Electron Energy =               -1267.4763940515692866
    Two-Electron Energy =                 508.3047828922931899
    Total Energy =                       -382.8850401219146420
  Basis Set: (AUG-CC-PVTZ AUX)
    Blend: AUG-CC-PVTZ-RI
    Molecular point group: c1

    Geometry (in Angstrom), charge = 0, multiplicity = 1:

       Center              X                  Y                   Z               Mass
    ------------   -----------------  -----------------  -----------------  -----------------
         O           -0.974807081070    -0.462712920493    -0.000003096684    15.994914619570
         O            0.269274918930     1.444043079507     0.000001903316    15.994914619570
         C            1.354290918930    -0.696212920493    -0.000000096684    12.000000000000
         C            2.585363918930    -0.225336920493     0.744769903316    12.000000000000
         C            2.585363918930    -0.225334920493    -0.744769096684    12.000000000000
         C            0.155263218930     0.253998979507     0.000000903316    12.000000000000
         C           -2.160455081070     0.370805079507    -0.000003096684    12.000000000000
         C           -3.346477081070    -0.566289920493     0.000002903316    12.000000000000
         H            1.123952918930    -1.755480920493    -0.000001096684     1.007825032230
         H            3.162375918930    -0.979264920493     1.269081903316     1.007825032230
         H            2.498580918930     0.733147079507     1.244565903316     1.007825032230
         H            2.498579918930     0.733150079507    -1.244564096684     1.007825032230
         H            3.162375918930    -0.979261920493    -1.269083096684     1.007825032230
         H           -2.139689081070     1.014676079507     0.883435903316     1.007825032230
         H           -2.139693081070     1.014669079507    -0.883447096684     1.007825032230
         H           -4.276224081070     0.009657079507     0.000002903316     1.007825032230
         H           -3.331915081070    -1.203338920493    -0.886832096684     1.007825032230
         H           -3.331912081070    -1.203331920493     0.886842903316     1.007825032230

  Basis Set: AUG-CC-PVTZ
    Blend: AUG-CC-PVTZ
  Basis Set: (AUG-CC-PVTZ AUX)
    Blend: AUG-CC-PVTZ-JKFIT
	 Reference Energy          =    -382.8850401219146420 [Eh]
	 Singles Energy            =      -0.0000000000000000 [Eh]
	 Same-Spin Energy          =      -0.3844259808201095 [Eh]
	 Opposite-Spin Energy      =      -1.2532696242422439 [Eh]
	 Correlation Energy        =      -1.6376956050623535 [Eh]
	 Total Energy              =    -384.5227357269769755 [Eh]

	 ================> DF-SCS-MP2 Energies <==================
	-----------------------------------------------------------
	 SCS Same-Spin Scale       =       0.3333333333333333 [-]
	 SCS Opposite-Spin Scale   =       1.2000000000000000 [-]
	 SCS Same-Spin Energy      =      -0.1281419936067031 [Eh]
	 SCS Opposite-Spin Energy  =      -1.5039235490906926 [Eh]
	 SCS Correlation Energy    =      -1.6320655426973958 [Eh]
	 SCS Total Energy          =    -384.5171056646120178 [Eh]
	-----------------------------------------------------------

  Dipole Moment: [D]
     X:    -0.8234      Y:    -1.4600      Z:    -0.0000     Total:     1.6762

*** Psi4 exiting successfully. Buy a developer a beer!
