                               Psi4 1.3.2 release

  ==> Input File <==

--------------------------------------------------------------------------
#psi4
#
memory 32 gb

molecule  {
0 1
  O       -0.9795948    -0.3975968    -0.0000029
  O        0.2877040     1.4679350     0.0000020
  C        1.3727200    -0.6723210     0.0000000
  C        2.6037930    -0.2014450     0.7447700
  C        2.6037930    -0.2014430    -0.7447690
  C        0.2128790     0.2468360     0.0000010
  C       -2.1420260     0.3946970    -0.0000030
  C       -3.3280480    -0.5423980     0.0000030
  H        1.1423820    -1.7315890    -0.0000010
  H        3.1808050    -0.9553730     1.2690820
  H        2.5170100     0.7570390     1.2445660
  H        2.5170090     0.7570420    -1.2445640
  H        3.1808050    -0.9553700    -1.2690830
  H       -2.1212600     1.0385680     0.8834360
  H       -2.1212640     1.0385610    -0.8834470
  H       -4.2577950     0.0335490     0.0000030
  H       -3.3134860    -1.1794470    -0.8868320
  H       -3.3134830    -1.1794400     0.8868430
units angstrom
no_reorient  #important for SAPT in psi4, default
symmetry c1  #important for SAPT in psi4, default
}

set PROPERTIES_ORIGIN ["COM"]
properties('MP2/aug-cc-pvtz', properties = ['dipole'])
--------------------------------------------------------------------------

    Molecular point group: c1
  Charge       = 0
  Multiplicity = 1
  Basis Set: AUG-CC-PVTZ
    Blend: AUG-CC-PVTZ
  Basis Set: (AUG-CC-PVTZ AUX)
    Blend: AUG-CC-PVTZ-JKFIT

    Orbital Energies [Eh]
    ---------------------

    Doubly Occupied:

       1A    -20.597831     2A    -20.535451     3A    -11.379573
       4A    -11.281661     5A    -11.250659     6A    -11.243222
       7A    -11.242513     8A    -11.221873     9A     -1.455908
      10A     -1.349585    11A     -1.161012    12A     -1.041013
      13A     -0.923297    14A     -0.837115    15A     -0.834437
      16A     -0.767054    17A     -0.722338    18A     -0.681446
      19A     -0.670518    20A     -0.648025    21A     -0.596174
      22A     -0.581876    23A     -0.552572    24A     -0.546737
      25A     -0.530250    26A     -0.507148    27A     -0.504650
      28A     -0.452780    29A     -0.451582    30A     -0.438437
      31A     -0.426918

  @DF-RHF Final Energy:  -382.88574188791023

   => Energetics <=

    Nuclear Repulsion Energy =            376.6838283176600726
    One-Electron Energy =               -1268.2718273423408846
    Two-Electron Energy =                 508.7022571367705837
    Total Energy =                       -382.8857418879102283
  Basis Set: (AUG-CC-PVTZ AUX)
    Blend: AUG-CC-PVTZ-RI
    Molecular point group: c1

    Geometry (in Angstrom), charge = 0, multiplicity = 1:

       Center              X                  Y                   Z               Mass
    ------------   -----------------  -----------------  -----------------  -----------------
         O           -0.998890816558    -0.424002296249    -0.000003010706    15.994914619570
         O            0.268407983442     1.441529503751     0.000001889294    15.994914619570
         C            1.353423983442    -0.698726496249    -0.000000110706    12.000000000000
         C            2.584496983442    -0.227850496249     0.744769889294    12.000000000000
         C            2.584496983442    -0.227848496249    -0.744769110706    12.000000000000
         C            0.193582983442     0.220430503751     0.000000889294    12.000000000000
         C           -2.161322016558     0.368291503751    -0.000003110706    12.000000000000
         C           -3.347344016558    -0.568803496249     0.000002889294    12.000000000000
         H            1.123085983442    -1.757994496249    -0.000001110706     1.007825032230
         H            3.161508983442    -0.981778496249     1.269081889294     1.007825032230
         H            2.497713983442     0.730633503751     1.244565889294     1.007825032230
         H            2.497712983442     0.730636503751    -1.244564110706     1.007825032230
         H            3.161508983442    -0.981775496249    -1.269083110706     1.007825032230
         H           -2.140556016558     1.012162503751     0.883435889294     1.007825032230
         H           -2.140560016558     1.012155503751    -0.883447110706     1.007825032230
         H           -4.277091016558     0.007143503751     0.000002889294     1.007825032230
         H           -3.332782016558    -1.205852496249    -0.886832110706     1.007825032230
         H           -3.332779016558    -1.205845496249     0.886842889294     1.007825032230

  Basis Set: AUG-CC-PVTZ
    Blend: AUG-CC-PVTZ
  Basis Set: (AUG-CC-PVTZ AUX)
    Blend: AUG-CC-PVTZ-JKFIT
	 Reference Energy          =    -382.8857418879102283 [Eh]
	 Singles Energy            =      -0.0000000000000000 [Eh]
	 Same-Spin Energy          =      -0.3849743089293401 [Eh]
	 Opposite-Spin Energy      =      -1.2535172465628088 [Eh]
	 Correlation Energy        =      -1.6384915554921489 [Eh]
	 Total Energy              =    -384.5242334434023519 [Eh]

	 ================> DF-SCS-MP2 Energies <==================
	-----------------------------------------------------------
	 SCS Same-Spin Scale       =       0.3333333333333333 [-]
	 SCS Opposite-Spin Scale   =       1.2000000000000000 [-]
	 SCS Same-Spin Energy      =      -0.1283247696431134 [Eh]
	 SCS Opposite-Spin Energy  =      -1.5042206958753706 [Eh]
	 SCS Correlation Energy    =      -1.6325454655184839 [Eh]
	 SCS Total Energy          =    -384.5182873534287182 [Eh]
	-----------------------------------------------------------

  Dipole Moment: [D]
     X:    -0.2659      Y:    -1.7245      Z:    -0.0000     Total:     1.7449

*** Psi4 exiting successfully. Buy a developer a beer!
