                               Psi4 1.3.2 release

  ==> Input File <==

--------------------------------------------------------------------------
#psi4
#
memory 32 gb

molecule  {
0 1
  O       -0.9563780    -0.4388210    -0.0000030
  O        0.2877040     1.4679350     0.0000020
  C        1.3727200    -0.6723210     0.0000000
  C        2.5509852    -0.1131024     0.7687086
  C        2.6037930    -0.2014430    -0.7447690
  C        0.2128790     0.2468360     0.0000010
  C       -2.1420260     0.3946970    -0.0000030
  C       -3.3280480    -0.5423980     0.0000030
  H        1.1423820    -1.7315890    -0.0000010
  H        3.1808050    -0.9553730     1.2690820
  H        2.5170100     0.7570390     1.2445660
  H        2.5170090     0.7570420    -1.2445640
  H        3.1808050    -0.9553700    -1.2690830
  H       -2.1212600     1.0385680     0.8834360
  H       -2.1212640     1.0385610    -0.8834470
  H       -4.2577950     0.0335490     0.0000030
  H       -3.3134860    -1.1794470    -0.8868320
  H       -3.3134830    -1.1794400     0.8868430
units angstrom
no_reorient  #important for SAPT in psi4, default
symmetry c1  #important for SAPT in psi4, default
}

set PROPERTIES_ORIGIN ["COM"]
properties('MP2/aug-cc-pvtz', properties = ['dipole'])
--------------------------------------------------------------------------

    Molecular point group: c1
  Charge       = 0
  Multiplicity = 1
  Basis Set: AUG-CC-PVTZ
    Blend: AUG-CC-PVTZ
  Basis Set: (AUG-CC-PVTZ AUX)
    Blend: AUG-CC-PVTZ-JKFIT

    Orbital Energies [Eh]
    ---------------------

    Doubly Occupied:

       1A    -20.600355     2A    -20.535853     3A    -11.377679
       4A    -11.286562     5A    -11.250173     6A    -11.242516
       7A    -11.241886     8A    -11.223722     9A     -1.448927
      10A     -1.347619    11A     -1.155881    12A     -1.040768
      13A     -0.918498    14A     -0.839982    15A     -0.835843
      16A     -0.764878    17A     -0.721163    18A     -0.676585
      19A     -0.673165    20A     -0.639005    21A     -0.597103
      22A     -0.583354    23A     -0.555118    24A     -0.542174
      25A     -0.527563    26A     -0.511455    27A     -0.510008
      28A     -0.457456    29A     -0.451161    30A     -0.428329
      31A     -0.426221

  @DF-RHF Final Energy:  -382.87107189547152

   => Energetics <=

    Nuclear Repulsion Energy =            376.4438090021301377
    One-Electron Energy =               -1267.8077560063638884
    Two-Electron Energy =                 508.4928751087622345
    Total Energy =                       -382.8710718954715162
  Basis Set: (AUG-CC-PVTZ AUX)
    Blend: AUG-CC-PVTZ-RI
    Molecular point group: c1

    Geometry (in Angstrom), charge = 0, multiplicity = 1:

       Center              X                  Y                   Z               Mass
    ------------   -----------------  -----------------  -----------------  -----------------
         O           -0.973374136808    -0.468739605633    -0.002521445385    15.994914619570
         O            0.270707863192     1.438016394367    -0.002516445385    15.994914619570
         C            1.355723863192    -0.702239605633    -0.002518445385    12.000000000000
         C            2.533989063192    -0.143021005633     0.766190154615    12.000000000000
         C            2.586796863192    -0.231361605633    -0.747287445385    12.000000000000
         C            0.195882863192     0.216917394367    -0.002517445385    12.000000000000
         C           -2.159022136808     0.364778394367    -0.002521445385    12.000000000000
         C           -3.345044136808    -0.572316605633    -0.002515445385    12.000000000000
         H            1.125385863192    -1.761507605633    -0.002519445385     1.007825032230
         H            3.163808863192    -0.985291605633     1.266563554615     1.007825032230
         H            2.500013863192     0.727120394367     1.242047554615     1.007825032230
         H            2.500012863192     0.727123394367    -1.247082445385     1.007825032230
         H            3.163808863192    -0.985288605633    -1.271601445385     1.007825032230
         H           -2.138256136808     1.008649394367     0.880917554615     1.007825032230
         H           -2.138260136808     1.008642394367    -0.885965445385     1.007825032230
         H           -4.274791136808     0.003630394367    -0.002515445385     1.007825032230
         H           -3.330482136808    -1.209365605633    -0.889350445385     1.007825032230
         H           -3.330479136808    -1.209358605633     0.884324554615     1.007825032230

  Basis Set: AUG-CC-PVTZ
    Blend: AUG-CC-PVTZ
  Basis Set: (AUG-CC-PVTZ AUX)
    Blend: AUG-CC-PVTZ-JKFIT
	 Reference Energy          =    -382.8710718954715162 [Eh]
	 Singles Energy            =      -0.0000000000000000 [Eh]
	 Same-Spin Energy          =      -0.3854097818225118 [Eh]
	 Opposite-Spin Energy      =      -1.2555899529054284 [Eh]
	 Correlation Energy        =      -1.6409997347279401 [Eh]
	 Total Energy              =    -384.5120716301994435 [Eh]

	 ================> DF-SCS-MP2 Energies <==================
	-----------------------------------------------------------
	 SCS Same-Spin Scale       =       0.3333333333333333 [-]
	 SCS Opposite-Spin Scale   =       1.2000000000000000 [-]
	 SCS Same-Spin Energy      =      -0.1284699272741706 [Eh]
	 SCS Opposite-Spin Energy  =      -1.5067079434865140 [Eh]
	 SCS Correlation Energy    =      -1.6351778707606845 [Eh]
	 SCS Total Energy          =    -384.5062497662322016 [Eh]
	-----------------------------------------------------------

  Dipole Moment: [D]
     X:    -0.4978      Y:    -1.6173      Z:    -0.0421     Total:     1.6927

*** Psi4 exiting successfully. Buy a developer a beer!
