                               Psi4 1.3.2 release

  ==> Input File <==

--------------------------------------------------------------------------
#psi4
#
memory 32 gb

molecule  {
0 1
  O       -0.9563780    -0.4388210    -0.0000030
  O        0.2877040     1.4679350     0.0000020
  C        1.3727200    -0.6723210     0.0000000
  C        2.6037930    -0.2014450     0.7447700
  C        2.6037930    -0.2014430    -0.7447690
  C        0.1231547     0.1205644     0.0000009
  C       -2.1420260     0.3946970    -0.0000030
  C       -3.3280480    -0.5423980     0.0000030
  H        1.1423820    -1.7315890    -0.0000010
  H        3.1808050    -0.9553730     1.2690820
  H        2.5170100     0.7570390     1.2445660
  H        2.5170090     0.7570420    -1.2445640
  H        3.1808050    -0.9553700    -1.2690830
  H       -2.1212600     1.0385680     0.8834360
  H       -2.1212640     1.0385610    -0.8834470
  H       -4.2577950     0.0335490     0.0000030
  H       -3.3134860    -1.1794470    -0.8868320
  H       -3.3134830    -1.1794400     0.8868430
units angstrom
no_reorient  #important for SAPT in psi4, default
symmetry c1  #important for SAPT in psi4, default
}

set PROPERTIES_ORIGIN ["COM"]
properties('MP2/aug-cc-pvtz', properties = ['dipole'])
--------------------------------------------------------------------------

    Molecular point group: c1
  Charge       = 0
  Multiplicity = 1
  Basis Set: AUG-CC-PVTZ
    Blend: AUG-CC-PVTZ
  Basis Set: (AUG-CC-PVTZ AUX)
    Blend: AUG-CC-PVTZ-JKFIT

    Orbital Energies [Eh]
    ---------------------

    Doubly Occupied:

       1A    -20.634768     2A    -20.500481     3A    -11.378724
       4A    -11.304580     5A    -11.245296     6A    -11.238114
       7A    -11.237407     8A    -11.234957     9A     -1.516894
      10A     -1.266105    11A     -1.150088    12A     -1.070363
      13A     -0.934822    14A     -0.851428    15A     -0.827686
      16A     -0.796665    17A     -0.707251    18A     -0.706616
      19A     -0.679363    20A     -0.641382    21A     -0.598072
      22A     -0.589127    23A     -0.563010    24A     -0.535392
      25A     -0.522796    26A     -0.509799    27A     -0.497001
      28A     -0.445802    29A     -0.442313    30A     -0.416232
      31A     -0.402397

  @DF-RHF Final Energy:  -382.84767492922441

   => Energetics <=

    Nuclear Repulsion Energy =            376.2728004512050006
    One-Electron Energy =               -1267.3510937949304207
    Two-Electron Energy =                 508.2306184145009524
    Total Energy =                       -382.8476749292244108
  Basis Set: (AUG-CC-PVTZ AUX)
    Blend: AUG-CC-PVTZ-RI
    Molecular point group: c1

    Geometry (in Angstrom), charge = 0, multiplicity = 1:

       Center              X                  Y                   Z               Mass
    ------------   -----------------  -----------------  -----------------  -----------------
         O           -0.969490508700    -0.446162120241    -0.000003086164    15.994914619570
         O            0.274591491300     1.460593879759     0.000001913836    15.994914619570
         C            1.359607491300    -0.679662120241    -0.000000086164    12.000000000000
         C            2.590680491300    -0.208786120241     0.744769913836    12.000000000000
         C            2.590680491300    -0.208784120241    -0.744769086164    12.000000000000
         C            0.110042191300     0.113223279759     0.000000813836    12.000000000000
         C           -2.155138508700     0.387355879759    -0.000003086164    12.000000000000
         C           -3.341160508700    -0.549739120241     0.000002913836    12.000000000000
         H            1.129269491300    -1.738930120241    -0.000001086164     1.007825032230
         H            3.167692491300    -0.962714120241     1.269081913836     1.007825032230
         H            2.503897491300     0.749697879759     1.244565913836     1.007825032230
         H            2.503896491300     0.749700879759    -1.244564086164     1.007825032230
         H            3.167692491300    -0.962711120241    -1.269083086164     1.007825032230
         H           -2.134372508700     1.031226879759     0.883435913836     1.007825032230
         H           -2.134376508700     1.031219879759    -0.883447086164     1.007825032230
         H           -4.270907508700     0.026207879759     0.000002913836     1.007825032230
         H           -3.326598508700    -1.186788120241    -0.886832086164     1.007825032230
         H           -3.326595508700    -1.186781120241     0.886842913836     1.007825032230

  Basis Set: AUG-CC-PVTZ
    Blend: AUG-CC-PVTZ
  Basis Set: (AUG-CC-PVTZ AUX)
    Blend: AUG-CC-PVTZ-JKFIT
	 Reference Energy          =    -382.8476749292244108 [Eh]
	 Singles Energy            =      -0.0000000000000000 [Eh]
	 Same-Spin Energy          =      -0.3863467489274464 [Eh]
	 Opposite-Spin Energy      =      -1.2566185103628458 [Eh]
	 Correlation Energy        =      -1.6429652592902921 [Eh]
	 Total Energy              =    -384.4906401885147034 [Eh]

	 ================> DF-SCS-MP2 Energies <==================
	-----------------------------------------------------------
	 SCS Same-Spin Scale       =       0.3333333333333333 [-]
	 SCS Opposite-Spin Scale   =       1.2000000000000000 [-]
	 SCS Same-Spin Energy      =      -0.1287822496424821 [Eh]
	 SCS Opposite-Spin Energy  =      -1.5079422124354149 [Eh]
	 SCS Correlation Energy    =      -1.6367244620778971 [Eh]
	 SCS Total Energy          =    -384.4843993913023041 [Eh]
	-----------------------------------------------------------

  Dipole Moment: [D]
     X:    -1.5271      Y:    -2.4059      Z:    -0.0000     Total:     2.8496

*** Psi4 exiting successfully. Buy a developer a beer!
