                               Psi4 1.3.2 release

  ==> Input File <==

--------------------------------------------------------------------------
#psi4
#
memory 32 gb

molecule  {
0 1
  O       -0.9563780    -0.4388210    -0.0000030
  O        0.2877040     1.4679350     0.0000020
  C        1.3727200    -0.6723210     0.0000000
  C        2.6037930    -0.2014450     0.7447700
  C        2.6037930    -0.2014430    -0.7447690
  C        0.3153108     0.3630372     0.0000011
  C       -2.1420260     0.3946970    -0.0000030
  C       -3.3280480    -0.5423980     0.0000030
  H        1.1423820    -1.7315890    -0.0000010
  H        3.1808050    -0.9553730     1.2690820
  H        2.5170100     0.7570390     1.2445660
  H        2.5170090     0.7570420    -1.2445640
  H        3.1808050    -0.9553700    -1.2690830
  H       -2.1212600     1.0385680     0.8834360
  H       -2.1212640     1.0385610    -0.8834470
  H       -4.2577950     0.0335490     0.0000030
  H       -3.3134860    -1.1794470    -0.8868320
  H       -3.3134830    -1.1794400     0.8868430
units angstrom
no_reorient  #important for SAPT in psi4, default
symmetry c1  #important for SAPT in psi4, default
}

set PROPERTIES_ORIGIN ["COM"]
properties('MP2/aug-cc-pvtz', properties = ['dipole'])
--------------------------------------------------------------------------

    Molecular point group: c1
  Charge       = 0
  Multiplicity = 1
  Basis Set: AUG-CC-PVTZ
    Blend: AUG-CC-PVTZ
  Basis Set: (AUG-CC-PVTZ AUX)
    Blend: AUG-CC-PVTZ-JKFIT

    Orbital Energies [Eh]
    ---------------------

    Doubly Occupied:

       1A    -20.568357     2A    -20.559055     3A    -11.374333
       4A    -11.267861     5A    -11.254655     6A    -11.246510
       7A    -11.245798     8A    -11.211375     9A     -1.496118
      10A     -1.334875    11A     -1.169675    12A     -1.014699
      13A     -0.909810    14A     -0.839950    15A     -0.820876
      16A     -0.754014    17A     -0.730425    18A     -0.693396
      19A     -0.659392    20A     -0.650335    21A     -0.605161
      22A     -0.589302    23A     -0.562274    24A     -0.535971
      25A     -0.531490    26A     -0.513297    27A     -0.503285
      28A     -0.457750    29A     -0.447905    30A     -0.429585
      31A     -0.422921

  @DF-RHF Final Energy:  -382.85592694508432

   => Energetics <=

    Nuclear Repulsion Energy =            376.3287837752440623
    One-Electron Energy =               -1267.5685186435662217
    Two-Electron Energy =                 508.3838079232377822
    Total Energy =                       -382.8559269450843203
  Basis Set: (AUG-CC-PVTZ AUX)
    Blend: AUG-CC-PVTZ-RI
    Molecular point group: c1

    Geometry (in Angstrom), charge = 0, multiplicity = 1:

       Center              X                  Y                   Z               Mass
    ------------   -----------------  -----------------  -----------------  -----------------
         O           -0.989705394485    -0.471670339641    -0.000003107204    15.994914619570
         O            0.254376605515     1.435085660359     0.000001892796    15.994914619570
         C            1.339392605515    -0.705170339641    -0.000000107204    12.000000000000
         C            2.570465605515    -0.234294339641     0.744769892796    12.000000000000
         C            2.570465605515    -0.234292339641    -0.744769107204    12.000000000000
         C            0.281983405515     0.330187860359     0.000000992796    12.000000000000
         C           -2.175353394485     0.361847660359    -0.000003107204    12.000000000000
         C           -3.361375394485    -0.575247339641     0.000002892796    12.000000000000
         H            1.109054605515    -1.764438339641    -0.000001107204     1.007825032230
         H            3.147477605515    -0.988222339641     1.269081892796     1.007825032230
         H            2.483682605515     0.724189660359     1.244565892796     1.007825032230
         H            2.483681605515     0.724192660359    -1.244564107204     1.007825032230
         H            3.147477605515    -0.988219339641    -1.269083107204     1.007825032230
         H           -2.154587394485     1.005718660359     0.883435892796     1.007825032230
         H           -2.154591394485     1.005711660359    -0.883447107204     1.007825032230
         H           -4.291122394485     0.000699660359     0.000002892796     1.007825032230
         H           -3.346813394485    -1.212296339641    -0.886832107204     1.007825032230
         H           -3.346810394485    -1.212289339641     0.886842892796     1.007825032230

  Basis Set: AUG-CC-PVTZ
    Blend: AUG-CC-PVTZ
  Basis Set: (AUG-CC-PVTZ AUX)
    Blend: AUG-CC-PVTZ-JKFIT
	 Reference Energy          =    -382.8559269450843203 [Eh]
	 Singles Energy            =      -0.0000000000000000 [Eh]
	 Same-Spin Energy          =      -0.3849598483026369 [Eh]
	 Opposite-Spin Energy      =      -1.2543790113705451 [Eh]
	 Correlation Energy        =      -1.6393388596731819 [Eh]
	 Total Energy              =    -384.4952658047574801 [Eh]

	 ================> DF-SCS-MP2 Energies <==================
	-----------------------------------------------------------
	 SCS Same-Spin Scale       =       0.3333333333333333 [-]
	 SCS Opposite-Spin Scale   =       1.2000000000000000 [-]
	 SCS Same-Spin Energy      =      -0.1283199494342123 [Eh]
	 SCS Opposite-Spin Energy  =      -1.5052548136446540 [Eh]
	 SCS Correlation Energy    =      -1.6335747630788662 [Eh]
	 SCS Total Energy          =    -384.4895017081631750 [Eh]
	-----------------------------------------------------------

  Dipole Moment: [D]
     X:     0.8138      Y:    -0.8606      Z:     0.0000     Total:     1.1845

*** Psi4 exiting successfully. Buy a developer a beer!
