                               Psi4 1.3.2 release

  ==> Input File <==

--------------------------------------------------------------------------
#psi4
#
memory 32 gb

molecule  {
0 1
  O       -0.9563780    -0.4388210    -0.0000030
  O        0.2877040     1.4679350     0.0000020
  C        1.3727200    -0.6723210     0.0000000
  C        2.5781234    -0.1569598     0.7572006
  C        2.6037930    -0.2014430    -0.7447690
  C        0.2128790     0.2468360     0.0000010
  C       -2.1420260     0.3946970    -0.0000030
  C       -3.3280480    -0.5423980     0.0000030
  H        1.1423820    -1.7315890    -0.0000010
  H        3.1808050    -0.9553730     1.2690820
  H        2.5170100     0.7570390     1.2445660
  H        2.5170090     0.7570420    -1.2445640
  H        3.1808050    -0.9553700    -1.2690830
  H       -2.1212600     1.0385680     0.8834360
  H       -2.1212640     1.0385610    -0.8834470
  H       -4.2577950     0.0335490     0.0000030
  H       -3.3134860    -1.1794470    -0.8868320
  H       -3.3134830    -1.1794400     0.8868430
units angstrom
no_reorient  #important for SAPT in psi4, default
symmetry c1  #important for SAPT in psi4, default
}

set PROPERTIES_ORIGIN ["COM"]
properties('MP2/aug-cc-pvtz', properties = ['dipole'])
--------------------------------------------------------------------------

    Molecular point group: c1
  Charge       = 0
  Multiplicity = 1
  Basis Set: AUG-CC-PVTZ
    Blend: AUG-CC-PVTZ
  Basis Set: (AUG-CC-PVTZ AUX)
    Blend: AUG-CC-PVTZ-JKFIT

    Orbital Energies [Eh]
    ---------------------

    Doubly Occupied:

       1A    -20.600248     2A    -20.535881     3A    -11.377761
       4A    -11.286507     5A    -11.248606     6A    -11.241659
       7A    -11.240984     8A    -11.223642     9A     -1.448748
      10A     -1.347388    11A     -1.157262    12A     -1.040790
      13A     -0.918904    14A     -0.836090    15A     -0.834940
      16A     -0.764025    17A     -0.720612    18A     -0.676452
      19A     -0.671060    20A     -0.641263    21A     -0.594839
      22A     -0.583439    23A     -0.554787    24A     -0.542338
      25A     -0.529132    26A     -0.511380    27A     -0.508692
      28A     -0.456932    29A     -0.451477    30A     -0.431870
      31A     -0.426559

  @DF-RHF Final Energy:  -382.88172184166257

   => Energetics <=

    Nuclear Repulsion Energy =            376.2406473002413350
    One-Electron Energy =               -1267.4362057106977772
    Two-Electron Energy =                 508.3138365687938744
    Total Energy =                       -382.8817218416625678
  Basis Set: (AUG-CC-PVTZ AUX)
    Blend: AUG-CC-PVTZ-RI
    Molecular point group: c1

    Geometry (in Angstrom), charge = 0, multiplicity = 1:

       Center              X                  Y                   Z               Mass
    ------------   -----------------  -----------------  -----------------  -----------------
         O           -0.976229084496    -0.464125792531    -0.001310799948    15.994914619570
         O            0.267852915504     1.442630207469    -0.001305799948    15.994914619570
         C            1.352868915504    -0.697625792531    -0.001307799948    12.000000000000
         C            2.558272315504    -0.182264592531     0.755892800052    12.000000000000
         C            2.583941915504    -0.226747792531    -0.746076799948    12.000000000000
         C            0.193027915504     0.221531207469    -0.001306799948    12.000000000000
         C           -2.161877084496     0.369392207469    -0.001310799948    12.000000000000
         C           -3.347899084496    -0.567702792531    -0.001304799948    12.000000000000
         H            1.122530915504    -1.756893792531    -0.001308799948     1.007825032230
         H            3.160953915504    -0.980677792531     1.267774200052     1.007825032230
         H            2.497158915504     0.731734207469     1.243258200052     1.007825032230
         H            2.497157915504     0.731737207469    -1.245871799948     1.007825032230
         H            3.160953915504    -0.980674792531    -1.270390799948     1.007825032230
         H           -2.141111084496     1.013263207469     0.882128200052     1.007825032230
         H           -2.141115084496     1.013256207469    -0.884754799948     1.007825032230
         H           -4.277646084496     0.008244207469    -0.001304799948     1.007825032230
         H           -3.333337084496    -1.204751792531    -0.888139799948     1.007825032230
         H           -3.333334084496    -1.204744792531     0.885535200052     1.007825032230

  Basis Set: AUG-CC-PVTZ
    Blend: AUG-CC-PVTZ
  Basis Set: (AUG-CC-PVTZ AUX)
    Blend: AUG-CC-PVTZ-JKFIT
	 Reference Energy          =    -382.8817218416625678 [Eh]
	 Singles Energy            =      -0.0000000000000000 [Eh]
	 Same-Spin Energy          =      -0.3853054259345693 [Eh]
	 Opposite-Spin Energy      =      -1.2550057814314415 [Eh]
	 Correlation Energy        =      -1.6403112073660107 [Eh]
	 Total Energy              =    -384.5220330490285505 [Eh]

	 ================> DF-SCS-MP2 Energies <==================
	-----------------------------------------------------------
	 SCS Same-Spin Scale       =       0.3333333333333333 [-]
	 SCS Opposite-Spin Scale   =       1.2000000000000000 [-]
	 SCS Same-Spin Energy      =      -0.1284351419781898 [Eh]
	 SCS Opposite-Spin Energy  =      -1.5060069377177296 [Eh]
	 SCS Correlation Energy    =      -1.6344420796959194 [Eh]
	 SCS Total Energy          =    -384.5161639213584976 [Eh]
	-----------------------------------------------------------

  Dipole Moment: [D]
     X:    -0.4709      Y:    -1.6225      Z:    -0.0152     Total:     1.6895

*** Psi4 exiting successfully. Buy a developer a beer!
