                               Psi4 1.3.2 release

  ==> Input File <==

--------------------------------------------------------------------------
#psi4
#
memory 32 gb

molecule  {
0 1
  O       -1.0013588    -0.3555875    -0.0000028
  O        0.2877040     1.4679350     0.0000020
  C        1.3727200    -0.6723210     0.0000000
  C        2.6037930    -0.2014450     0.7447700
  C        2.6037930    -0.2014430    -0.7447690
  C        0.2128790     0.2468360     0.0000010
  C       -2.1420260     0.3946970    -0.0000030
  C       -3.3280480    -0.5423980     0.0000030
  H        1.1423820    -1.7315890    -0.0000010
  H        3.1808050    -0.9553730     1.2690820
  H        2.5170100     0.7570390     1.2445660
  H        2.5170090     0.7570420    -1.2445640
  H        3.1808050    -0.9553700    -1.2690830
  H       -2.1212600     1.0385680     0.8834360
  H       -2.1212640     1.0385610    -0.8834470
  H       -4.2577950     0.0335490     0.0000030
  H       -3.3134860    -1.1794470    -0.8868320
  H       -3.3134830    -1.1794400     0.8868430
units angstrom
no_reorient  #important for SAPT in psi4, default
symmetry c1  #important for SAPT in psi4, default
}

set PROPERTIES_ORIGIN ["COM"]
properties('MP2/aug-cc-pvtz', properties = ['dipole'])
--------------------------------------------------------------------------

    Molecular point group: c1
  Charge       = 0
  Multiplicity = 1
  Basis Set: AUG-CC-PVTZ
    Blend: AUG-CC-PVTZ
  Basis Set: (AUG-CC-PVTZ AUX)
    Blend: AUG-CC-PVTZ-JKFIT

    Orbital Energies [Eh]
    ---------------------

    Doubly Occupied:

       1A    -20.594965     2A    -20.534871     3A    -11.381377
       4A    -11.277056     5A    -11.253803     6A    -11.245109
       7A    -11.244396     8A    -11.220149     9A     -1.464060
      10A     -1.352094    11A     -1.163088    12A     -1.041461
      13A     -0.927067    14A     -0.839383    15A     -0.836135
      16A     -0.769834    17A     -0.725045    18A     -0.687123
      19A     -0.671274    20A     -0.650000    21A     -0.600634
      22A     -0.580161    23A     -0.552463    24A     -0.548979
      25A     -0.531801    26A     -0.507716    27A     -0.497455
      28A     -0.453015    29A     -0.445805    30A     -0.441003
      31A     -0.428463

  @DF-RHF Final Energy:  -382.88265710229183

   => Energetics <=

    Nuclear Repulsion Energy =            377.3377130711292011
    One-Electron Energy =               -1269.5091716732688383
    Two-Electron Energy =                 509.2888014998478070
    Total Energy =                       -382.8826571022918301
  Basis Set: (AUG-CC-PVTZ AUX)
    Blend: AUG-CC-PVTZ-RI
    Molecular point group: c1

    Geometry (in Angstrom), charge = 0, multiplicity = 1:

       Center              X                  Y                   Z               Mass
    ------------   -----------------  -----------------  -----------------  -----------------
         O           -1.017603013432    -0.387883646546    -0.000002924729    15.994914619570
         O            0.271459786568     1.435638853454     0.000001875271    15.994914619570
         C            1.356475786568    -0.704617146546    -0.000000124729    12.000000000000
         C            2.587548786568    -0.233741146546     0.744769875271    12.000000000000
         C            2.587548786568    -0.233739146546    -0.744769124729    12.000000000000
         C            0.196634786568     0.214539853454     0.000000875271    12.000000000000
         C           -2.158270213432     0.362400853454    -0.000003124729    12.000000000000
         C           -3.344292213432    -0.574694146546     0.000002875271    12.000000000000
         H            1.126137786568    -1.763885146546    -0.000001124729     1.007825032230
         H            3.164560786568    -0.987669146546     1.269081875271     1.007825032230
         H            2.500765786568     0.724742853454     1.244565875271     1.007825032230
         H            2.500764786568     0.724745853454    -1.244564124729     1.007825032230
         H            3.164560786568    -0.987666146546    -1.269083124729     1.007825032230
         H           -2.137504213432     1.006271853454     0.883435875271     1.007825032230
         H           -2.137508213432     1.006264853454    -0.883447124729     1.007825032230
         H           -4.274039213432     0.001252853454     0.000002875271     1.007825032230
         H           -3.329730213432    -1.211743146546    -0.886832124729     1.007825032230
         H           -3.329727213432    -1.211736146546     0.886842875271     1.007825032230

  Basis Set: AUG-CC-PVTZ
    Blend: AUG-CC-PVTZ
  Basis Set: (AUG-CC-PVTZ AUX)
    Blend: AUG-CC-PVTZ-JKFIT
	 Reference Energy          =    -382.8826571022918301 [Eh]
	 Singles Energy            =      -0.0000000000000000 [Eh]
	 Same-Spin Energy          =      -0.3847705876227716 [Eh]
	 Opposite-Spin Energy      =      -1.2524984130935679 [Eh]
	 Correlation Energy        =      -1.6372690007163395 [Eh]
	 Total Energy              =    -384.5199261030081743 [Eh]

	 ================> DF-SCS-MP2 Energies <==================
	-----------------------------------------------------------
	 SCS Same-Spin Scale       =       0.3333333333333333 [-]
	 SCS Opposite-Spin Scale   =       1.2000000000000000 [-]
	 SCS Same-Spin Energy      =      -0.1282568625409238 [Eh]
	 SCS Opposite-Spin Energy  =      -1.5029980957122815 [Eh]
	 SCS Correlation Energy    =      -1.6312549582532054 [Eh]
	 SCS Total Energy          =    -384.5139120605450103 [Eh]
	-----------------------------------------------------------

  Dipole Moment: [D]
     X:    -0.0740      Y:    -1.8257      Z:    -0.0000     Total:     1.8272

*** Psi4 exiting successfully. Buy a developer a beer!
