                               Psi4 1.3.2 release

  ==> Input File <==

--------------------------------------------------------------------------
#psi4
#
memory 32 gb

molecule  {
0 1
  O       -0.9563780    -0.4388210    -0.0000030
  O        0.2877040     1.4679350     0.0000020
  C        1.3727200    -0.6723210     0.0000000
  C        2.6037930    -0.2014450     0.7447700
  C        2.6037930    -0.2014430    -0.7447690
  C        0.1515872     0.1636906     0.0000009
  C       -2.1420260     0.3946970    -0.0000030
  C       -3.3280480    -0.5423980     0.0000030
  H        1.1423820    -1.7315890    -0.0000010
  H        3.1808050    -0.9553730     1.2690820
  H        2.5170100     0.7570390     1.2445660
  H        2.5170090     0.7570420    -1.2445640
  H        3.1808050    -0.9553700    -1.2690830
  H       -2.1212600     1.0385680     0.8834360
  H       -2.1212640     1.0385610    -0.8834470
  H       -4.2577950     0.0335490     0.0000030
  H       -3.3134860    -1.1794470    -0.8868320
  H       -3.3134830    -1.1794400     0.8868430
units angstrom
no_reorient  #important for SAPT in psi4, default
symmetry c1  #important for SAPT in psi4, default
}

set PROPERTIES_ORIGIN ["COM"]
properties('MP2/aug-cc-pvtz', properties = ['dipole'])
--------------------------------------------------------------------------

    Molecular point group: c1
  Charge       = 0
  Multiplicity = 1
  Basis Set: AUG-CC-PVTZ
    Blend: AUG-CC-PVTZ
  Basis Set: (AUG-CC-PVTZ AUX)
    Blend: AUG-CC-PVTZ-JKFIT

    Orbital Energies [Eh]
    ---------------------

    Doubly Occupied:

       1A    -20.623700     2A    -20.512849     3A    -11.379277
       4A    -11.298549     5A    -11.245742     6A    -11.239075
       7A    -11.238370     8A    -11.231186     9A     -1.488969
      10A     -1.295218    11A     -1.153070    12A     -1.060116
      13A     -0.929232    14A     -0.846093    15A     -0.829243
      16A     -0.784933    17A     -0.710628    18A     -0.695665
      19A     -0.672955    20A     -0.641137    21A     -0.592535
      22A     -0.591028    23A     -0.558751    24A     -0.532549
      25A     -0.524753    26A     -0.511299    27A     -0.506521
      28A     -0.450422    29A     -0.442328    30A     -0.428117
      31A     -0.412362

  @DF-RHF Final Energy:  -382.86756339131819

   => Energetics <=

    Nuclear Repulsion Energy =            376.1435906777790592
    One-Electron Energy =               -1267.1689607825624080
    Two-Electron Energy =                 508.1578067134652201
    Total Energy =                       -382.8675633913181855
  Basis Set: (AUG-CC-PVTZ AUX)
    Blend: AUG-CC-PVTZ-RI
    Molecular point group: c1

    Geometry (in Angstrom), charge = 0, multiplicity = 1:

       Center              X                  Y                   Z               Mass
    ------------   -----------------  -----------------  -----------------  -----------------
         O           -0.972481617180    -0.450699010859    -0.000003086164    15.994914619570
         O            0.271600382820     1.456056989141     0.000001913836    15.994914619570
         C            1.356616382820    -0.684199010859    -0.000000086164    12.000000000000
         C            2.587689382820    -0.213323010859     0.744769913836    12.000000000000
         C            2.587689382820    -0.213321010859    -0.744769086164    12.000000000000
         C            0.135483582820     0.151812589141     0.000000813836    12.000000000000
         C           -2.158129617180     0.382818989141    -0.000003086164    12.000000000000
         C           -3.344151617180    -0.554276010859     0.000002913836    12.000000000000
         H            1.126278382820    -1.743467010859    -0.000001086164     1.007825032230
         H            3.164701382820    -0.967251010859     1.269081913836     1.007825032230
         H            2.500906382820     0.745160989141     1.244565913836     1.007825032230
         H            2.500905382820     0.745163989141    -1.244564086164     1.007825032230
         H            3.164701382820    -0.967248010859    -1.269083086164     1.007825032230
         H           -2.137363617180     1.026689989141     0.883435913836     1.007825032230
         H           -2.137367617180     1.026682989141    -0.883447086164     1.007825032230
         H           -4.273898617180     0.021670989141     0.000002913836     1.007825032230
         H           -3.329589617180    -1.191325010859    -0.886832086164     1.007825032230
         H           -3.329586617180    -1.191318010859     0.886842913836     1.007825032230

  Basis Set: AUG-CC-PVTZ
    Blend: AUG-CC-PVTZ
  Basis Set: (AUG-CC-PVTZ AUX)
    Blend: AUG-CC-PVTZ-JKFIT
	 Reference Energy          =    -382.8675633913181855 [Eh]
	 Singles Energy            =      -0.0000000000000000 [Eh]
	 Same-Spin Energy          =      -0.3860037309750273 [Eh]
	 Opposite-Spin Energy      =      -1.2559655700639414 [Eh]
	 Correlation Energy        =      -1.6419693010389687 [Eh]
	 Total Energy              =    -384.5095326923571406 [Eh]

	 ================> DF-SCS-MP2 Energies <==================
	-----------------------------------------------------------
	 SCS Same-Spin Scale       =       0.3333333333333333 [-]
	 SCS Opposite-Spin Scale   =       1.2000000000000000 [-]
	 SCS Same-Spin Energy      =      -0.1286679103250091 [Eh]
	 SCS Opposite-Spin Energy  =      -1.5071586840767297 [Eh]
	 SCS Correlation Energy    =      -1.6358265944017387 [Eh]
	 SCS Total Energy          =    -384.5033899857199344 [Eh]
	-----------------------------------------------------------

  Dipole Moment: [D]
     X:    -1.1850      Y:    -2.1399      Z:    -0.0000     Total:     2.4461

*** Psi4 exiting successfully. Buy a developer a beer!
