                               Psi4 1.3.2 release

  ==> Input File <==

--------------------------------------------------------------------------
#psi4
#
memory 32 gb

molecule  {
0 1
  O       -0.9563780    -0.4388210    -0.0000030
  O        0.2023422     1.4701800     0.0000020
  C        1.3727200    -0.6723210     0.0000000
  C        2.6037930    -0.2014450     0.7447700
  C        2.6037930    -0.2014430    -0.7447690
  C        0.2128790     0.2468360     0.0000010
  C       -2.1420260     0.3946970    -0.0000030
  C       -3.3280480    -0.5423980     0.0000030
  H        1.1423820    -1.7315890    -0.0000010
  H        3.1808050    -0.9553730     1.2690820
  H        2.5170100     0.7570390     1.2445660
  H        2.5170090     0.7570420    -1.2445640
  H        3.1808050    -0.9553700    -1.2690830
  H       -2.1212600     1.0385680     0.8834360
  H       -2.1212640     1.0385610    -0.8834470
  H       -4.2577950     0.0335490     0.0000030
  H       -3.3134860    -1.1794470    -0.8868320
  H       -3.3134830    -1.1794400     0.8868430
units angstrom
no_reorient  #important for SAPT in psi4, default
symmetry c1  #important for SAPT in psi4, default
}

set PROPERTIES_ORIGIN ["COM"]
properties('MP2/aug-cc-pvtz', properties = ['dipole'])
--------------------------------------------------------------------------

    Molecular point group: c1
  Charge       = 0
  Multiplicity = 1
  Basis Set: AUG-CC-PVTZ
    Blend: AUG-CC-PVTZ
  Basis Set: (AUG-CC-PVTZ AUX)
    Blend: AUG-CC-PVTZ-JKFIT

    Orbital Energies [Eh]
    ---------------------

    Doubly Occupied:

       1A    -20.594594     2A    -20.534655     3A    -11.377629
       4A    -11.283005     5A    -11.251950     6A    -11.244361
       7A    -11.243652     8A    -11.221108     9A     -1.448949
      10A     -1.341231    11A     -1.162782    12A     -1.038230
      13A     -0.920642    14A     -0.835557    15A     -0.834389
      16A     -0.761639    17A     -0.721420    18A     -0.673868
      19A     -0.669605    20A     -0.647077    21A     -0.592598
      22A     -0.581690    23A     -0.554274    24A     -0.541300
      25A     -0.530172    26A     -0.507394    27A     -0.505193
      28A     -0.453531    29A     -0.453526    30A     -0.436768
      31A     -0.428439

  @DF-RHF Final Energy:  -382.88399035092857

   => Energetics <=

    Nuclear Repulsion Energy =            376.1870617263093663
    One-Electron Energy =               -1267.3596455544238779
    Two-Electron Energy =                 508.2885934771859411
    Total Energy =                       -382.8839903509285705
  Basis Set: (AUG-CC-PVTZ AUX)
    Blend: AUG-CC-PVTZ-RI
    Molecular point group: c1

    Geometry (in Angstrom), charge = 0, multiplicity = 1:

       Center              X                  Y                   Z               Mass
    ------------   -----------------  -----------------  -----------------  -----------------
         O           -0.966959887480    -0.459760734238    -0.000003096684    15.994914619570
         O            0.191760312520     1.449240265762     0.000001903316    15.994914619570
         C            1.362138112520    -0.693260734238    -0.000000096684    12.000000000000
         C            2.593211112520    -0.222384734238     0.744769903316    12.000000000000
         C            2.593211112520    -0.222382734238    -0.744769096684    12.000000000000
         C            0.202297112520     0.225896265762     0.000000903316    12.000000000000
         C           -2.152607887480     0.373757265762    -0.000003096684    12.000000000000
         C           -3.338629887480    -0.563337734238     0.000002903316    12.000000000000
         H            1.131800112520    -1.752528734238    -0.000001096684     1.007825032230
         H            3.170223112520    -0.976312734238     1.269081903316     1.007825032230
         H            2.506428112520     0.736099265762     1.244565903316     1.007825032230
         H            2.506427112520     0.736102265762    -1.244564096684     1.007825032230
         H            3.170223112520    -0.976309734238    -1.269083096684     1.007825032230
         H           -2.131841887480     1.017628265762     0.883435903316     1.007825032230
         H           -2.131845887480     1.017621265762    -0.883447096684     1.007825032230
         H           -4.268376887480     0.012609265762     0.000002903316     1.007825032230
         H           -3.324067887480    -1.200386734238    -0.886832096684     1.007825032230
         H           -3.324064887480    -1.200379734238     0.886842903316     1.007825032230

  Basis Set: AUG-CC-PVTZ
    Blend: AUG-CC-PVTZ
  Basis Set: (AUG-CC-PVTZ AUX)
    Blend: AUG-CC-PVTZ-JKFIT
	 Reference Energy          =    -382.8839903509285705 [Eh]
	 Singles Energy            =      -0.0000000000000000 [Eh]
	 Same-Spin Energy          =      -0.3853131814117153 [Eh]
	 Opposite-Spin Energy      =      -1.2546876768821877 [Eh]
	 Correlation Energy        =      -1.6400008582939030 [Eh]
	 Total Energy              =    -384.5239912092224586 [Eh]

	 ================> DF-SCS-MP2 Energies <==================
	-----------------------------------------------------------
	 SCS Same-Spin Scale       =       0.3333333333333333 [-]
	 SCS Opposite-Spin Scale   =       1.2000000000000000 [-]
	 SCS Same-Spin Energy      =      -0.1284377271372384 [Eh]
	 SCS Opposite-Spin Energy  =      -1.5056252122586253 [Eh]
	 SCS Correlation Energy    =      -1.6340629393958637 [Eh]
	 SCS Total Energy          =    -384.5180532903244170 [Eh]
	-----------------------------------------------------------

  Dipole Moment: [D]
     X:    -0.1464      Y:    -1.6662      Z:    -0.0000     Total:     1.6726

*** Psi4 exiting successfully. Buy a developer a beer!
