                               Psi4 1.4a3.dev225

  ==> Input File <==

--------------------------------------------------------------------------
#psi4
#
memory 32 gb

molecule  {
0 1
  O       -0.9563780    -0.4388210    -0.0000030
  O        0.2877040     1.4679350     0.0000020
  C        1.3727200    -0.6723210     0.0000000
  C        2.6037930    -0.2014450     0.7447700
  C        2.6037930    -0.2014430    -0.7447690
  C        0.2285537     0.2344141     0.0000010
  C       -2.1420260     0.3946970    -0.0000030
  C       -3.3280480    -0.5423980     0.0000030
  H        1.1423820    -1.7315890    -0.0000010
  H        3.1808050    -0.9553730     1.2690820
  H        2.5170100     0.7570390     1.2445660
  H        2.5170090     0.7570420    -1.2445640
  H        3.1808050    -0.9553700    -1.2690830
  H       -2.1212600     1.0385680     0.8834360
  H       -2.1212640     1.0385610    -0.8834470
  H       -4.2577950     0.0335490     0.0000030
  H       -3.3134860    -1.1794470    -0.8868320
  H       -3.3134830    -1.1794400     0.8868430
units angstrom
no_reorient  #important for SAPT in psi4, default
symmetry c1  #important for SAPT in psi4, default
}

set PROPERTIES_ORIGIN ["COM"]
properties('MP2/aug-cc-pvtz', properties = ['dipole'])
--------------------------------------------------------------------------

    Molecular point group: c1
  Charge       = 0
  Multiplicity = 1
  Basis Set: AUG-CC-PVTZ
    Blend: AUG-CC-PVTZ
  Basis Set: (AUG-CC-PVTZ AUX)
    Blend: AUG-CC-PVTZ-JKFIT

    Orbital Energies [Eh]
    ---------------------

    Doubly Occupied:

       1A    -20.598385     2A    -20.534369     3A    -11.379023
       4A    -11.285463     5A    -11.248563     6A    -11.243523
       7A    -11.242828     8A    -11.222836     9A     -1.443331
      10A     -1.339615    11A     -1.162201    12A     -1.039852
      13A     -0.924060    14A     -0.836898    15A     -0.834712
      16A     -0.761403    17A     -0.721332    18A     -0.673994
      19A     -0.668174    20A     -0.645224    21A     -0.591565
      22A     -0.581679    23A     -0.553780    24A     -0.542888
      25A     -0.529900    26A     -0.509183    27A     -0.506070
      28A     -0.454071    29A     -0.451832    30A     -0.437840
      31A     -0.426016

  @DF-RHF Final Energy:  -382.88314447103033

   => Energetics <=

    Nuclear Repulsion Energy =            375.9743540629610834
    One-Electron Energy =               -1266.9337757268272071
    Two-Electron Energy =                 508.0762771928357893
    Total Energy =                       -382.8831444710303344
  Basis Set: (AUG-CC-PVTZ AUX)
    Blend: AUG-CC-PVTZ-RI
    Molecular point group: c1

    Geometry (in Angstrom), charge = 0, multiplicity = 1:

       Center              X                  Y                   Z               Mass
    ------------   -----------------  -----------------  -----------------  -----------------
         O           -0.980578518640    -0.458139146638    -0.000003096684    15.994914619570
         O            0.263503481360     1.448616853362     0.000001903316    15.994914619570
         C            1.348519481360    -0.691639146638    -0.000000096684    12.000000000000
         C            2.579592481360    -0.220763146638     0.744769903316    12.000000000000
         C            2.579592481360    -0.220761146638    -0.744769096684    12.000000000000
         C            0.204353181360     0.215095953362     0.000000903316    12.000000000000
         C           -2.166226518640     0.375378853362    -0.000003096684    12.000000000000
         C           -3.352248518640    -0.561716146638     0.000002903316    12.000000000000
         H            1.118181481360    -1.750907146638    -0.000001096684     1.007825032230
         H            3.156604481360    -0.974691146638     1.269081903316     1.007825032230
         H            2.492809481360     0.737720853362     1.244565903316     1.007825032230
         H            2.492808481360     0.737723853362    -1.244564096684     1.007825032230
         H            3.156604481360    -0.974688146638    -1.269083096684     1.007825032230
         H           -2.145460518640     1.019249853362     0.883435903316     1.007825032230
         H           -2.145464518640     1.019242853362    -0.883447096684     1.007825032230
         H           -4.281995518640     0.014230853362     0.000002903316     1.007825032230
         H           -3.337686518640    -1.198765146638    -0.886832096684     1.007825032230
         H           -3.337683518640    -1.198758146638     0.886842903316     1.007825032230

  Basis Set: AUG-CC-PVTZ
    Blend: AUG-CC-PVTZ
  Basis Set: (AUG-CC-PVTZ AUX)
    Blend: AUG-CC-PVTZ-JKFIT
	 Reference Energy          =    -382.8831444710303344 [Eh]
	 Singles Energy            =      -0.0000000000000000 [Eh]
	 Same-Spin Energy          =      -0.3857428928754406 [Eh]
	 Opposite-Spin Energy      =      -1.2555511792813461 [Eh]
	 Correlation Energy        =      -1.6412940721567866 [Eh]
	 Total Energy              =    -384.5244385431871024 [Eh]

	 ================> DF-SCS-MP2 Energies <==================
	-----------------------------------------------------------
	 SCS Same-Spin Scale       =       0.3333333333333333 [-]
	 SCS Opposite-Spin Scale   =       1.2000000000000000 [-]
	 SCS Same-Spin Energy      =      -0.1285809642918135 [Eh]
	 SCS Opposite-Spin Energy  =      -1.5066614151376152 [Eh]
	 SCS Correlation Energy    =      -1.6352423794294286 [Eh]
	 SCS Total Energy          =    -384.5183868504597626 [Eh]
	-----------------------------------------------------------

  Dipole Moment: [D]
     X:    -0.3044      Y:    -1.6962      Z:    -0.0000     Total:     1.7233

*** Psi4 exiting successfully. Buy a developer a beer!
