                               Psi4 1.3.2 release

  ==> Input File <==

--------------------------------------------------------------------------
#psi4
#
memory 32 gb

molecule  {
0 1
  O       -0.9563780    -0.4388210    -0.0000030
  O        0.2877040     1.4679350     0.0000020
  C        1.3727200    -0.6723210     0.0000000
  C        2.6037930    -0.2014450     0.7447700
  C        2.6037930    -0.2014430    -0.7447690
  C        0.3696257     0.1226165     0.0000009
  C       -2.1420260     0.3946970    -0.0000030
  C       -3.3280480    -0.5423980     0.0000030
  H        1.1423820    -1.7315890    -0.0000010
  H        3.1808050    -0.9553730     1.2690820
  H        2.5170100     0.7570390     1.2445660
  H        2.5170090     0.7570420    -1.2445640
  H        3.1808050    -0.9553700    -1.2690830
  H       -2.1212600     1.0385680     0.8834360
  H       -2.1212640     1.0385610    -0.8834470
  H       -4.2577950     0.0335490     0.0000030
  H       -3.3134860    -1.1794470    -0.8868320
  H       -3.3134830    -1.1794400     0.8868430
units angstrom
no_reorient  #important for SAPT in psi4, default
symmetry c1  #important for SAPT in psi4, default
}

set PROPERTIES_ORIGIN ["COM"]
properties('MP2/aug-cc-pvtz', properties = ['dipole'])
--------------------------------------------------------------------------

    Molecular point group: c1
  Charge       = 0
  Multiplicity = 1
  Basis Set: AUG-CC-PVTZ
    Blend: AUG-CC-PVTZ
  Basis Set: (AUG-CC-PVTZ AUX)
    Blend: AUG-CC-PVTZ-JKFIT

    Orbital Energies [Eh]
    ---------------------

    Doubly Occupied:

       1A    -20.579109     2A    -20.515779     3A    -11.384990
       4A    -11.274611     5A    -11.267685     6A    -11.266919
       7A    -11.253266     8A    -11.214795     9A     -1.393935
      10A     -1.274517    11A     -1.195003    12A     -1.033400
      13A     -0.973631    14A     -0.855536    15A     -0.835159
      16A     -0.754104    17A     -0.729149    18A     -0.672218
      19A     -0.652976    20A     -0.625179    21A     -0.587647
      22A     -0.571286    23A     -0.548959    24A     -0.543219
      25A     -0.539286    26A     -0.504225    27A     -0.486863
      28A     -0.462393    29A     -0.441952    30A     -0.422796
      31A     -0.410948

  @DF-RHF Final Energy:  -382.80711489810375

   => Energetics <=

    Nuclear Repulsion Energy =            375.4988299561985059
    One-Electron Energy =               -1266.0688194391482284
    Two-Electron Energy =                 507.7628745848459744
    Total Energy =                       -382.8071148981037481
  Basis Set: (AUG-CC-PVTZ AUX)
    Blend: AUG-CC-PVTZ-RI
    Molecular point group: c1

    Geometry (in Angstrom), charge = 0, multiplicity = 1:

       Center              X                  Y                   Z               Mass
    ------------   -----------------  -----------------  -----------------  -----------------
         O           -0.995419340074    -0.446378001845    -0.000003086164    15.994914619570
         O            0.248662659926     1.460377998155     0.000001913836    15.994914619570
         C            1.333678659926    -0.679878001845    -0.000000086164    12.000000000000
         C            2.564751659926    -0.209002001845     0.744769913836    12.000000000000
         C            2.564751659926    -0.209000001845    -0.744769086164    12.000000000000
         C            0.330584359926     0.115059498155     0.000000813836    12.000000000000
         C           -2.181067340074     0.387139998155    -0.000003086164    12.000000000000
         C           -3.367089340074    -0.549955001845     0.000002913836    12.000000000000
         H            1.103340659926    -1.739146001845    -0.000001086164     1.007825032230
         H            3.141763659926    -0.962930001845     1.269081913836     1.007825032230
         H            2.477968659926     0.749481998155     1.244565913836     1.007825032230
         H            2.477967659926     0.749484998155    -1.244564086164     1.007825032230
         H            3.141763659926    -0.962927001845    -1.269083086164     1.007825032230
         H           -2.160301340074     1.031010998155     0.883435913836     1.007825032230
         H           -2.160305340074     1.031003998155    -0.883447086164     1.007825032230
         H           -4.296836340074     0.025991998155     0.000002913836     1.007825032230
         H           -3.352527340074    -1.187004001845    -0.886832086164     1.007825032230
         H           -3.352524340074    -1.186997001845     0.886842913836     1.007825032230

  Basis Set: AUG-CC-PVTZ
    Blend: AUG-CC-PVTZ
  Basis Set: (AUG-CC-PVTZ AUX)
    Blend: AUG-CC-PVTZ-JKFIT
	 Reference Energy          =    -382.8071148981037481 [Eh]
	 Singles Energy            =      -0.0000000000000000 [Eh]
	 Same-Spin Energy          =      -0.3914597359471347 [Eh]
	 Opposite-Spin Energy      =      -1.2657880128203298 [Eh]
	 Correlation Energy        =      -1.6572477487674646 [Eh]
	 Total Energy              =    -384.4643626468712228 [Eh]

	 ================> DF-SCS-MP2 Energies <==================
	-----------------------------------------------------------
	 SCS Same-Spin Scale       =       0.3333333333333333 [-]
	 SCS Opposite-Spin Scale   =       1.2000000000000000 [-]
	 SCS Same-Spin Energy      =      -0.1304865786490449 [Eh]
	 SCS Opposite-Spin Energy  =      -1.5189456153843957 [Eh]
	 SCS Correlation Energy    =      -1.6494321940334404 [Eh]
	 SCS Total Energy          =    -384.4565470921372139 [Eh]
	-----------------------------------------------------------

  Dipole Moment: [D]
     X:     1.1485      Y:    -2.3019      Z:    -0.0000     Total:     2.5725

*** Psi4 exiting successfully. Buy a developer a beer!
