                               Psi4 1.3.2 release

  ==> Input File <==

--------------------------------------------------------------------------
#psi4
#
memory 32 gb

molecule  {
0 1
  O       -0.9563780    -0.4388210    -0.0000030
  O        0.2877040     1.4679350     0.0000020
  C        1.3727200    -0.6723210     0.0000000
  C        2.5911438    -0.1791273     0.7510997
  C        2.6037930    -0.2014430    -0.7447690
  C        0.2128790     0.2468360     0.0000010
  C       -2.1420260     0.3946970    -0.0000030
  C       -3.3280480    -0.5423980     0.0000030
  H        1.1423820    -1.7315890    -0.0000010
  H        3.1808050    -0.9553730     1.2690820
  H        2.5170100     0.7570390     1.2445660
  H        2.5170090     0.7570420    -1.2445640
  H        3.1808050    -0.9553700    -1.2690830
  H       -2.1212600     1.0385680     0.8834360
  H       -2.1212640     1.0385610    -0.8834470
  H       -4.2577950     0.0335490     0.0000030
  H       -3.3134860    -1.1794470    -0.8868320
  H       -3.3134830    -1.1794400     0.8868430
units angstrom
no_reorient  #important for SAPT in psi4, default
symmetry c1  #important for SAPT in psi4, default
}

set PROPERTIES_ORIGIN ["COM"]
properties('MP2/aug-cc-pvtz', properties = ['dipole'])
--------------------------------------------------------------------------

    Molecular point group: c1
  Charge       = 0
  Multiplicity = 1
  Basis Set: AUG-CC-PVTZ
    Blend: AUG-CC-PVTZ
  Basis Set: (AUG-CC-PVTZ AUX)
    Blend: AUG-CC-PVTZ-JKFIT

    Orbital Energies [Eh]
    ---------------------

    Doubly Occupied:

       1A    -20.600239     2A    -20.535946     3A    -11.377873
       4A    -11.286509     5A    -11.248007     6A    -11.241420
       7A    -11.240732     8A    -11.223624     9A     -1.448709
      10A     -1.347330    11A     -1.158048    12A     -1.040831
      13A     -0.919212    14A     -0.836005    15A     -0.833596
      16A     -0.763753    17A     -0.720111    18A     -0.676440
      19A     -0.670320    20A     -0.643376    21A     -0.593473
      22A     -0.583537    23A     -0.554493    24A     -0.542537
      25A     -0.529149    26A     -0.511367    27A     -0.507901
      28A     -0.456707    29A     -0.451859    30A     -0.433732
      31A     -0.426045

  @DF-RHF Final Energy:  -382.88431233048334

   => Energetics <=

    Nuclear Repulsion Energy =            376.1470935195843595
    One-Electron Energy =               -1267.2570545261228290
    Two-Electron Energy =                 508.2256486760551297
    Total Energy =                       -382.8843123304833398
  Basis Set: (AUG-CC-PVTZ AUX)
    Blend: AUG-CC-PVTZ-RI
    Molecular point group: c1

    Geometry (in Angstrom), charge = 0, multiplicity = 1:

       Center              X                  Y                   Z               Mass
    ------------   -----------------  -----------------  -----------------  -----------------
         O           -0.977598834917    -0.461793764140    -0.000668983234    15.994914619570
         O            0.266483165083     1.444962235860    -0.000663983234    15.994914619570
         C            1.351499165083    -0.695293764140    -0.000665983234    12.000000000000
         C            2.569922965083    -0.202100064140     0.750433716766    12.000000000000
         C            2.582572165083    -0.224415764140    -0.745434983234    12.000000000000
         C            0.191658165083     0.223863235860    -0.000664983234    12.000000000000
         C           -2.163246834917     0.371724235860    -0.000668983234    12.000000000000
         C           -3.349268834917    -0.565370764140    -0.000662983234    12.000000000000
         H            1.121161165083    -1.754561764140    -0.000666983234     1.007825032230
         H            3.159584165083    -0.978345764140     1.268416016766     1.007825032230
         H            2.495789165083     0.734066235860     1.243900016766     1.007825032230
         H            2.495788165083     0.734069235860    -1.245229983234     1.007825032230
         H            3.159584165083    -0.978342764140    -1.269748983234     1.007825032230
         H           -2.142480834917     1.015595235860     0.882770016766     1.007825032230
         H           -2.142484834917     1.015588235860    -0.884112983234     1.007825032230
         H           -4.279015834917     0.010576235860    -0.000662983234     1.007825032230
         H           -3.334706834917    -1.202419764140    -0.887497983234     1.007825032230
         H           -3.334703834917    -1.202412764140     0.886177016766     1.007825032230

  Basis Set: AUG-CC-PVTZ
    Blend: AUG-CC-PVTZ
  Basis Set: (AUG-CC-PVTZ AUX)
    Blend: AUG-CC-PVTZ-JKFIT
	 Reference Energy          =    -382.8843123304833398 [Eh]
	 Singles Energy            =      -0.0000000000000000 [Eh]
	 Same-Spin Energy          =      -0.3852923454015280 [Eh]
	 Opposite-Spin Energy      =      -1.2548499482536226 [Eh]
	 Correlation Energy        =      -1.6401422936551506 [Eh]
	 Total Energy              =    -384.5244546241385137 [Eh]

	 ================> DF-SCS-MP2 Energies <==================
	-----------------------------------------------------------
	 SCS Same-Spin Scale       =       0.3333333333333333 [-]
	 SCS Opposite-Spin Scale   =       1.2000000000000000 [-]
	 SCS Same-Spin Energy      =      -0.1284307818005093 [Eh]
	 SCS Opposite-Spin Energy  =      -1.5058199379043471 [Eh]
	 SCS Correlation Energy    =      -1.6342507197048564 [Eh]
	 SCS Total Energy          =    -384.5185630501882201 [Eh]
	-----------------------------------------------------------

  Dipole Moment: [D]
     X:    -0.4611      Y:    -1.6259      Z:    -0.0061     Total:     1.6900

*** Psi4 exiting successfully. Buy a developer a beer!
