                               Psi4 1.3.2 release

  ==> Input File <==

--------------------------------------------------------------------------
#psi4
#
memory 32 gb

molecule  {
0 1
  O       -1.0216434    -0.3128443    -0.0000027
  O        0.2877040     1.4679350     0.0000020
  C        1.3727200    -0.6723210     0.0000000
  C        2.6037930    -0.2014450     0.7447700
  C        2.6037930    -0.2014430    -0.7447690
  C        0.2128790     0.2468360     0.0000010
  C       -2.1420260     0.3946970    -0.0000030
  C       -3.3280480    -0.5423980     0.0000030
  H        1.1423820    -1.7315890    -0.0000010
  H        3.1808050    -0.9553730     1.2690820
  H        2.5170100     0.7570390     1.2445660
  H        2.5170090     0.7570420    -1.2445640
  H        3.1808050    -0.9553700    -1.2690830
  H       -2.1212600     1.0385680     0.8834360
  H       -2.1212640     1.0385610    -0.8834470
  H       -4.2577950     0.0335490     0.0000030
  H       -3.3134860    -1.1794470    -0.8868320
  H       -3.3134830    -1.1794400     0.8868430
units angstrom
no_reorient  #important for SAPT in psi4, default
symmetry c1  #important for SAPT in psi4, default
}

set PROPERTIES_ORIGIN ["COM"]
properties('MP2/aug-cc-pvtz', properties = ['dipole'])
--------------------------------------------------------------------------

    Molecular point group: c1
  Charge       = 0
  Multiplicity = 1
  Basis Set: AUG-CC-PVTZ
    Blend: AUG-CC-PVTZ
  Basis Set: (AUG-CC-PVTZ AUX)
    Blend: AUG-CC-PVTZ-JKFIT

    Orbital Energies [Eh]
    ---------------------

    Doubly Occupied:

       1A    -20.591741     2A    -20.534321     3A    -11.383485
       4A    -11.272777     5A    -11.256965     6A    -11.246988
       7A    -11.246272     8A    -11.218403     9A     -1.473220
      10A     -1.354832    11A     -1.165138    12A     -1.042217
      13A     -0.930867    14A     -0.842929    15A     -0.837834
      16A     -0.771784    17A     -0.727629    18A     -0.693497
      19A     -0.672135    20A     -0.651846    21A     -0.605458
      22A     -0.578559    23A     -0.555287    24A     -0.548015
      25A     -0.533336    26A     -0.508611    27A     -0.490105
      28A     -0.453149    29A     -0.442805    30A     -0.439265
      31A     -0.429964

  @DF-RHF Final Energy:  -382.87542089920430

   => Energetics <=

    Nuclear Repulsion Energy =            378.0171442171346712
    One-Electron Energy =               -1270.7862635880096605
    Two-Electron Energy =                 509.8936984716706320
    Total Energy =                       -382.8754208992043004
  Basis Set: (AUG-CC-PVTZ AUX)
    Blend: AUG-CC-PVTZ-RI
    Molecular point group: c1

    Geometry (in Angstrom), charge = 0, multiplicity = 1:

       Center              X                  Y                   Z               Mass
    ------------   -----------------  -----------------  -----------------  -----------------
         O           -1.035043255516    -0.351134006157    -0.000002838751    15.994914619570
         O            0.274304144484     1.429645293843     0.000001861249    15.994914619570
         C            1.359320144484    -0.710610706157    -0.000000138751    12.000000000000
         C            2.590393144484    -0.239734706157     0.744769861249    12.000000000000
         C            2.590393144484    -0.239732706157    -0.744769138751    12.000000000000
         C            0.199479144484     0.208546293843     0.000000861249    12.000000000000
         C           -2.155425855516     0.356407293843    -0.000003138751    12.000000000000
         C           -3.341447855516    -0.580687706157     0.000002861249    12.000000000000
         H            1.128982144484    -1.769878706157    -0.000001138751     1.007825032230
         H            3.167405144484    -0.993662706157     1.269081861249     1.007825032230
         H            2.503610144484     0.718749293843     1.244565861249     1.007825032230
         H            2.503609144484     0.718752293843    -1.244564138751     1.007825032230
         H            3.167405144484    -0.993659706157    -1.269083138751     1.007825032230
         H           -2.134659855516     1.000278293843     0.883435861249     1.007825032230
         H           -2.134663855516     1.000271293843    -0.883447138751     1.007825032230
         H           -4.271194855516    -0.004740706157     0.000002861249     1.007825032230
         H           -3.326885855516    -1.217736706157    -0.886832138751     1.007825032230
         H           -3.326882855516    -1.217729706157     0.886842861249     1.007825032230

  Basis Set: AUG-CC-PVTZ
    Blend: AUG-CC-PVTZ
  Basis Set: (AUG-CC-PVTZ AUX)
    Blend: AUG-CC-PVTZ-JKFIT
	 Reference Energy          =    -382.8754208992043004 [Eh]
	 Singles Energy            =      -0.0000000000000000 [Eh]
	 Same-Spin Energy          =      -0.3847007068043007 [Eh]
	 Opposite-Spin Energy      =      -1.2517469005460506 [Eh]
	 Correlation Energy        =      -1.6364476073503513 [Eh]
	 Total Energy              =    -384.5118685065546629 [Eh]

	 ================> DF-SCS-MP2 Energies <==================
	-----------------------------------------------------------
	 SCS Same-Spin Scale       =       0.3333333333333333 [-]
	 SCS Opposite-Spin Scale   =       1.2000000000000000 [-]
	 SCS Same-Spin Energy      =      -0.1282335689347669 [Eh]
	 SCS Opposite-Spin Energy  =      -1.5020962806552607 [Eh]
	 SCS Correlation Energy    =      -1.6303298495900276 [Eh]
	 SCS Total Energy          =    -384.5057507487943553 [Eh]
	-----------------------------------------------------------

  Dipole Moment: [D]
     X:     0.1230      Y:    -1.9332      Z:    -0.0000     Total:     1.9371

*** Psi4 exiting successfully. Buy a developer a beer!
