                               Psi4 1.3.2 release

  ==> Input File <==

--------------------------------------------------------------------------
#psi4
#
memory 32 gb

molecule  {
0 1
  O       -0.9563780    -0.4388210    -0.0000030
  O        0.2877040     1.4679350     0.0000020
  C        1.3727200    -0.6723210     0.0000000
  C        2.6037930    -0.2014450     0.7447700
  C        2.6037930    -0.2014430    -0.7447690
  C        0.1970141     0.2264540     0.0000010
  C       -2.1420260     0.3946970    -0.0000030
  C       -3.3280480    -0.5423980     0.0000030
  H        1.1423820    -1.7315890    -0.0000010
  H        3.1808050    -0.9553730     1.2690820
  H        2.5170100     0.7570390     1.2445660
  H        2.5170090     0.7570420    -1.2445640
  H        3.1808050    -0.9553700    -1.2690830
  H       -2.1212600     1.0385680     0.8834360
  H       -2.1212640     1.0385610    -0.8834470
  H       -4.2577950     0.0335490     0.0000030
  H       -3.3134860    -1.1794470    -0.8868320
  H       -3.3134830    -1.1794400     0.8868430
units angstrom
no_reorient  #important for SAPT in psi4, default
symmetry c1  #important for SAPT in psi4, default
}

set PROPERTIES_ORIGIN ["COM"]
properties('MP2/aug-cc-pvtz', properties = ['dipole'])
--------------------------------------------------------------------------

    Molecular point group: c1
  Charge       = 0
  Multiplicity = 1
  Basis Set: AUG-CC-PVTZ
    Blend: AUG-CC-PVTZ
  Basis Set: (AUG-CC-PVTZ AUX)
    Blend: AUG-CC-PVTZ-JKFIT

    Orbital Energies [Eh]
    ---------------------

    Doubly Occupied:

       1A    -20.606319     2A    -20.530448     3A    -11.378570
       4A    -11.289532     5A    -11.246933     6A    -11.240698
       7A    -11.239995     8A    -11.225522     9A     -1.455443
      10A     -1.336523    11A     -1.157404    12A     -1.045535
      13A     -0.921784    14A     -0.838538    15A     -0.831797
      16A     -0.768396    17A     -0.717246    18A     -0.680796
      19A     -0.668909    20A     -0.644513    21A     -0.593150
      22A     -0.584237    23A     -0.554027    24A     -0.540345
      25A     -0.527812    26A     -0.513380    27A     -0.505766
      28A     -0.456034    29A     -0.448805    30A     -0.435784
      31A     -0.422889

  @DF-RHF Final Energy:  -382.88350162823610

   => Energetics <=

    Nuclear Repulsion Energy =            376.0582692497568473
    One-Electron Energy =               -1267.0692816085975210
    Two-Electron Energy =                 508.1275107306045129
    Total Energy =                       -382.8835016282361039
  Basis Set: (AUG-CC-PVTZ AUX)
    Blend: AUG-CC-PVTZ-RI
    Molecular point group: c1

    Geometry (in Angstrom), charge = 0, multiplicity = 1:

       Center              X                  Y                   Z               Mass
    ------------   -----------------  -----------------  -----------------  -----------------
         O           -0.977260542205    -0.457301741464    -0.000003096684    15.994914619570
         O            0.266821457795     1.449454258536     0.000001903316    15.994914619570
         C            1.351837457795    -0.690801741464    -0.000000096684    12.000000000000
         C            2.582910457795    -0.219925741464     0.744769903316    12.000000000000
         C            2.582910457795    -0.219923741464    -0.744769096684    12.000000000000
         C            0.176131557795     0.207973258536     0.000000903316    12.000000000000
         C           -2.162908542205     0.376216258536    -0.000003096684    12.000000000000
         C           -3.348930542205    -0.560878741464     0.000002903316    12.000000000000
         H            1.121499457795    -1.750069741464    -0.000001096684     1.007825032230
         H            3.159922457795    -0.973853741464     1.269081903316     1.007825032230
         H            2.496127457795     0.738558258536     1.244565903316     1.007825032230
         H            2.496126457795     0.738561258536    -1.244564096684     1.007825032230
         H            3.159922457795    -0.973850741464    -1.269083096684     1.007825032230
         H           -2.142142542205     1.020087258536     0.883435903316     1.007825032230
         H           -2.142146542205     1.020080258536    -0.883447096684     1.007825032230
         H           -4.278677542205     0.015068258536     0.000002903316     1.007825032230
         H           -3.334368542205    -1.197927741464    -0.886832096684     1.007825032230
         H           -3.334365542205    -1.197920741464     0.886842903316     1.007825032230

  Basis Set: AUG-CC-PVTZ
    Blend: AUG-CC-PVTZ
  Basis Set: (AUG-CC-PVTZ AUX)
    Blend: AUG-CC-PVTZ-JKFIT
	 Reference Energy          =    -382.8835016282361039 [Eh]
	 Singles Energy            =      -0.0000000000000000 [Eh]
	 Same-Spin Energy          =      -0.3854616826619257 [Eh]
	 Opposite-Spin Energy      =      -1.2550378910562277 [Eh]
	 Correlation Energy        =      -1.6404995737181534 [Eh]
	 Total Energy              =    -384.5240012019542633 [Eh]

	 ================> DF-SCS-MP2 Energies <==================
	-----------------------------------------------------------
	 SCS Same-Spin Scale       =       0.3333333333333333 [-]
	 SCS Opposite-Spin Scale   =       1.2000000000000000 [-]
	 SCS Same-Spin Energy      =      -0.1284872275539752 [Eh]
	 SCS Opposite-Spin Energy  =      -1.5060454692674732 [Eh]
	 SCS Correlation Energy    =      -1.6345326968214484 [Eh]
	 SCS Total Energy          =    -384.5180343250575561 [Eh]
	-----------------------------------------------------------

  Dipole Moment: [D]
     X:    -0.6435      Y:    -1.7565      Z:    -0.0000     Total:     1.8706

*** Psi4 exiting successfully. Buy a developer a beer!
