                               Psi4 1.3.2 release

  ==> Input File <==

--------------------------------------------------------------------------
#psi4
#
memory 32 gb

molecule  {
0 1
  O       -0.8783020    -0.5572855    -0.0000032
  O        0.2877040     1.4679350     0.0000020
  C        1.3727200    -0.6723210     0.0000000
  C        2.6037930    -0.2014450     0.7447700
  C        2.6037930    -0.2014430    -0.7447690
  C        0.2128790     0.2468360     0.0000010
  C       -2.1420260     0.3946970    -0.0000030
  C       -3.3280480    -0.5423980     0.0000030
  H        1.1423820    -1.7315890    -0.0000010
  H        3.1808050    -0.9553730     1.2690820
  H        2.5170100     0.7570390     1.2445660
  H        2.5170090     0.7570420    -1.2445640
  H        3.1808050    -0.9553700    -1.2690830
  H       -2.1212600     1.0385680     0.8834360
  H       -2.1212640     1.0385610    -0.8834470
  H       -4.2577950     0.0335490     0.0000030
  H       -3.3134860    -1.1794470    -0.8868320
  H       -3.3134830    -1.1794400     0.8868430
units angstrom
no_reorient  #important for SAPT in psi4, default
symmetry c1  #important for SAPT in psi4, default
}

set PROPERTIES_ORIGIN ["COM"]
properties('MP2/aug-cc-pvtz', properties = ['dipole'])
--------------------------------------------------------------------------

    Molecular point group: c1
  Charge       = 0
  Multiplicity = 1
  Basis Set: AUG-CC-PVTZ
    Blend: AUG-CC-PVTZ
  Basis Set: (AUG-CC-PVTZ AUX)
    Blend: AUG-CC-PVTZ-JKFIT

    Orbital Energies [Eh]
    ---------------------

    Doubly Occupied:

       1A    -20.604514     2A    -20.537777     3A    -11.374551
       4A    -11.302186     5A    -11.238163     6A    -11.235352
       7A    -11.234694     8A    -11.229275     9A     -1.431908
      10A     -1.341824    11A     -1.152218    12A     -1.042561
      13A     -0.908886    14A     -0.838398    15A     -0.827471
      16A     -0.752049    17A     -0.709648    18A     -0.667760
      19A     -0.665540    20A     -0.639490    21A     -0.589070
      22A     -0.584162    23A     -0.558934    24A     -0.532203
      25A     -0.524119    26A     -0.523699    27A     -0.509156
      28A     -0.465781    29A     -0.450083    30A     -0.424072
      31A     -0.420166

  @DF-RHF Final Energy:  -382.86570962966937

   => Energetics <=

    Nuclear Repulsion Energy =            374.3781850856041729
    One-Electron Energy =               -1263.8563712567226958
    Two-Electron Energy =                 506.6124765414491549
    Total Energy =                       -382.8657096296693680
  Basis Set: (AUG-CC-PVTZ AUX)
    Blend: AUG-CC-PVTZ-RI
    Molecular point group: c1

    Geometry (in Angstrom), charge = 0, multiplicity = 1:

       Center              X                  Y                   Z               Mass
    ------------   -----------------  -----------------  -----------------  -----------------
         O           -0.911801549166    -0.561299042847    -0.000003268640    15.994914619570
         O            0.254204450834     1.463921457153     0.000001931360    15.994914619570
         C            1.339220450834    -0.676334542847    -0.000000068640    12.000000000000
         C            2.570293450834    -0.205458542847     0.744769931360    12.000000000000
         C            2.570293450834    -0.205456542847    -0.744769068640    12.000000000000
         C            0.179379450834     0.242822457153     0.000000931360    12.000000000000
         C           -2.175525549166     0.390683457153    -0.000003068640    12.000000000000
         C           -3.361547549166    -0.546411542847     0.000002931360    12.000000000000
         H            1.108882450834    -1.735602542847    -0.000001068640     1.007825032230
         H            3.147305450834    -0.959386542847     1.269081931360     1.007825032230
         H            2.483510450834     0.753025457153     1.244565931360     1.007825032230
         H            2.483509450834     0.753028457153    -1.244564068640     1.007825032230
         H            3.147305450834    -0.959383542847    -1.269083068640     1.007825032230
         H           -2.154759549166     1.034554457153     0.883435931360     1.007825032230
         H           -2.154763549166     1.034547457153    -0.883447068640     1.007825032230
         H           -4.291294549166     0.029535457153     0.000002931360     1.007825032230
         H           -3.346985549166    -1.183460542847    -0.886832068640     1.007825032230
         H           -3.346982549166    -1.183453542847     0.886842931360     1.007825032230

  Basis Set: AUG-CC-PVTZ
    Blend: AUG-CC-PVTZ
  Basis Set: (AUG-CC-PVTZ AUX)
    Blend: AUG-CC-PVTZ-JKFIT
	 Reference Energy          =    -382.8657096296693680 [Eh]
	 Singles Energy            =      -0.0000000000000000 [Eh]
	 Same-Spin Energy          =      -0.3869747714949078 [Eh]
	 Opposite-Spin Energy      =      -1.2598774785384226 [Eh]
	 Correlation Energy        =      -1.6468522500333305 [Eh]
	 Total Energy              =    -384.5125618797026732 [Eh]

	 ================> DF-SCS-MP2 Energies <==================
	-----------------------------------------------------------
	 SCS Same-Spin Scale       =       0.3333333333333333 [-]
	 SCS Opposite-Spin Scale   =       1.2000000000000000 [-]
	 SCS Same-Spin Energy      =      -0.1289915904983026 [Eh]
	 SCS Opposite-Spin Energy  =      -1.5118529742461071 [Eh]
	 SCS Correlation Energy    =      -1.6408445647444097 [Eh]
	 SCS Total Energy          =    -384.5065541944137522 [Eh]
	-----------------------------------------------------------

  Dipole Moment: [D]
     X:    -0.9944      Y:    -1.3849      Z:    -0.0000     Total:     1.7049

*** Psi4 exiting successfully. Buy a developer a beer!
