                               Psi4 1.3.2 release

  ==> Input File <==

--------------------------------------------------------------------------
#psi4
#
memory 32 gb

molecule  {
0 1
  O       -0.9563780    -0.4388210    -0.0000030
  O        0.2877040     1.4679350     0.0000020
  C        1.3727200    -0.6723210     0.0000000
  C        2.6716866    -0.3381226     0.7021000
  C        2.6037930    -0.2014430    -0.7447690
  C        0.2128790     0.2468360     0.0000010
  C       -2.1420260     0.3946970    -0.0000030
  C       -3.3280480    -0.5423980     0.0000030
  H        1.1423820    -1.7315890    -0.0000010
  H        3.1808050    -0.9553730     1.2690820
  H        2.5170100     0.7570390     1.2445660
  H        2.5170090     0.7570420    -1.2445640
  H        3.1808050    -0.9553700    -1.2690830
  H       -2.1212600     1.0385680     0.8834360
  H       -2.1212640     1.0385610    -0.8834470
  H       -4.2577950     0.0335490     0.0000030
  H       -3.3134860    -1.1794470    -0.8868320
  H       -3.3134830    -1.1794400     0.8868430
units angstrom
no_reorient  #important for SAPT in psi4, default
symmetry c1  #important for SAPT in psi4, default
}

set PROPERTIES_ORIGIN ["COM"]
properties('MP2/aug-cc-pvtz', properties = ['dipole'])
--------------------------------------------------------------------------

    Molecular point group: c1
  Charge       = 0
  Multiplicity = 1
  Basis Set: AUG-CC-PVTZ
    Blend: AUG-CC-PVTZ
  Basis Set: (AUG-CC-PVTZ AUX)
    Blend: AUG-CC-PVTZ-JKFIT

    Orbital Energies [Eh]
    ---------------------

    Doubly Occupied:

       1A    -20.600947     2A    -20.537246     3A    -11.379822
       4A    -11.286999     5A    -11.247084     6A    -11.244037
       7A    -11.242330     8A    -11.223846     9A     -1.449275
      10A     -1.347832    11A     -1.165232    12A     -1.041622
      13A     -0.922917    14A     -0.839710    15A     -0.836128
      16A     -0.765104    17A     -0.714119    18A     -0.678692
      19A     -0.675782    20A     -0.658511    21A     -0.591316
      22A     -0.584257    23A     -0.554363    24A     -0.542986
      25A     -0.521001    26A     -0.511738    27A     -0.496132
      28A     -0.456973    29A     -0.453272    30A     -0.441594
      31A     -0.417363

  @DF-RHF Final Energy:  -382.85654849366415

   => Energetics <=

    Nuclear Repulsion Energy =            375.6170407850977995
    One-Electron Energy =               -1266.0907195739027884
    Two-Electron Energy =                 507.6171302951408961
    Total Energy =                       -382.8565484936641496
  Basis Set: (AUG-CC-PVTZ AUX)
    Blend: AUG-CC-PVTZ-RI
    Molecular point group: c1

    Geometry (in Angstrom), charge = 0, multiplicity = 1:

       Center              X                  Y                   Z               Mass
    ------------   -----------------  -----------------  -----------------  -----------------
         O           -0.986071964330    -0.445067405572     0.004485801542    15.994914619570
         O            0.258010035670     1.461688594428     0.004490801542    15.994914619570
         C            1.343026035670    -0.678567405572     0.004488801542    12.000000000000
         C            2.641992635670    -0.344369005572     0.706588801542    12.000000000000
         C            2.574099035670    -0.207689405572    -0.740280198458    12.000000000000
         C            0.183185035670     0.240589594428     0.004489801542    12.000000000000
         C           -2.171719964330     0.388450594428     0.004485801542    12.000000000000
         C           -3.357741964330    -0.548644405572     0.004491801542    12.000000000000
         H            1.112688035670    -1.737835405572     0.004487801542     1.007825032230
         H            3.151111035670    -0.961619405572     1.273570801542     1.007825032230
         H            2.487316035670     0.750792594428     1.249054801542     1.007825032230
         H            2.487315035670     0.750795594428    -1.240075198458     1.007825032230
         H            3.151111035670    -0.961616405572    -1.264594198458     1.007825032230
         H           -2.150953964330     1.032321594428     0.887924801542     1.007825032230
         H           -2.150957964330     1.032314594428    -0.878958198458     1.007825032230
         H           -4.287488964330     0.027302594428     0.004491801542     1.007825032230
         H           -3.343179964330    -1.185693405572    -0.882343198458     1.007825032230
         H           -3.343176964330    -1.185686405572     0.891331801542     1.007825032230

  Basis Set: AUG-CC-PVTZ
    Blend: AUG-CC-PVTZ
  Basis Set: (AUG-CC-PVTZ AUX)
    Blend: AUG-CC-PVTZ-JKFIT
	 Reference Energy          =    -382.8565484936641496 [Eh]
	 Singles Energy            =      -0.0000000000000000 [Eh]
	 Same-Spin Energy          =      -0.3859076617987832 [Eh]
	 Opposite-Spin Energy      =      -1.2562324907832199 [Eh]
	 Correlation Energy        =      -1.6421401525820030 [Eh]
	 Total Energy              =    -384.4986886462461371 [Eh]

	 ================> DF-SCS-MP2 Energies <==================
	-----------------------------------------------------------
	 SCS Same-Spin Scale       =       0.3333333333333333 [-]
	 SCS Opposite-Spin Scale   =       1.2000000000000000 [-]
	 SCS Same-Spin Energy      =      -0.1286358872662611 [Eh]
	 SCS Opposite-Spin Energy  =      -1.5074789889398639 [Eh]
	 SCS Correlation Energy    =      -1.6361148762061251 [Eh]
	 SCS Total Energy          =    -384.4926633698702858 [Eh]
	-----------------------------------------------------------

  Dipole Moment: [D]
     X:    -0.4534      Y:    -1.6690      Z:    -0.0230     Total:     1.7297

*** Psi4 exiting successfully. Buy a developer a beer!
