                               Psi4 1.3.2 release

  ==> Input File <==

--------------------------------------------------------------------------
#psi4
#
memory 32 gb

molecule  {
0 1
  O       -0.9563780    -0.4388210    -0.0000030
  O        0.3302742     1.4645798     0.0000020
  C        1.3727200    -0.6723210     0.0000000
  C        2.6037930    -0.2014450     0.7447700
  C        2.6037930    -0.2014430    -0.7447690
  C        0.2128790     0.2468360     0.0000010
  C       -2.1420260     0.3946970    -0.0000030
  C       -3.3280480    -0.5423980     0.0000030
  H        1.1423820    -1.7315890    -0.0000010
  H        3.1808050    -0.9553730     1.2690820
  H        2.5170100     0.7570390     1.2445660
  H        2.5170090     0.7570420    -1.2445640
  H        3.1808050    -0.9553700    -1.2690830
  H       -2.1212600     1.0385680     0.8834360
  H       -2.1212640     1.0385610    -0.8834470
  H       -4.2577950     0.0335490     0.0000030
  H       -3.3134860    -1.1794470    -0.8868320
  H       -3.3134830    -1.1794400     0.8868430
units angstrom
no_reorient  #important for SAPT in psi4, default
symmetry c1  #important for SAPT in psi4, default
}

set PROPERTIES_ORIGIN ["COM"]
properties('MP2/aug-cc-pvtz', properties = ['dipole'])
--------------------------------------------------------------------------

    Molecular point group: c1
  Charge       = 0
  Multiplicity = 1
  Basis Set: AUG-CC-PVTZ
    Blend: AUG-CC-PVTZ
  Basis Set: (AUG-CC-PVTZ AUX)
    Blend: AUG-CC-PVTZ-JKFIT

    Orbital Energies [Eh]
    ---------------------

    Doubly Occupied:

       1A    -20.603021     2A    -20.536609     3A    -11.378267
       4A    -11.288243     5A    -11.245291     6A    -11.239746
       7A    -11.239048     8A    -11.224821     9A     -1.448794
      10A     -1.350181    11A     -1.156889    12A     -1.042202
      13A     -0.919087    14A     -0.836883    15A     -0.831297
      16A     -0.764529    17A     -0.718434    18A     -0.677787
      19A     -0.670084    20A     -0.645316    21A     -0.592116
      22A     -0.584653    23A     -0.554268    24A     -0.543116
      25A     -0.528198    26A     -0.513228    27A     -0.507555
      28A     -0.457924    29A     -0.451444    30A     -0.434492
      31A     -0.423694

  @DF-RHF Final Energy:  -382.88454068471606

   => Energetics <=

    Nuclear Repulsion Energy =            376.0435407244845578
    One-Electron Energy =               -1267.0417291594858398
    Two-Electron Energy =                 508.1136477502852813
    Total Energy =                       -382.8845406847160575
  Basis Set: (AUG-CC-PVTZ AUX)
    Blend: AUG-CC-PVTZ-RI
    Molecular point group: c1

    Geometry (in Angstrom), charge = 0, multiplicity = 1:

       Center              X                  Y                   Z               Mass
    ------------   -----------------  -----------------  -----------------  -----------------
         O           -0.984898836088    -0.458975460030    -0.000003096684    15.994914619570
         O            0.301753363912     1.444425339970     0.000001903316    15.994914619570
         C            1.344199163912    -0.692475460030    -0.000000096684    12.000000000000
         C            2.575272163912    -0.221599460030     0.744769903316    12.000000000000
         C            2.575272163912    -0.221597460030    -0.744769096684    12.000000000000
         C            0.184358163912     0.226681539970     0.000000903316    12.000000000000
         C           -2.170546836088     0.374542539970    -0.000003096684    12.000000000000
         C           -3.356568836088    -0.562552460030     0.000002903316    12.000000000000
         H            1.113861163912    -1.751743460030    -0.000001096684     1.007825032230
         H            3.152284163912    -0.975527460030     1.269081903316     1.007825032230
         H            2.488489163912     0.736884539970     1.244565903316     1.007825032230
         H            2.488488163912     0.736887539970    -1.244564096684     1.007825032230
         H            3.152284163912    -0.975524460030    -1.269083096684     1.007825032230
         H           -2.149780836088     1.018413539970     0.883435903316     1.007825032230
         H           -2.149784836088     1.018406539970    -0.883447096684     1.007825032230
         H           -4.286315836088     0.013394539970     0.000002903316     1.007825032230
         H           -3.342006836088    -1.199601460030    -0.886832096684     1.007825032230
         H           -3.342003836088    -1.199594460030     0.886842903316     1.007825032230

  Basis Set: AUG-CC-PVTZ
    Blend: AUG-CC-PVTZ
  Basis Set: (AUG-CC-PVTZ AUX)
    Blend: AUG-CC-PVTZ-JKFIT
	 Reference Energy          =    -382.8845406847160575 [Eh]
	 Singles Energy            =      -0.0000000000000000 [Eh]
	 Same-Spin Energy          =      -0.3853583927549956 [Eh]
	 Opposite-Spin Energy      =      -1.2549400537611992 [Eh]
	 Correlation Energy        =      -1.6402984465161947 [Eh]
	 Total Energy              =    -384.5248391312322269 [Eh]

	 ================> DF-SCS-MP2 Energies <==================
	-----------------------------------------------------------
	 SCS Same-Spin Scale       =       0.3333333333333333 [-]
	 SCS Opposite-Spin Scale   =       1.2000000000000000 [-]
	 SCS Same-Spin Energy      =      -0.1284527975849985 [Eh]
	 SCS Opposite-Spin Energy  =      -1.5059280645134390 [Eh]
	 SCS Correlation Energy    =      -1.6343808620984375 [Eh]
	 SCS Total Energy          =    -384.5189215468145107 [Eh]
	-----------------------------------------------------------

  Dipole Moment: [D]
     X:    -0.6065      Y:    -1.6049      Z:    -0.0000     Total:     1.7157

*** Psi4 exiting successfully. Buy a developer a beer!
