                               Psi4 1.3.2 release

  ==> Input File <==

--------------------------------------------------------------------------
#psi4
#
memory 32 gb

molecule  {
0 1
  O       -0.9563780    -0.4388210    -0.0000030
  O        0.4149337     1.4534243     0.0000020
  C        1.3727200    -0.6723210     0.0000000
  C        2.6037930    -0.2014450     0.7447700
  C        2.6037930    -0.2014430    -0.7447690
  C        0.2128790     0.2468360     0.0000010
  C       -2.1420260     0.3946970    -0.0000030
  C       -3.3280480    -0.5423980     0.0000030
  H        1.1423820    -1.7315890    -0.0000010
  H        3.1808050    -0.9553730     1.2690820
  H        2.5170100     0.7570390     1.2445660
  H        2.5170090     0.7570420    -1.2445640
  H        3.1808050    -0.9553700    -1.2690830
  H       -2.1212600     1.0385680     0.8834360
  H       -2.1212640     1.0385610    -0.8834470
  H       -4.2577950     0.0335490     0.0000030
  H       -3.3134860    -1.1794470    -0.8868320
  H       -3.3134830    -1.1794400     0.8868430
units angstrom
no_reorient  #important for SAPT in psi4, default
symmetry c1  #important for SAPT in psi4, default
}

set PROPERTIES_ORIGIN ["COM"]
properties('MP2/aug-cc-pvtz', properties = ['dipole'])
--------------------------------------------------------------------------

    Molecular point group: c1
  Charge       = 0
  Multiplicity = 1
  Basis Set: AUG-CC-PVTZ
    Blend: AUG-CC-PVTZ
  Basis Set: (AUG-CC-PVTZ AUX)
    Blend: AUG-CC-PVTZ-JKFIT

    Orbital Energies [Eh]
    ---------------------

    Doubly Occupied:

       1A    -20.608397     2A    -20.537493     3A    -11.378812
       4A    -11.291560     5A    -11.240784     6A    -11.236526
       7A    -11.235840     8A    -11.227124     9A     -1.449344
      10A     -1.355668    11A     -1.152737    12A     -1.044769
      13A     -0.918177    14A     -0.838390    15A     -0.828403
      16A     -0.766286    17A     -0.716247    18A     -0.680480
      19A     -0.670912    20A     -0.643922    21A     -0.592281
      22A     -0.586616    23A     -0.554918    24A     -0.543087
      25A     -0.527855    26A     -0.516677    27A     -0.507998
      28A     -0.460605    29A     -0.448871    30A     -0.432343
      31A     -0.420270

  @DF-RHF Final Energy:  -382.88102290011631

   => Energetics <=

    Nuclear Repulsion Energy =            376.1112682823502382
    One-Electron Energy =               -1267.1578032170077677
    Two-Electron Energy =                 508.1655120345412229
    Total Energy =                       -382.8810229001163066
  Basis Set: (AUG-CC-PVTZ AUX)
    Blend: AUG-CC-PVTZ-RI
    Molecular point group: c1

    Geometry (in Angstrom), charge = 0, multiplicity = 1:

       Center              X                  Y                   Z               Mass
    ------------   -----------------  -----------------  -----------------  -----------------
         O           -0.996770005301    -0.457411207605    -0.000003096684    15.994914619570
         O            0.374541694699     1.434834092395     0.000001903316    15.994914619570
         C            1.332327994699    -0.690911207605    -0.000000096684    12.000000000000
         C            2.563400994699    -0.220035207605     0.744769903316    12.000000000000
         C            2.563400994699    -0.220033207605    -0.744769096684    12.000000000000
         C            0.172486994699     0.228245792395     0.000000903316    12.000000000000
         C           -2.182418005301     0.376106792395    -0.000003096684    12.000000000000
         C           -3.368440005301    -0.560988207605     0.000002903316    12.000000000000
         H            1.101989994699    -1.750179207605    -0.000001096684     1.007825032230
         H            3.140412994699    -0.973963207605     1.269081903316     1.007825032230
         H            2.476617994699     0.738448792395     1.244565903316     1.007825032230
         H            2.476616994699     0.738451792395    -1.244564096684     1.007825032230
         H            3.140412994699    -0.973960207605    -1.269083096684     1.007825032230
         H           -2.161652005301     1.019977792395     0.883435903316     1.007825032230
         H           -2.161656005301     1.019970792395    -0.883447096684     1.007825032230
         H           -4.298187005301     0.014958792395     0.000002903316     1.007825032230
         H           -3.353878005301    -1.198037207605    -0.886832096684     1.007825032230
         H           -3.353875005301    -1.198030207605     0.886842903316     1.007825032230

  Basis Set: AUG-CC-PVTZ
    Blend: AUG-CC-PVTZ
  Basis Set: (AUG-CC-PVTZ AUX)
    Blend: AUG-CC-PVTZ-JKFIT
	 Reference Energy          =    -382.8810229001163066 [Eh]
	 Singles Energy            =      -0.0000000000000000 [Eh]
	 Same-Spin Energy          =      -0.3855778222994817 [Eh]
	 Opposite-Spin Energy      =      -1.2554496409935605 [Eh]
	 Correlation Energy        =      -1.6410274632930422 [Eh]
	 Total Energy              =    -384.5220503634093348 [Eh]

	 ================> DF-SCS-MP2 Energies <==================
	-----------------------------------------------------------
	 SCS Same-Spin Scale       =       0.3333333333333333 [-]
	 SCS Opposite-Spin Scale   =       1.2000000000000000 [-]
	 SCS Same-Spin Energy      =      -0.1285259407664939 [Eh]
	 SCS Opposite-Spin Energy  =      -1.5065395691922725 [Eh]
	 SCS Correlation Energy    =      -1.6350655099587663 [Eh]
	 SCS Total Energy          =    -384.5160884100750991 [Eh]
	-----------------------------------------------------------

  Dipole Moment: [D]
     X:    -0.9100      Y:    -1.5415      Z:    -0.0000     Total:     1.7901

*** Psi4 exiting successfully. Buy a developer a beer!
