                               Psi4 1.3.2 release

  ==> Input File <==

--------------------------------------------------------------------------
#psi4
#
memory 32 gb

molecule  {
0 1
  O       -0.9563780    -0.4388210    -0.0000030
  O        0.2450427     1.4698025     0.0000020
  C        1.3727200    -0.6723210     0.0000000
  C        2.6037930    -0.2014450     0.7447700
  C        2.6037930    -0.2014430    -0.7447690
  C        0.2128790     0.2468360     0.0000010
  C       -2.1420260     0.3946970    -0.0000030
  C       -3.3280480    -0.5423980     0.0000030
  H        1.1423820    -1.7315890    -0.0000010
  H        3.1808050    -0.9553730     1.2690820
  H        2.5170100     0.7570390     1.2445660
  H        2.5170090     0.7570420    -1.2445640
  H        3.1808050    -0.9553700    -1.2690830
  H       -2.1212600     1.0385680     0.8834360
  H       -2.1212640     1.0385610    -0.8834470
  H       -4.2577950     0.0335490     0.0000030
  H       -3.3134860    -1.1794470    -0.8868320
  H       -3.3134830    -1.1794400     0.8868430
units angstrom
no_reorient  #important for SAPT in psi4, default
symmetry c1  #important for SAPT in psi4, default
}

set PROPERTIES_ORIGIN ["COM"]
properties('MP2/aug-cc-pvtz', properties = ['dipole'])
--------------------------------------------------------------------------

    Molecular point group: c1
  Charge       = 0
  Multiplicity = 1
  Basis Set: AUG-CC-PVTZ
    Blend: AUG-CC-PVTZ
  Basis Set: (AUG-CC-PVTZ AUX)
    Blend: AUG-CC-PVTZ-JKFIT

    Orbital Energies [Eh]
    ---------------------

    Doubly Occupied:

       1A    -20.597452     2A    -20.535393     3A    -11.377817
       4A    -11.284782     5A    -11.249748     6A    -11.242853
       7A    -11.242146     8A    -11.222381     9A     -1.448750
      10A     -1.344328    11A     -1.160862    12A     -1.039566
      13A     -0.920102    14A     -0.835244    15A     -0.834152
      16A     -0.762637    17A     -0.720464    18A     -0.675149
      19A     -0.669664    20A     -0.646541    21A     -0.592341
      22A     -0.582681    23A     -0.554167    24A     -0.542109
      25A     -0.529361    26A     -0.509428    27A     -0.506177
      28A     -0.455032    29A     -0.453050    30A     -0.436176
      31A     -0.426913

  @DF-RHF Final Energy:  -382.88496419762083

   => Energetics <=

    Nuclear Repulsion Energy =            376.1063971465509326
    One-Electron Energy =               -1267.1877925720457370
    Two-Electron Energy =                 508.1964312278739158
    Total Energy =                       -382.8849641976208318
  Basis Set: (AUG-CC-PVTZ AUX)
    Blend: AUG-CC-PVTZ-RI
    Molecular point group: c1

    Geometry (in Angstrom), charge = 0, multiplicity = 1:

       Center              X                  Y                   Z               Mass
    ------------   -----------------  -----------------  -----------------  -----------------
         O           -0.972947459589    -0.459707800233    -0.000003096684    15.994914619570
         O            0.228473240411     1.448915699767     0.000001903316    15.994914619570
         C            1.356150540411    -0.693207800233    -0.000000096684    12.000000000000
         C            2.587223540411    -0.222331800233     0.744769903316    12.000000000000
         C            2.587223540411    -0.222329800233    -0.744769096684    12.000000000000
         C            0.196309540411     0.225949199767     0.000000903316    12.000000000000
         C           -2.158595459589     0.373810199767    -0.000003096684    12.000000000000
         C           -3.344617459589    -0.563284800233     0.000002903316    12.000000000000
         H            1.125812540411    -1.752475800233    -0.000001096684     1.007825032230
         H            3.164235540411    -0.976259800233     1.269081903316     1.007825032230
         H            2.500440540411     0.736152199767     1.244565903316     1.007825032230
         H            2.500439540411     0.736155199767    -1.244564096684     1.007825032230
         H            3.164235540411    -0.976256800233    -1.269083096684     1.007825032230
         H           -2.137829459589     1.017681199767     0.883435903316     1.007825032230
         H           -2.137833459589     1.017674199767    -0.883447096684     1.007825032230
         H           -4.274364459589     0.012662199767     0.000002903316     1.007825032230
         H           -3.330055459589    -1.200333800233    -0.886832096684     1.007825032230
         H           -3.330052459589    -1.200326800233     0.886842903316     1.007825032230

  Basis Set: AUG-CC-PVTZ
    Blend: AUG-CC-PVTZ
  Basis Set: (AUG-CC-PVTZ AUX)
    Blend: AUG-CC-PVTZ-JKFIT
	 Reference Energy          =    -382.8849641976208318 [Eh]
	 Singles Energy            =      -0.0000000000000000 [Eh]
	 Same-Spin Energy          =      -0.3852898557727849 [Eh]
	 Opposite-Spin Energy      =      -1.2547014604133195 [Eh]
	 Correlation Energy        =      -1.6399913161861044 [Eh]
	 Total Energy              =    -384.5249555138069582 [Eh]

	 ================> DF-SCS-MP2 Energies <==================
	-----------------------------------------------------------
	 SCS Same-Spin Scale       =       0.3333333333333333 [-]
	 SCS Opposite-Spin Scale   =       1.2000000000000000 [-]
	 SCS Same-Spin Energy      =      -0.1284299519242616 [Eh]
	 SCS Opposite-Spin Energy  =      -1.5056417524959833 [Eh]
	 SCS Correlation Energy    =      -1.6340717044202449 [Eh]
	 SCS Total Energy          =    -384.5190359020410824 [Eh]
	-----------------------------------------------------------

  Dipole Moment: [D]
     X:    -0.3002      Y:    -1.6503      Z:    -0.0000     Total:     1.6774

*** Psi4 exiting successfully. Buy a developer a beer!
