                               Psi4 1.3.2 release

  ==> Input File <==

--------------------------------------------------------------------------
#psi4
#
memory 32 gb

molecule  {
0 1
  O       -0.9563780    -0.4388210    -0.0000030
  O        0.2877040     1.4679350     0.0000020
  C        1.3727200    -0.6723210     0.0000000
  C        2.6037930    -0.2014450     0.7447700
  C        2.6037930    -0.2014430    -0.7447690
  C        0.1345057     0.3089457     0.0000011
  C       -2.1420260     0.3946970    -0.0000030
  C       -3.3280480    -0.5423980     0.0000030
  H        1.1423820    -1.7315890    -0.0000010
  H        3.1808050    -0.9553730     1.2690820
  H        2.5170100     0.7570390     1.2445660
  H        2.5170090     0.7570420    -1.2445640
  H        3.1808050    -0.9553700    -1.2690830
  H       -2.1212600     1.0385680     0.8834360
  H       -2.1212640     1.0385610    -0.8834470
  H       -4.2577950     0.0335490     0.0000030
  H       -3.3134860    -1.1794470    -0.8868320
  H       -3.3134830    -1.1794400     0.8868430
units angstrom
no_reorient  #important for SAPT in psi4, default
symmetry c1  #important for SAPT in psi4, default
}

set PROPERTIES_ORIGIN ["COM"]
properties('MP2/aug-cc-pvtz', properties = ['dipole'])
--------------------------------------------------------------------------

    Molecular point group: c1
  Charge       = 0
  Multiplicity = 1
  Basis Set: AUG-CC-PVTZ
    Blend: AUG-CC-PVTZ
  Basis Set: (AUG-CC-PVTZ AUX)
    Blend: AUG-CC-PVTZ-JKFIT

    Orbital Energies [Eh]
    ---------------------

    Doubly Occupied:

       1A    -20.609587     2A    -20.544601     3A    -11.374340
       4A    -11.291914     5A    -11.240142     6A    -11.230962
       7A    -11.230254     8A    -11.227487     9A     -1.475406
      10A     -1.385942    11A     -1.143651    12A     -1.046131
      13A     -0.903194    14A     -0.829298    15A     -0.823290
      16A     -0.774452    17A     -0.711837    18A     -0.689594
      19A     -0.682656    20A     -0.645757    21A     -0.594989
      22A     -0.594169    23A     -0.556701    24A     -0.544719
      25A     -0.526179    26A     -0.521719    27A     -0.510204
      28A     -0.469720    29A     -0.450029    30A     -0.418141
      31A     -0.418076

  @DF-RHF Final Energy:  -382.87797868799453

   => Energetics <=

    Nuclear Repulsion Energy =            376.5321535391228736
    One-Electron Energy =               -1267.8899739890007368
    Two-Electron Energy =                 508.4798417618833355
    Total Energy =                       -382.8779786879945277
  Basis Set: (AUG-CC-PVTZ AUX)
    Blend: AUG-CC-PVTZ-RI
    Molecular point group: c1

    Geometry (in Angstrom), charge = 0, multiplicity = 1:

       Center              X                  Y                   Z               Mass
    ------------   -----------------  -----------------  -----------------  -----------------
         O           -0.970684637685    -0.465979895807    -0.000003107204    15.994914619570
         O            0.273397362315     1.440776104193     0.000001892796    15.994914619570
         C            1.358413362315    -0.699479895807    -0.000000107204    12.000000000000
         C            2.589486362315    -0.228603895807     0.744769892796    12.000000000000
         C            2.589486362315    -0.228601895807    -0.744769107204    12.000000000000
         C            0.120199062315     0.281786804193     0.000000992796    12.000000000000
         C           -2.156332637685     0.367538104193    -0.000003107204    12.000000000000
         C           -3.342354637685    -0.569556895807     0.000002892796    12.000000000000
         H            1.128075362315    -1.758747895807    -0.000001107204     1.007825032230
         H            3.166498362315    -0.982531895807     1.269081892796     1.007825032230
         H            2.502703362315     0.729880104193     1.244565892796     1.007825032230
         H            2.502702362315     0.729883104193    -1.244564107204     1.007825032230
         H            3.166498362315    -0.982528895807    -1.269083107204     1.007825032230
         H           -2.135566637685     1.011409104193     0.883435892796     1.007825032230
         H           -2.135570637685     1.011402104193    -0.883447107204     1.007825032230
         H           -4.272101637685     0.006390104193     0.000002892796     1.007825032230
         H           -3.327792637685    -1.206605895807    -0.886832107204     1.007825032230
         H           -3.327789637685    -1.206598895807     0.886842892796     1.007825032230

  Basis Set: AUG-CC-PVTZ
    Blend: AUG-CC-PVTZ
  Basis Set: (AUG-CC-PVTZ AUX)
    Blend: AUG-CC-PVTZ-JKFIT
	 Reference Energy          =    -382.8779786879945277 [Eh]
	 Singles Energy            =      -0.0000000000000000 [Eh]
	 Same-Spin Energy          =      -0.3838659350356497 [Eh]
	 Opposite-Spin Energy      =      -1.2523296785127007 [Eh]
	 Correlation Energy        =      -1.6361956135483504 [Eh]
	 Total Energy              =    -384.5141743015428801 [Eh]

	 ================> DF-SCS-MP2 Energies <==================
	-----------------------------------------------------------
	 SCS Same-Spin Scale       =       0.3333333333333333 [-]
	 SCS Opposite-Spin Scale   =       1.2000000000000000 [-]
	 SCS Same-Spin Energy      =      -0.1279553116785499 [Eh]
	 SCS Opposite-Spin Energy  =      -1.5027956142152408 [Eh]
	 SCS Correlation Energy    =      -1.6307509258937907 [Eh]
	 SCS Total Energy          =    -384.5087296138883062 [Eh]
	-----------------------------------------------------------

  Dipole Moment: [D]
     X:    -1.1949      Y:    -1.2814      Z:    -0.0000     Total:     1.7520

*** Psi4 exiting successfully. Buy a developer a beer!
