                               Psi4 1.3.2 release

  ==> Input File <==

--------------------------------------------------------------------------
#psi4
#
memory 32 gb

molecule  {
0 1
  O       -0.9057007    -0.5187140    -0.0000032
  O        0.2877040     1.4679350     0.0000020
  C        1.3727200    -0.6723210     0.0000000
  C        2.6037930    -0.2014450     0.7447700
  C        2.6037930    -0.2014430    -0.7447690
  C        0.2128790     0.2468360     0.0000010
  C       -2.1420260     0.3946970    -0.0000030
  C       -3.3280480    -0.5423980     0.0000030
  H        1.1423820    -1.7315890    -0.0000010
  H        3.1808050    -0.9553730     1.2690820
  H        2.5170100     0.7570390     1.2445660
  H        2.5170090     0.7570420    -1.2445640
  H        3.1808050    -0.9553700    -1.2690830
  H       -2.1212600     1.0385680     0.8834360
  H       -2.1212640     1.0385610    -0.8834470
  H       -4.2577950     0.0335490     0.0000030
  H       -3.3134860    -1.1794470    -0.8868320
  H       -3.3134830    -1.1794400     0.8868430
units angstrom
no_reorient  #important for SAPT in psi4, default
symmetry c1  #important for SAPT in psi4, default
}

set PROPERTIES_ORIGIN ["COM"]
properties('MP2/aug-cc-pvtz', properties = ['dipole'])
--------------------------------------------------------------------------

    Molecular point group: c1
  Charge       = 0
  Multiplicity = 1
  Basis Set: AUG-CC-PVTZ
    Blend: AUG-CC-PVTZ
  Basis Set: (AUG-CC-PVTZ AUX)
    Blend: AUG-CC-PVTZ-JKFIT

    Orbital Energies [Eh]
    ---------------------

    Doubly Occupied:

       1A    -20.603621     2A    -20.537215     3A    -11.375559
       4A    -11.296839     5A    -11.241280     6A    -11.237391
       7A    -11.236710     8A    -11.227298     9A     -1.436792
      10A     -1.343433    11A     -1.154508    12A     -1.041666
      13A     -0.912372    14A     -0.836944    15A     -0.829255
      16A     -0.755817    17A     -0.713129    18A     -0.668511
      19A     -0.668469    20A     -0.641652    21A     -0.587314
      22A     -0.586038    23A     -0.557537    24A     -0.534047
      25A     -0.525595    26A     -0.522229    27A     -0.507993
      28A     -0.463584    29A     -0.450998    30A     -0.428225
      31A     -0.421969

  @DF-RHF Final Energy:  -382.87471194257711

   => Energetics <=

    Nuclear Repulsion Energy =            374.9038787583824615
    One-Electron Energy =               -1264.8692034163939297
    Two-Electron Energy =                 507.0906127154343608
    Total Energy =                       -382.8747119425771075
  Basis Set: (AUG-CC-PVTZ AUX)
    Blend: AUG-CC-PVTZ-RI
    Molecular point group: c1

    Geometry (in Angstrom), charge = 0, multiplicity = 1:

       Center              X                  Y                   Z               Mass
    ------------   -----------------  -----------------  -----------------  -----------------
         O           -0.935358334155    -0.528136136133    -0.000003268640    15.994914619570
         O            0.258046365845     1.458512863867     0.000001931360    15.994914619570
         C            1.343062365845    -0.681743136133    -0.000000068640    12.000000000000
         C            2.574135365845    -0.210867136133     0.744769931360    12.000000000000
         C            2.574135365845    -0.210865136133    -0.744769068640    12.000000000000
         C            0.183221365845     0.237413863867     0.000000931360    12.000000000000
         C           -2.171683634155     0.385274863867    -0.000003068640    12.000000000000
         C           -3.357705634155    -0.551820136133     0.000002931360    12.000000000000
         H            1.112724365845    -1.741011136133    -0.000001068640     1.007825032230
         H            3.151147365845    -0.964795136133     1.269081931360     1.007825032230
         H            2.487352365845     0.747616863867     1.244565931360     1.007825032230
         H            2.487351365845     0.747619863867    -1.244564068640     1.007825032230
         H            3.151147365845    -0.964792136133    -1.269083068640     1.007825032230
         H           -2.150917634155     1.029145863867     0.883435931360     1.007825032230
         H           -2.150921634155     1.029138863867    -0.883447068640     1.007825032230
         H           -4.287452634155     0.024126863867     0.000002931360     1.007825032230
         H           -3.343143634155    -1.188869136133    -0.886832068640     1.007825032230
         H           -3.343140634155    -1.188862136133     0.886842931360     1.007825032230

  Basis Set: AUG-CC-PVTZ
    Blend: AUG-CC-PVTZ
  Basis Set: (AUG-CC-PVTZ AUX)
    Blend: AUG-CC-PVTZ-JKFIT
	 Reference Energy          =    -382.8747119425771075 [Eh]
	 Singles Energy            =      -0.0000000000000000 [Eh]
	 Same-Spin Energy          =      -0.3863143146784292 [Eh]
	 Opposite-Spin Energy      =      -1.2579890838628884 [Eh]
	 Correlation Energy        =      -1.6443033985413176 [Eh]
	 Total Energy              =    -384.5190153411184042 [Eh]

	 ================> DF-SCS-MP2 Energies <==================
	-----------------------------------------------------------
	 SCS Same-Spin Scale       =       0.3333333333333333 [-]
	 SCS Opposite-Spin Scale   =       1.2000000000000000 [-]
	 SCS Same-Spin Energy      =      -0.1287714382261431 [Eh]
	 SCS Opposite-Spin Energy  =      -1.5095869006354661 [Eh]
	 SCS Correlation Energy    =      -1.6383583388616092 [Eh]
	 SCS Total Energy          =    -384.5130702814387291 [Eh]
	-----------------------------------------------------------

  Dipole Moment: [D]
     X:    -0.8182      Y:    -1.4601      Z:    -0.0000     Total:     1.6737

*** Psi4 exiting successfully. Buy a developer a beer!
