                               Psi4 1.3.2 release

  ==> Input File <==

--------------------------------------------------------------------------
#psi4
#
memory 32 gb

molecule  {
0 1
  O       -0.9563780    -0.4388210    -0.0000030
  O        0.1596545     1.4690670     0.0000020
  C        1.3727200    -0.6723210     0.0000000
  C        2.6037930    -0.2014450     0.7447700
  C        2.6037930    -0.2014430    -0.7447690
  C        0.2128790     0.2468360     0.0000010
  C       -2.1420260     0.3946970    -0.0000030
  C       -3.3280480    -0.5423980     0.0000030
  H        1.1423820    -1.7315890    -0.0000010
  H        3.1808050    -0.9553730     1.2690820
  H        2.5170100     0.7570390     1.2445660
  H        2.5170090     0.7570420    -1.2445640
  H        3.1808050    -0.9553700    -1.2690830
  H       -2.1212600     1.0385680     0.8834360
  H       -2.1212640     1.0385610    -0.8834470
  H       -4.2577950     0.0335490     0.0000030
  H       -3.3134860    -1.1794470    -0.8868320
  H       -3.3134830    -1.1794400     0.8868430
units angstrom
no_reorient  #important for SAPT in psi4, default
symmetry c1  #important for SAPT in psi4, default
}

set PROPERTIES_ORIGIN ["COM"]
properties('MP2/aug-cc-pvtz', properties = ['dipole'])
--------------------------------------------------------------------------

    Molecular point group: c1
  Charge       = 0
  Multiplicity = 1
  Basis Set: AUG-CC-PVTZ
    Blend: AUG-CC-PVTZ
  Basis Set: (AUG-CC-PVTZ AUX)
    Blend: AUG-CC-PVTZ-JKFIT

    Orbital Energies [Eh]
    ---------------------

    Doubly Occupied:

       1A    -20.591688     2A    -20.533828     3A    -11.377465
       4A    -11.281202     5A    -11.254131     6A    -11.245839
       7A    -11.245128     8A    -11.219799     9A     -1.449314
      10A     -1.338006    11A     -1.164658    12A     -1.036887
      13A     -0.921201    14A     -0.836945    15A     -0.833522
      16A     -0.760605    17A     -0.722333    18A     -0.672625
      19A     -0.669646    20A     -0.647561    21A     -0.592946
      22A     -0.580694    23A     -0.554456    24A     -0.540345
      25A     -0.531091    26A     -0.505269    27A     -0.504050
      28A     -0.453835    29A     -0.451990    30A     -0.437129
      31A     -0.429906

  @DF-RHF Final Energy:  -382.88219751676257

   => Energetics <=

    Nuclear Repulsion Energy =            376.3008031202168695
    One-Electron Energy =               -1267.5978138344783019
    Two-Electron Energy =                 508.4148131974988587
    Total Energy =                       -382.8821975167625737
  Basis Set: (AUG-CC-PVTZ AUX)
    Blend: AUG-CC-PVTZ-RI
    Molecular point group: c1

    Geometry (in Angstrom), charge = 0, multiplicity = 1:

       Center              X                  Y                   Z               Mass
    ------------   -----------------  -----------------  -----------------  -----------------
         O           -0.960974110219    -0.459604666563    -0.000003096684    15.994914619570
         O            0.155058389781     1.448283333437     0.000001903316    15.994914619570
         C            1.368123889781    -0.693104666563    -0.000000096684    12.000000000000
         C            2.599196889781    -0.222228666563     0.744769903316    12.000000000000
         C            2.599196889781    -0.222226666563    -0.744769096684    12.000000000000
         C            0.208282889781     0.226052333437     0.000000903316    12.000000000000
         C           -2.146622110219     0.373913333437    -0.000003096684    12.000000000000
         C           -3.332644110219    -0.563181666563     0.000002903316    12.000000000000
         H            1.137785889781    -1.752372666563    -0.000001096684     1.007825032230
         H            3.176208889781    -0.976156666563     1.269081903316     1.007825032230
         H            2.512413889781     0.736255333437     1.244565903316     1.007825032230
         H            2.512412889781     0.736258333437    -1.244564096684     1.007825032230
         H            3.176208889781    -0.976153666563    -1.269083096684     1.007825032230
         H           -2.125856110219     1.017784333437     0.883435903316     1.007825032230
         H           -2.125860110219     1.017777333437    -0.883447096684     1.007825032230
         H           -4.262391110219     0.012765333437     0.000002903316     1.007825032230
         H           -3.318082110219    -1.200230666563    -0.886832096684     1.007825032230
         H           -3.318079110219    -1.200223666563     0.886842903316     1.007825032230

  Basis Set: AUG-CC-PVTZ
    Blend: AUG-CC-PVTZ
  Basis Set: (AUG-CC-PVTZ AUX)
    Blend: AUG-CC-PVTZ-JKFIT
	 Reference Energy          =    -382.8821975167625737 [Eh]
	 Singles Energy            =      -0.0000000000000000 [Eh]
	 Same-Spin Energy          =      -0.3853760539691829 [Eh]
	 Opposite-Spin Energy      =      -1.2547459661842066 [Eh]
	 Correlation Energy        =      -1.6401220201533895 [Eh]
	 Total Energy              =    -384.5223195369159725 [Eh]

	 ================> DF-SCS-MP2 Energies <==================
	-----------------------------------------------------------
	 SCS Same-Spin Scale       =       0.3333333333333333 [-]
	 SCS Opposite-Spin Scale   =       1.2000000000000000 [-]
	 SCS Same-Spin Energy      =      -0.1284586846563943 [Eh]
	 SCS Opposite-Spin Energy  =      -1.5056951594210479 [Eh]
	 SCS Correlation Energy    =      -1.6341538440774421 [Eh]
	 SCS Total Energy          =    -384.5163513608400194 [Eh]
	-----------------------------------------------------------

  Dipole Moment: [D]
     X:     0.0075      Y:    -1.6777      Z:    -0.0000     Total:     1.6777

*** Psi4 exiting successfully. Buy a developer a beer!
