                               Psi4 1.3.2 release

  ==> Input File <==

--------------------------------------------------------------------------
#psi4
#
memory 32 gb

molecule  {
0 1
  O       -0.9563780    -0.4388210    -0.0000030
  O        0.3727013     1.4597409     0.0000020
  C        1.3727200    -0.6723210     0.0000000
  C        2.6037930    -0.2014450     0.7447700
  C        2.6037930    -0.2014430    -0.7447690
  C        0.2128790     0.2468360     0.0000010
  C       -2.1420260     0.3946970    -0.0000030
  C       -3.3280480    -0.5423980     0.0000030
  H        1.1423820    -1.7315890    -0.0000010
  H        3.1808050    -0.9553730     1.2690820
  H        2.5170100     0.7570390     1.2445660
  H        2.5170090     0.7570420    -1.2445640
  H        3.1808050    -0.9553700    -1.2690830
  H       -2.1212600     1.0385680     0.8834360
  H       -2.1212640     1.0385610    -0.8834470
  H       -4.2577950     0.0335490     0.0000030
  H       -3.3134860    -1.1794470    -0.8868320
  H       -3.3134830    -1.1794400     0.8868430
units angstrom
no_reorient  #important for SAPT in psi4, default
symmetry c1  #important for SAPT in psi4, default
}

set PROPERTIES_ORIGIN ["COM"]
properties('MP2/aug-cc-pvtz', properties = ['dipole'])
--------------------------------------------------------------------------

    Molecular point group: c1
  Charge       = 0
  Multiplicity = 1
  Basis Set: AUG-CC-PVTZ
    Blend: AUG-CC-PVTZ
  Basis Set: (AUG-CC-PVTZ AUX)
    Blend: AUG-CC-PVTZ-JKFIT

    Orbital Energies [Eh]
    ---------------------

    Doubly Occupied:

       1A    -20.605733     2A    -20.537092     3A    -11.378528
       4A    -11.289920     5A    -11.243042     6A    -11.238149
       7A    -11.237457     8A    -11.225989     9A     -1.449011
      10A     -1.352963    11A     -1.154835    12A     -1.043496
      13A     -0.918618    14A     -0.837655    15A     -0.829853
      16A     -0.765424    17A     -0.717361    18A     -0.679130
      19A     -0.670447    20A     -0.644636    21A     -0.592151
      22A     -0.585635    23A     -0.554520    24A     -0.543240
      25A     -0.527912    26A     -0.514997    27A     -0.507899
      28A     -0.459295    29A     -0.450283    30A     -0.433465
      31A     -0.422007

  @DF-RHF Final Energy:  -382.88316716309401

   => Energetics <=

    Nuclear Repulsion Energy =            376.0611097663993974
    One-Electron Energy =               -1267.0670677458294904
    Two-Electron Energy =                 508.1227908163361349
    Total Energy =                       -382.8831671630940150
  Basis Set: (AUG-CC-PVTZ AUX)
    Blend: AUG-CC-PVTZ-RI
    Molecular point group: c1

    Geometry (in Angstrom), charge = 0, multiplicity = 1:

       Center              X                  Y                   Z               Mass
    ------------   -----------------  -----------------  -----------------  -----------------
         O           -0.990848071357    -0.458296937233    -0.000003096684    15.994914619570
         O            0.338231228643     1.440264962767     0.000001903316    15.994914619570
         C            1.338249928643    -0.691796937233    -0.000000096684    12.000000000000
         C            2.569322928643    -0.220920937233     0.744769903316    12.000000000000
         C            2.569322928643    -0.220918937233    -0.744769096684    12.000000000000
         C            0.178408928643     0.227360062767     0.000000903316    12.000000000000
         C           -2.176496071357     0.375221062767    -0.000003096684    12.000000000000
         C           -3.362518071357    -0.561873937233     0.000002903316    12.000000000000
         H            1.107911928643    -1.751064937233    -0.000001096684     1.007825032230
         H            3.146334928643    -0.974848937233     1.269081903316     1.007825032230
         H            2.482539928643     0.737563062767     1.244565903316     1.007825032230
         H            2.482538928643     0.737566062767    -1.244564096684     1.007825032230
         H            3.146334928643    -0.974845937233    -1.269083096684     1.007825032230
         H           -2.155730071357     1.019092062767     0.883435903316     1.007825032230
         H           -2.155734071357     1.019085062767    -0.883447096684     1.007825032230
         H           -4.292265071357     0.014073062767     0.000002903316     1.007825032230
         H           -3.347956071357    -1.198922937233    -0.886832096684     1.007825032230
         H           -3.347953071357    -1.198915937233     0.886842903316     1.007825032230

  Basis Set: AUG-CC-PVTZ
    Blend: AUG-CC-PVTZ
  Basis Set: (AUG-CC-PVTZ AUX)
    Blend: AUG-CC-PVTZ-JKFIT
	 Reference Energy          =    -382.8831671630940150 [Eh]
	 Singles Energy            =      -0.0000000000000000 [Eh]
	 Same-Spin Energy          =      -0.3854493016903369 [Eh]
	 Opposite-Spin Energy      =      -1.2551618490952139 [Eh]
	 Correlation Energy        =      -1.6406111507855508 [Eh]
	 Total Energy              =    -384.5237783138795749 [Eh]

	 ================> DF-SCS-MP2 Energies <==================
	-----------------------------------------------------------
	 SCS Same-Spin Scale       =       0.3333333333333333 [-]
	 SCS Opposite-Spin Scale   =       1.2000000000000000 [-]
	 SCS Same-Spin Energy      =      -0.1284831005634456 [Eh]
	 SCS Opposite-Spin Energy  =      -1.5061942189142565 [Eh]
	 SCS Correlation Energy    =      -1.6346773194777022 [Eh]
	 SCS Total Energy          =    -384.5178444825717179 [Eh]
	-----------------------------------------------------------

  Dipole Moment: [D]
     X:    -0.7587      Y:    -1.5755      Z:    -0.0000     Total:     1.7487

*** Psi4 exiting successfully. Buy a developer a beer!
