                               Psi4 1.3.2 release

  ==> Input File <==

--------------------------------------------------------------------------
#psi4
#
memory 32 gb

molecule  {
0 1
  O       -0.9563780    -0.4388210    -0.0000030
  O        0.2877040     1.4679350     0.0000020
  C        1.3727200    -0.6723210     0.0000000
  C        2.6037930    -0.2014450     0.7447700
  C        2.6037930    -0.2014430    -0.7447690
  C        0.2456637     0.2867539     0.0000010
  C       -2.1420260     0.3946970    -0.0000030
  C       -3.3280480    -0.5423980     0.0000030
  H        1.1423820    -1.7315890    -0.0000010
  H        3.1808050    -0.9553730     1.2690820
  H        2.5170100     0.7570390     1.2445660
  H        2.5170090     0.7570420    -1.2445640
  H        3.1808050    -0.9553700    -1.2690830
  H       -2.1212600     1.0385680     0.8834360
  H       -2.1212640     1.0385610    -0.8834470
  H       -4.2577950     0.0335490     0.0000030
  H       -3.3134860    -1.1794470    -0.8868320
  H       -3.3134830    -1.1794400     0.8868430
units angstrom
no_reorient  #important for SAPT in psi4, default
symmetry c1  #important for SAPT in psi4, default
}

set PROPERTIES_ORIGIN ["COM"]
properties('MP2/aug-cc-pvtz', properties = ['dipole'])
--------------------------------------------------------------------------

    Molecular point group: c1
  Charge       = 0
  Multiplicity = 1
  Basis Set: AUG-CC-PVTZ
    Blend: AUG-CC-PVTZ
  Basis Set: (AUG-CC-PVTZ AUX)
    Blend: AUG-CC-PVTZ-JKFIT

    Orbital Energies [Eh]
    ---------------------

    Doubly Occupied:

       1A    -20.587584     2A    -20.546921     3A    -11.376716
       4A    -11.280481     5A    -11.249133     6A    -11.242715
       7A    -11.242011     8A    -11.219740     9A     -1.448537
      10A     -1.357401    11A     -1.162071    12A     -1.031892
      13A     -0.915642    14A     -0.834781    15A     -0.831156
      16A     -0.755997    17A     -0.723643    18A     -0.675565
      19A     -0.668723    20A     -0.647798    21A     -0.589626
      22A     -0.586281    23A     -0.558211    24A     -0.542357
      25A     -0.529858    26A     -0.510585    27A     -0.507477
      28A     -0.457606    29A     -0.454816    30A     -0.433145
      31A     -0.429003

  @DF-RHF Final Energy:  -382.88287532430337

   => Energetics <=

    Nuclear Repulsion Energy =            376.1004584998585756
    One-Electron Energy =               -1267.1717244391600161
    Two-Electron Energy =                 508.1883906149980135
    Total Energy =                       -382.8828753243033702
  Basis Set: (AUG-CC-PVTZ AUX)
    Blend: AUG-CC-PVTZ-RI
    Molecular point group: c1

    Geometry (in Angstrom), charge = 0, multiplicity = 1:

       Center              X                  Y                   Z               Mass
    ------------   -----------------  -----------------  -----------------  -----------------
         O           -0.982378496345    -0.463645311048    -0.000003096684    15.994914619570
         O            0.261703503655     1.443110688952     0.000001903316    15.994914619570
         C            1.346719503655    -0.697145311048    -0.000000096684    12.000000000000
         C            2.577792503655    -0.226269311048     0.744769903316    12.000000000000
         C            2.577792503655    -0.226267311048    -0.744769096684    12.000000000000
         C            0.219663203655     0.261929588952     0.000000903316    12.000000000000
         C           -2.168026496345     0.369872688952    -0.000003096684    12.000000000000
         C           -3.354048496345    -0.567222311048     0.000002903316    12.000000000000
         H            1.116381503655    -1.756413311048    -0.000001096684     1.007825032230
         H            3.154804503655    -0.980197311048     1.269081903316     1.007825032230
         H            2.491009503655     0.732214688952     1.244565903316     1.007825032230
         H            2.491008503655     0.732217688952    -1.244564096684     1.007825032230
         H            3.154804503655    -0.980194311048    -1.269083096684     1.007825032230
         H           -2.147260496345     1.013743688952     0.883435903316     1.007825032230
         H           -2.147264496345     1.013736688952    -0.883447096684     1.007825032230
         H           -4.283795496345     0.008724688952     0.000002903316     1.007825032230
         H           -3.339486496345    -1.204271311048    -0.886832096684     1.007825032230
         H           -3.339483496345    -1.204264311048     0.886842903316     1.007825032230

  Basis Set: AUG-CC-PVTZ
    Blend: AUG-CC-PVTZ
  Basis Set: (AUG-CC-PVTZ AUX)
    Blend: AUG-CC-PVTZ-JKFIT
	 Reference Energy          =    -382.8828753243033702 [Eh]
	 Singles Energy            =      -0.0000000000000000 [Eh]
	 Same-Spin Energy          =      -0.3850687754631983 [Eh]
	 Opposite-Spin Energy      =      -1.2544297689146213 [Eh]
	 Correlation Energy        =      -1.6394985443778196 [Eh]
	 Total Energy              =    -384.5223738686811998 [Eh]

	 ================> DF-SCS-MP2 Energies <==================
	-----------------------------------------------------------
	 SCS Same-Spin Scale       =       0.3333333333333333 [-]
	 SCS Opposite-Spin Scale   =       1.2000000000000000 [-]
	 SCS Same-Spin Energy      =      -0.1283562584877327 [Eh]
	 SCS Opposite-Spin Energy  =      -1.5053157226975455 [Eh]
	 SCS Correlation Energy    =      -1.6336719811852782 [Eh]
	 SCS Total Energy          =    -384.5165473054886434 [Eh]
	-----------------------------------------------------------

  Dipole Moment: [D]
     X:    -0.0573      Y:    -1.3756      Z:    -0.0000     Total:     1.3768

*** Psi4 exiting successfully. Buy a developer a beer!
