                               Psi4 1.3.2 release

  ==> Input File <==

--------------------------------------------------------------------------
#psi4
#
memory 32 gb

molecule  {
0 1
  O       -0.9317366    -0.4792098    -0.0000031
  O        0.2877040     1.4679350     0.0000020
  C        1.3727200    -0.6723210     0.0000000
  C        2.6037930    -0.2014450     0.7447700
  C        2.6037930    -0.2014430    -0.7447690
  C        0.2128790     0.2468360     0.0000010
  C       -2.1420260     0.3946970    -0.0000030
  C       -3.3280480    -0.5423980     0.0000030
  H        1.1423820    -1.7315890    -0.0000010
  H        3.1808050    -0.9553730     1.2690820
  H        2.5170100     0.7570390     1.2445660
  H        2.5170090     0.7570420    -1.2445640
  H        3.1808050    -0.9553700    -1.2690830
  H       -2.1212600     1.0385680     0.8834360
  H       -2.1212640     1.0385610    -0.8834470
  H       -4.2577950     0.0335490     0.0000030
  H       -3.3134860    -1.1794470    -0.8868320
  H       -3.3134830    -1.1794400     0.8868430
units angstrom
no_reorient  #important for SAPT in psi4, default
symmetry c1  #important for SAPT in psi4, default
}

set PROPERTIES_ORIGIN ["COM"]
properties('MP2/aug-cc-pvtz', properties = ['dipole'])
--------------------------------------------------------------------------

    Molecular point group: c1
  Charge       = 0
  Multiplicity = 1
  Basis Set: AUG-CC-PVTZ
    Blend: AUG-CC-PVTZ
  Basis Set: (AUG-CC-PVTZ AUX)
    Blend: AUG-CC-PVTZ-JKFIT

    Orbital Energies [Eh]
    ---------------------

    Doubly Occupied:

       1A    -20.602200     2A    -20.536635     3A    -11.376706
       4A    -11.291605     5A    -11.244403     6A    -11.239374
       7A    -11.238680     8A    -11.225418     9A     -1.442361
      10A     -1.345258    11A     -1.156732    12A     -1.041108
      13A     -0.915939    14A     -0.836097    15A     -0.831006
      16A     -0.759752    17A     -0.716404    18A     -0.672149
      19A     -0.669150    20A     -0.643818    21A     -0.588759
      22A     -0.585497    23A     -0.555891    24A     -0.538313
      25A     -0.527133    26A     -0.517383    27A     -0.507249
      28A     -0.460505    29A     -0.451761    30A     -0.431997
      31A     -0.423686

  @DF-RHF Final Energy:  -382.88132079738182

   => Energetics <=

    Nuclear Repulsion Energy =            375.4645943902452245
    One-Electron Energy =               -1265.9458939206281229
    Two-Electron Energy =                 507.5999787330010804
    Total Energy =                       -382.8813207973818180
  Basis Set: (AUG-CC-PVTZ AUX)
    Blend: AUG-CC-PVTZ-RI
    Molecular point group: c1

    Geometry (in Angstrom), charge = 0, multiplicity = 1:

       Center              X                  Y                   Z               Mass
    ------------   -----------------  -----------------  -----------------  -----------------
         O           -0.957743414406    -0.494171314971    -0.000003182662    15.994914619570
         O            0.261697185594     1.452973485029     0.000001917338    15.994914619570
         C            1.346713185594    -0.687282514971    -0.000000082662    12.000000000000
         C            2.577786185594    -0.216406514971     0.744769917338    12.000000000000
         C            2.577786185594    -0.216404514971    -0.744769082662    12.000000000000
         C            0.186872185594     0.231874485029     0.000000917338    12.000000000000
         C           -2.168032814406     0.379735485029    -0.000003082662    12.000000000000
         C           -3.354054814406    -0.557359514971     0.000002917338    12.000000000000
         H            1.116375185594    -1.746550514971    -0.000001082662     1.007825032230
         H            3.154798185594    -0.970334514971     1.269081917338     1.007825032230
         H            2.491003185594     0.742077485029     1.244565917338     1.007825032230
         H            2.491002185594     0.742080485029    -1.244564082662     1.007825032230
         H            3.154798185594    -0.970331514971    -1.269083082662     1.007825032230
         H           -2.147266814406     1.023606485029     0.883435917338     1.007825032230
         H           -2.147270814406     1.023599485029    -0.883447082662     1.007825032230
         H           -4.283801814406     0.018587485029     0.000002917338     1.007825032230
         H           -3.339492814406    -1.194408514971    -0.886832082662     1.007825032230
         H           -3.339489814406    -1.194401514971     0.886842917338     1.007825032230

  Basis Set: AUG-CC-PVTZ
    Blend: AUG-CC-PVTZ
  Basis Set: (AUG-CC-PVTZ AUX)
    Blend: AUG-CC-PVTZ-JKFIT
	 Reference Energy          =    -382.8813207973818180 [Eh]
	 Singles Energy            =      -0.0000000000000000 [Eh]
	 Same-Spin Energy          =      -0.3857547882409622 [Eh]
	 Opposite-Spin Energy      =      -1.2562841708157517 [Eh]
	 Correlation Energy        =      -1.6420389590567139 [Eh]
	 Total Energy              =    -384.5233597564385377 [Eh]

	 ================> DF-SCS-MP2 Energies <==================
	-----------------------------------------------------------
	 SCS Same-Spin Scale       =       0.3333333333333333 [-]
	 SCS Opposite-Spin Scale   =       1.2000000000000000 [-]
	 SCS Same-Spin Energy      =      -0.1285849294136541 [Eh]
	 SCS Opposite-Spin Energy  =      -1.5075410049789020 [Eh]
	 SCS Correlation Energy    =      -1.6361259343925560 [Eh]
	 SCS Total Energy          =    -384.5174467317743847 [Eh]
	-----------------------------------------------------------

  Dipole Moment: [D]
     X:    -0.6377      Y:    -1.5417      Z:    -0.0000     Total:     1.6684

*** Psi4 exiting successfully. Buy a developer a beer!
