                               Psi4 1.3.2 release

  ==> Input File <==

--------------------------------------------------------------------------
#psi4
#
memory 32 gb

molecule  {
0 1
  O       -0.9563780    -0.4388210    -0.0000030
  O        0.2877040     1.4679350     0.0000020
  C        1.3727200    -0.6723210     0.0000000
  C        2.6037930    -0.2014450     0.7447700
  C        2.6037930    -0.2014430    -0.7447690
  C        0.0561323     0.3710555     0.0000011
  C       -2.1420260     0.3946970    -0.0000030
  C       -3.3280480    -0.5423980     0.0000030
  H        1.1423820    -1.7315890    -0.0000010
  H        3.1808050    -0.9553730     1.2690820
  H        2.5170100     0.7570390     1.2445660
  H        2.5170090     0.7570420    -1.2445640
  H        3.1808050    -0.9553700    -1.2690830
  H       -2.1212600     1.0385680     0.8834360
  H       -2.1212640     1.0385610    -0.8834470
  H       -4.2577950     0.0335490     0.0000030
  H       -3.3134860    -1.1794470    -0.8868320
  H       -3.3134830    -1.1794400     0.8868430
units angstrom
no_reorient  #important for SAPT in psi4, default
symmetry c1  #important for SAPT in psi4, default
}

set PROPERTIES_ORIGIN ["COM"]
properties('MP2/aug-cc-pvtz', properties = ['dipole'])
--------------------------------------------------------------------------

    Molecular point group: c1
  Charge       = 0
  Multiplicity = 1
  Basis Set: AUG-CC-PVTZ
    Blend: AUG-CC-PVTZ
  Basis Set: (AUG-CC-PVTZ AUX)
    Blend: AUG-CC-PVTZ-JKFIT

    Orbital Energies [Eh]
    ---------------------

    Doubly Occupied:

       1A    -20.619894     2A    -20.555401     3A    -11.375355
       4A    -11.298087     5A    -11.231708     6A    -11.228025
       7A    -11.220926     8A    -11.220229     9A     -1.502774
      10A     -1.424148    11A     -1.129517    12A     -1.051548
      13A     -0.896042    14A     -0.822101    15A     -0.813906
      16A     -0.782491    17A     -0.712319    18A     -0.704793
      19A     -0.694672    20A     -0.643952    21A     -0.608533
      22A     -0.593533    23A     -0.560714    24A     -0.553118
      25A     -0.533291    26A     -0.530908    27A     -0.506494
      28A     -0.482752    29A     -0.440190    30A     -0.407318
      31A     -0.391777

  @DF-RHF Final Energy:  -382.84485563970037

   => Energetics <=

    Nuclear Repulsion Energy =            377.0396103424707235
    One-Electron Energy =               -1268.6958974162564573
    Two-Electron Energy =                 508.8114314340853639
    Total Energy =                       -382.8448556397003699
  Basis Set: (AUG-CC-PVTZ AUX)
    Blend: AUG-CC-PVTZ-RI
    Molecular point group: c1

    Geometry (in Angstrom), charge = 0, multiplicity = 1:

       Center              X                  Y                   Z               Mass
    ------------   -----------------  -----------------  -----------------  -----------------
         O           -0.962439729875    -0.472513867474    -0.000003107204    15.994914619570
         O            0.281642270125     1.434242132526     0.000001892796    15.994914619570
         C            1.366658270125    -0.706013867474    -0.000000107204    12.000000000000
         C            2.597731270125    -0.235137867474     0.744769892796    12.000000000000
         C            2.597731270125    -0.235135867474    -0.744769107204    12.000000000000
         C            0.050070570125     0.337362632526     0.000000992796    12.000000000000
         C           -2.148087729875     0.361004132526    -0.000003107204    12.000000000000
         C           -3.334109729875    -0.576090867474     0.000002892796    12.000000000000
         H            1.136320270125    -1.765281867474    -0.000001107204     1.007825032230
         H            3.174743270125    -0.989065867474     1.269081892796     1.007825032230
         H            2.510948270125     0.723346132526     1.244565892796     1.007825032230
         H            2.510947270125     0.723349132526    -1.244564107204     1.007825032230
         H            3.174743270125    -0.989062867474    -1.269083107204     1.007825032230
         H           -2.127321729875     1.004875132526     0.883435892796     1.007825032230
         H           -2.127325729875     1.004868132526    -0.883447107204     1.007825032230
         H           -4.263856729875    -0.000143867474     0.000002892796     1.007825032230
         H           -3.319547729875    -1.213139867474    -0.886832107204     1.007825032230
         H           -3.319544729875    -1.213132867474     0.886842892796     1.007825032230

  Basis Set: AUG-CC-PVTZ
    Blend: AUG-CC-PVTZ
  Basis Set: (AUG-CC-PVTZ AUX)
    Blend: AUG-CC-PVTZ-JKFIT
	 Reference Energy          =    -382.8448556397003699 [Eh]
	 Singles Energy            =      -0.0000000000000000 [Eh]
	 Same-Spin Energy          =      -0.3837050451078303 [Eh]
	 Opposite-Spin Energy      =      -1.2521217681796724 [Eh]
	 Correlation Energy        =      -1.6358268132875027 [Eh]
	 Total Energy              =    -384.4806824529878782 [Eh]

	 ================> DF-SCS-MP2 Energies <==================
	-----------------------------------------------------------
	 SCS Same-Spin Scale       =       0.3333333333333333 [-]
	 SCS Opposite-Spin Scale   =       1.2000000000000000 [-]
	 SCS Same-Spin Energy      =      -0.1279016817026101 [Eh]
	 SCS Opposite-Spin Energy  =      -1.5025461218156069 [Eh]
	 SCS Correlation Energy    =      -1.6304478035182171 [Eh]
	 SCS Total Energy          =    -384.4753034432185927 [Eh]
	-----------------------------------------------------------

  Dipole Moment: [D]
     X:    -1.9777      Y:    -0.8832      Z:    -0.0000     Total:     2.1659

*** Psi4 exiting successfully. Buy a developer a beer!
