                               Psi4 1.4a3.dev225

  ==> Input File <==

--------------------------------------------------------------------------
#psi4
#
memory 32 gb

molecule  {
0 1
  O       -0.9563780    -0.4388210    -0.0000030
  O        0.2877040     1.4679350     0.0000020
  C        1.3727200    -0.6723210     0.0000000
  C        2.6037930    -0.2014450     0.7447700
  C        2.6037930    -0.2014430    -0.7447690
  C        0.1972043     0.2592579     0.0000010
  C       -2.1420260     0.3946970    -0.0000030
  C       -3.3280480    -0.5423980     0.0000030
  H        1.1423820    -1.7315890    -0.0000010
  H        3.1808050    -0.9553730     1.2690820
  H        2.5170100     0.7570390     1.2445660
  H        2.5170090     0.7570420    -1.2445640
  H        3.1808050    -0.9553700    -1.2690830
  H       -2.1212600     1.0385680     0.8834360
  H       -2.1212640     1.0385610    -0.8834470
  H       -4.2577950     0.0335490     0.0000030
  H       -3.3134860    -1.1794470    -0.8868320
  H       -3.3134830    -1.1794400     0.8868430
units angstrom
no_reorient  #important for SAPT in psi4, default
symmetry c1  #important for SAPT in psi4, default
}

set PROPERTIES_ORIGIN ["COM"]
properties('MP2/aug-cc-pvtz', properties = ['dipole'])
--------------------------------------------------------------------------

    Molecular point group: c1
  Charge       = 0
  Multiplicity = 1
  Basis Set: AUG-CC-PVTZ
    Blend: AUG-CC-PVTZ
  Basis Set: (AUG-CC-PVTZ AUX)
    Blend: AUG-CC-PVTZ-JKFIT

    Orbital Energies [Eh]
    ---------------------

    Doubly Occupied:

       1A    -20.602117     2A    -20.537703     3A    -11.377082
       4A    -11.287590     5A    -11.246361     6A    -11.239162
       7A    -11.238456     8A    -11.224392     9A     -1.454055
      10A     -1.355020    11A     -1.155691    12A     -1.041936
      13A     -0.915492    14A     -0.835050    15A     -0.830791
      16A     -0.765820    17A     -0.717664    18A     -0.678966
      19A     -0.671927    20A     -0.646297    21A     -0.592751
      22A     -0.585755    23A     -0.554585    24A     -0.542666
      25A     -0.527630    26A     -0.513517    27A     -0.507896
      28A     -0.459056    29A     -0.452644    30A     -0.432580
      31A     -0.424324

  @DF-RHF Final Energy:  -382.88596267370451

   => Energetics <=

    Nuclear Repulsion Energy =            376.1471038481301434
    One-Electron Energy =               -1267.2361732289689371
    Two-Electron Energy =                 508.2031067071342250
    Total Energy =                       -382.8859626737045119
  Basis Set: (AUG-CC-PVTZ AUX)
    Blend: AUG-CC-PVTZ-RI
    Molecular point group: c1

    Geometry (in Angstrom), charge = 0, multiplicity = 1:

       Center              X                  Y                   Z               Mass
    ------------   -----------------  -----------------  -----------------  -----------------
         O           -0.977280551309    -0.460752722681    -0.000003096684    15.994914619570
         O            0.266801448691     1.446003277319     0.000001903316    15.994914619570
         C            1.351817448691    -0.694252722681    -0.000000096684    12.000000000000
         C            2.582890448691    -0.223376722681     0.744769903316    12.000000000000
         C            2.582890448691    -0.223374722681    -0.744769096684    12.000000000000
         C            0.176301748691     0.237326177319     0.000000903316    12.000000000000
         C           -2.162928551309     0.372765277319    -0.000003096684    12.000000000000
         C           -3.348950551309    -0.564329722681     0.000002903316    12.000000000000
         H            1.121479448691    -1.753520722681    -0.000001096684     1.007825032230
         H            3.159902448691    -0.977304722681     1.269081903316     1.007825032230
         H            2.496107448691     0.735107277319     1.244565903316     1.007825032230
         H            2.496106448691     0.735110277319    -1.244564096684     1.007825032230
         H            3.159902448691    -0.977301722681    -1.269083096684     1.007825032230
         H           -2.142162551309     1.016636277319     0.883435903316     1.007825032230
         H           -2.142166551309     1.016629277319    -0.883447096684     1.007825032230
         H           -4.278697551309     0.011617277319     0.000002903316     1.007825032230
         H           -3.334388551309    -1.201378722681    -0.886832096684     1.007825032230
         H           -3.334385551309    -1.201371722681     0.886842903316     1.007825032230

  Basis Set: AUG-CC-PVTZ
    Blend: AUG-CC-PVTZ
  Basis Set: (AUG-CC-PVTZ AUX)
    Blend: AUG-CC-PVTZ-JKFIT
	 Reference Energy          =    -382.8859626737045119 [Eh]
	 Singles Energy            =      -0.0000000000000000 [Eh]
	 Same-Spin Energy          =      -0.3849159429343960 [Eh]
	 Opposite-Spin Energy      =      -1.2541107723276808 [Eh]
	 Correlation Energy        =      -1.6390267152620768 [Eh]
	 Total Energy              =    -384.5249893889666168 [Eh]

	 ================> DF-SCS-MP2 Energies <==================
	-----------------------------------------------------------
	 SCS Same-Spin Scale       =       0.3333333333333333 [-]
	 SCS Opposite-Spin Scale   =       1.2000000000000000 [-]
	 SCS Same-Spin Energy      =      -0.1283053143114653 [Eh]
	 SCS Opposite-Spin Energy  =      -1.5049329267932168 [Eh]
	 SCS Correlation Energy    =      -1.6332382411046822 [Eh]
	 SCS Total Energy          =    -384.5192009148091756 [Eh]
	-----------------------------------------------------------

  Dipole Moment: [D]
     X:    -0.6019      Y:    -1.5627      Z:    -0.0000     Total:     1.6746

*** Psi4 exiting successfully. Buy a developer a beer!
