                               Psi4 1.3.2 release

  ==> Input File <==

--------------------------------------------------------------------------
#psi4
#
memory 32 gb

molecule  {
0 1
  O       -0.9563780    -0.4388210    -0.0000030
  O        0.3090037     1.4664431     0.0000020
  C        1.3727200    -0.6723210     0.0000000
  C        2.6037930    -0.2014450     0.7447700
  C        2.6037930    -0.2014430    -0.7447690
  C        0.2128790     0.2468360     0.0000010
  C       -2.1420260     0.3946970    -0.0000030
  C       -3.3280480    -0.5423980     0.0000030
  H        1.1423820    -1.7315890    -0.0000010
  H        3.1808050    -0.9553730     1.2690820
  H        2.5170100     0.7570390     1.2445660
  H        2.5170090     0.7570420    -1.2445640
  H        3.1808050    -0.9553700    -1.2690830
  H       -2.1212600     1.0385680     0.8834360
  H       -2.1212640     1.0385610    -0.8834470
  H       -4.2577950     0.0335490     0.0000030
  H       -3.3134860    -1.1794470    -0.8868320
  H       -3.3134830    -1.1794400     0.8868430
units angstrom
no_reorient  #important for SAPT in psi4, default
symmetry c1  #important for SAPT in psi4, default
}

set PROPERTIES_ORIGIN ["COM"]
properties('MP2/aug-cc-pvtz', properties = ['dipole'])
--------------------------------------------------------------------------

    Molecular point group: c1
  Charge       = 0
  Multiplicity = 1
  Basis Set: AUG-CC-PVTZ
    Blend: AUG-CC-PVTZ
  Basis Set: (AUG-CC-PVTZ AUX)
    Blend: AUG-CC-PVTZ-JKFIT

    Orbital Energies [Eh]
    ---------------------

    Doubly Occupied:

       1A    -20.601647     2A    -20.536337     3A    -11.378146
       4A    -11.287390     5A    -11.246411     6A    -11.240533
       7A    -11.239833     8A    -11.224224     9A     -1.448732
      10A     -1.348756    11A     -1.157899    12A     -1.041549
      13A     -0.919332    14A     -0.836485    15A     -0.832016
      16A     -0.764069    17A     -0.718956    18A     -0.677120
      19A     -0.669941    20A     -0.645641    21A     -0.592135
      22A     -0.584161    23A     -0.554196    24A     -0.542954
      25A     -0.528420    26A     -0.512311    27A     -0.507293
      28A     -0.457218    29A     -0.451932    30A     -0.434964
      31A     -0.424519

  @DF-RHF Final Energy:  -382.88493838315134

   => Energetics <=

    Nuclear Repulsion Energy =            376.0469917232550188
    One-Electron Energy =               -1267.0536238033653262
    Two-Electron Energy =                 508.1216936969589710
    Total Energy =                       -382.8849383831513364
  Basis Set: (AUG-CC-PVTZ AUX)
    Blend: AUG-CC-PVTZ-RI
    Molecular point group: c1

    Geometry (in Angstrom), charge = 0, multiplicity = 1:

       Center              X                  Y                   Z               Mass
    ------------   -----------------  -----------------  -----------------  -----------------
         O           -0.981916232780    -0.459236736668    -0.000003096684    15.994914619570
         O            0.283465467220     1.446027363332     0.000001903316    15.994914619570
         C            1.347181767220    -0.692736736668    -0.000000096684    12.000000000000
         C            2.578254767220    -0.221860736668     0.744769903316    12.000000000000
         C            2.578254767220    -0.221858736668    -0.744769096684    12.000000000000
         C            0.187340767220     0.226420263332     0.000000903316    12.000000000000
         C           -2.167564232780     0.374281263332    -0.000003096684    12.000000000000
         C           -3.353586232780    -0.562813736668     0.000002903316    12.000000000000
         H            1.116843767220    -1.752004736668    -0.000001096684     1.007825032230
         H            3.155266767220    -0.975788736668     1.269081903316     1.007825032230
         H            2.491471767220     0.736623263332     1.244565903316     1.007825032230
         H            2.491470767220     0.736626263332    -1.244564096684     1.007825032230
         H            3.155266767220    -0.975785736668    -1.269083096684     1.007825032230
         H           -2.146798232780     1.018152263332     0.883435903316     1.007825032230
         H           -2.146802232780     1.018145263332    -0.883447096684     1.007825032230
         H           -4.283333232780     0.013133263332     0.000002903316     1.007825032230
         H           -3.339024232780    -1.199862736668    -0.886832096684     1.007825032230
         H           -3.339021232780    -1.199855736668     0.886842903316     1.007825032230

  Basis Set: AUG-CC-PVTZ
    Blend: AUG-CC-PVTZ
  Basis Set: (AUG-CC-PVTZ AUX)
    Blend: AUG-CC-PVTZ-JKFIT
	 Reference Energy          =    -382.8849383831513364 [Eh]
	 Singles Energy            =      -0.0000000000000000 [Eh]
	 Same-Spin Energy          =      -0.3853270422948515 [Eh]
	 Opposite-Spin Energy      =      -1.2548544691419674 [Eh]
	 Correlation Energy        =      -1.6401815114368190 [Eh]
	 Total Energy              =    -384.5251198945881583 [Eh]

	 ================> DF-SCS-MP2 Energies <==================
	-----------------------------------------------------------
	 SCS Same-Spin Scale       =       0.3333333333333333 [-]
	 SCS Opposite-Spin Scale   =       1.2000000000000000 [-]
	 SCS Same-Spin Energy      =      -0.1284423474316172 [Eh]
	 SCS Opposite-Spin Energy  =      -1.5058253629703608 [Eh]
	 SCS Correlation Energy    =      -1.6342677104019780 [Eh]
	 SCS Total Energy          =    -384.5192060935532936 [Eh]
	-----------------------------------------------------------

  Dipole Moment: [D]
     X:    -0.5302      Y:    -1.6180      Z:    -0.0000     Total:     1.7026

*** Psi4 exiting successfully. Buy a developer a beer!
