                               Psi4 1.3.2 release

  ==> Input File <==

--------------------------------------------------------------------------
#psi4
#
memory 32 gb

molecule  {
0 1
  O       -0.9563780    -0.4388210    -0.0000030
  O        0.2877040     1.4679350     0.0000020
  C        1.3727200    -0.6723210     0.0000000
  C        2.6160672    -0.2239062     0.7382134
  C        2.6037930    -0.2014430    -0.7447690
  C        0.2128790     0.2468360     0.0000010
  C       -2.1420260     0.3946970    -0.0000030
  C       -3.3280480    -0.5423980     0.0000030
  H        1.1423820    -1.7315890    -0.0000010
  H        3.1808050    -0.9553730     1.2690820
  H        2.5170100     0.7570390     1.2445660
  H        2.5170090     0.7570420    -1.2445640
  H        3.1808050    -0.9553700    -1.2690830
  H       -2.1212600     1.0385680     0.8834360
  H       -2.1212640     1.0385610    -0.8834470
  H       -4.2577950     0.0335490     0.0000030
  H       -3.3134860    -1.1794470    -0.8868320
  H       -3.3134830    -1.1794400     0.8868430
units angstrom
no_reorient  #important for SAPT in psi4, default
symmetry c1  #important for SAPT in psi4, default
}

set PROPERTIES_ORIGIN ["COM"]
properties('MP2/aug-cc-pvtz', properties = ['dipole'])
--------------------------------------------------------------------------

    Molecular point group: c1
  Charge       = 0
  Multiplicity = 1
  Basis Set: AUG-CC-PVTZ
    Blend: AUG-CC-PVTZ
  Basis Set: (AUG-CC-PVTZ AUX)
    Blend: AUG-CC-PVTZ-JKFIT

    Orbital Energies [Eh]
    ---------------------

    Doubly Occupied:

       1A    -20.600310     2A    -20.536172     3A    -11.378231
       4A    -11.286567     5A    -11.247168     6A    -11.241348
       7A    -11.240617     8A    -11.223626     9A     -1.448727
      10A     -1.347318    11A     -1.159808    12A     -1.040971
      13A     -0.920012    14A     -0.836223    15A     -0.832410
      16A     -0.763571    17A     -0.718705    18A     -0.676507
      19A     -0.669628    20A     -0.648795    21A     -0.591113
      22A     -0.583821    23A     -0.553850    24A     -0.542862
      25A     -0.527813    26A     -0.511393    27A     -0.505859
      28A     -0.456315    29A     -0.452936    30A     -0.436877
      31A     -0.424440

  @DF-RHF Final Energy:  -382.88426589640636

   => Energetics <=

    Nuclear Repulsion Energy =            375.9749238300033767
    One-Electron Energy =               -1266.9103924907508372
    Two-Electron Energy =                 508.0512027643410988
    Total Energy =                       -382.8842658964063617
  Basis Set: (AUG-CC-PVTZ AUX)
    Blend: AUG-CC-PVTZ-RI
    Molecular point group: c1

    Geometry (in Angstrom), charge = 0, multiplicity = 1:

       Center              X                  Y                   Z               Mass
    ------------   -----------------  -----------------  -----------------  -----------------
         O           -0.980220784907    -0.457083008931     0.000686659822    15.994914619570
         O            0.263861215093     1.449672991069     0.000691659822    15.994914619570
         C            1.348877215093    -0.690583008931     0.000689659822    12.000000000000
         C            2.592224415093    -0.242168208931     0.738903059822    12.000000000000
         C            2.579950215093    -0.219705008931    -0.744079340178    12.000000000000
         C            0.189036215093     0.228573991069     0.000690659822    12.000000000000
         C           -2.165868784907     0.376434991069     0.000686659822    12.000000000000
         C           -3.351890784907    -0.560660008931     0.000692659822    12.000000000000
         H            1.118539215093    -1.749851008931     0.000688659822     1.007825032230
         H            3.156962215093    -0.973635008931     1.269771659822     1.007825032230
         H            2.493167215093     0.738776991069     1.245255659822     1.007825032230
         H            2.493166215093     0.738779991069    -1.243874340178     1.007825032230
         H            3.156962215093    -0.973632008931    -1.268393340178     1.007825032230
         H           -2.145102784907     1.020305991069     0.884125659822     1.007825032230
         H           -2.145106784907     1.020298991069    -0.882757340178     1.007825032230
         H           -4.281637784907     0.015286991069     0.000692659822     1.007825032230
         H           -3.337328784907    -1.197709008931    -0.886142340178     1.007825032230
         H           -3.337325784907    -1.197702008931     0.887532659822     1.007825032230

  Basis Set: AUG-CC-PVTZ
    Blend: AUG-CC-PVTZ
  Basis Set: (AUG-CC-PVTZ AUX)
    Blend: AUG-CC-PVTZ-JKFIT
	 Reference Energy          =    -382.8842658964063617 [Eh]
	 Singles Energy            =      -0.0000000000000000 [Eh]
	 Same-Spin Energy          =      -0.3853435452507622 [Eh]
	 Opposite-Spin Energy      =      -1.2548134894427843 [Eh]
	 Correlation Energy        =      -1.6401570346935466 [Eh]
	 Total Energy              =    -384.5244229310999344 [Eh]

	 ================> DF-SCS-MP2 Energies <==================
	-----------------------------------------------------------
	 SCS Same-Spin Scale       =       0.3333333333333333 [-]
	 SCS Opposite-Spin Scale   =       1.2000000000000000 [-]
	 SCS Same-Spin Energy      =      -0.1284478484169207 [Eh]
	 SCS Opposite-Spin Energy  =      -1.5057761873313411 [Eh]
	 SCS Correlation Energy    =      -1.6342240357482618 [Eh]
	 SCS Total Energy          =    -384.5184899321546368 [Eh]
	-----------------------------------------------------------

  Dipole Moment: [D]
     X:    -0.4485      Y:    -1.6345      Z:     0.0032     Total:     1.6949

*** Psi4 exiting successfully. Buy a developer a beer!
