                               Psi4 1.4a3.dev225

  ==> Input File <==

--------------------------------------------------------------------------
#psi4
#
memory 32 gb

molecule  {
0 1
  O       -0.9563780    -0.4388210    -0.0000030
  O        0.2877040     1.4679350     0.0000020
  C        1.3727200    -0.6723210     0.0000000
  C        2.6037930    -0.2014450     0.7447700
  C        2.6037930    -0.2014430    -0.7447690
  C        0.2520657     0.2157811     0.0000010
  C       -2.1420260     0.3946970    -0.0000030
  C       -3.3280480    -0.5423980     0.0000030
  H        1.1423820    -1.7315890    -0.0000010
  H        3.1808050    -0.9553730     1.2690820
  H        2.5170100     0.7570390     1.2445660
  H        2.5170090     0.7570420    -1.2445640
  H        3.1808050    -0.9553700    -1.2690830
  H       -2.1212600     1.0385680     0.8834360
  H       -2.1212640     1.0385610    -0.8834470
  H       -4.2577950     0.0335490     0.0000030
  H       -3.3134860    -1.1794470    -0.8868320
  H       -3.3134830    -1.1794400     0.8868430
units angstrom
no_reorient  #important for SAPT in psi4, default
symmetry c1  #important for SAPT in psi4, default
}

set PROPERTIES_ORIGIN ["COM"]
properties('MP2/aug-cc-pvtz', properties = ['dipole'])
--------------------------------------------------------------------------

    Molecular point group: c1
  Charge       = 0
  Multiplicity = 1
  Basis Set: AUG-CC-PVTZ
    Blend: AUG-CC-PVTZ
  Basis Set: (AUG-CC-PVTZ AUX)
    Blend: AUG-CC-PVTZ-JKFIT

    Orbital Energies [Eh]
    ---------------------

    Doubly Occupied:

       1A    -20.595515     2A    -20.531787     3A    -11.380530
       4A    -11.283838     5A    -11.249904     6A    -11.246953
       7A    -11.246287     8A    -11.221636     9A     -1.435229
      10A     -1.328139    11A     -1.167349    12A     -1.038315
      13A     -0.931436    14A     -0.837778    15A     -0.837726
      16A     -0.758225    17A     -0.724145    18A     -0.670370
      19A     -0.666742    20A     -0.643237    21A     -0.590632
      22A     -0.578901    23A     -0.553312    24A     -0.543123
      25A     -0.531911    26A     -0.505799    27A     -0.504859
      28A     -0.451147    29A     -0.450801    30A     -0.440302
      31A     -0.426271

  @DF-RHF Final Energy:  -382.87788256928729

   => Energetics <=

    Nuclear Repulsion Energy =            375.8571625020948659
    One-Electron Energy =               -1266.7256931299557436
    Two-Electron Energy =                 507.9906480585735835
    Total Energy =                       -382.8778825692872942
  Basis Set: (AUG-CC-PVTZ AUX)
    Blend: AUG-CC-PVTZ-RI
    Molecular point group: c1

    Geometry (in Angstrom), charge = 0, multiplicity = 1:

       Center              X                  Y                   Z               Mass
    ------------   -----------------  -----------------  -----------------  -----------------
         O           -0.983051988879    -0.456178948826    -0.000003096684    15.994914619570
         O            0.261030011121     1.450577051174     0.000001903316    15.994914619570
         C            1.346046011121    -0.689678948826    -0.000000096684    12.000000000000
         C            2.577119011121    -0.218802948826     0.744769903316    12.000000000000
         C            2.577119011121    -0.218800948826    -0.744769096684    12.000000000000
         C            0.225391711121     0.198423151174     0.000000903316    12.000000000000
         C           -2.168699988879     0.377339051174    -0.000003096684    12.000000000000
         C           -3.354721988879    -0.559755948826     0.000002903316    12.000000000000
         H            1.115708011121    -1.748946948826    -0.000001096684     1.007825032230
         H            3.154131011121    -0.972730948826     1.269081903316     1.007825032230
         H            2.490336011121     0.739681051174     1.244565903316     1.007825032230
         H            2.490335011121     0.739684051174    -1.244564096684     1.007825032230
         H            3.154131011121    -0.972727948826    -1.269083096684     1.007825032230
         H           -2.147933988879     1.021210051174     0.883435903316     1.007825032230
         H           -2.147937988879     1.021203051174    -0.883447096684     1.007825032230
         H           -4.284468988879     0.016191051174     0.000002903316     1.007825032230
         H           -3.340159988879    -1.196804948826    -0.886832096684     1.007825032230
         H           -3.340156988879    -1.196797948826     0.886842903316     1.007825032230

  Basis Set: AUG-CC-PVTZ
    Blend: AUG-CC-PVTZ
  Basis Set: (AUG-CC-PVTZ AUX)
    Blend: AUG-CC-PVTZ-JKFIT
	 Reference Energy          =    -382.8778825692872942 [Eh]
	 Singles Energy            =      -0.0000000000000000 [Eh]
	 Same-Spin Energy          =      -0.3864868595879848 [Eh]
	 Opposite-Spin Energy      =      -1.2568619271110408 [Eh]
	 Correlation Energy        =      -1.6433487866990255 [Eh]
	 Total Energy              =    -384.5212313559863446 [Eh]

	 ================> DF-SCS-MP2 Energies <==================
	-----------------------------------------------------------
	 SCS Same-Spin Scale       =       0.3333333333333333 [-]
	 SCS Opposite-Spin Scale   =       1.2000000000000000 [-]
	 SCS Same-Spin Energy      =      -0.1288289531959949 [Eh]
	 SCS Opposite-Spin Energy  =      -1.5082343125332489 [Eh]
	 SCS Correlation Energy    =      -1.6370632657292439 [Eh]
	 SCS Total Energy          =    -384.5149458350165332 [Eh]
	-----------------------------------------------------------

  Dipole Moment: [D]
     X:    -0.0776      Y:    -1.7948      Z:    -0.0000     Total:     1.7965

*** Psi4 exiting successfully. Buy a developer a beer!
