                               Psi4 1.3.2 release

  ==> Input File <==

--------------------------------------------------------------------------
#psi4
#
memory 32 gb

molecule  {
0 1
  N        0.2124128     1.0585757     0.0000010
  N        0.7926860    -1.3208380    -0.0000020
  C       -1.5206760    -0.6557300    -0.0000030
  C       -2.4976210     0.2265170     0.7463830
  C       -2.4976210     0.2265190    -0.7463820
  C       -0.0883020    -0.2997600     0.0000010
  C        1.5276990     1.3180910     0.0000010
  C        2.0920280    -0.9819740     0.0000030
  C        2.5210310     0.3421130     0.0000010
  H       -1.7051520    -1.7251160     0.0000010
  H       -2.0735420     1.0920370     1.2438350
  H       -3.3111280    -0.2648640     1.2701610
  H       -3.3111290    -0.2648490    -1.2701700
  H       -2.0735380     1.0920430    -1.2438240
  H        1.7737980     2.3789750    -0.0000070
  H        2.8018760    -1.8077390    -0.0000100
  H        3.5748870     0.6009090    -0.0000030
units angstrom
no_reorient  #important for SAPT in psi4, default
symmetry c1  #important for SAPT in psi4, default
}

set PROPERTIES_ORIGIN ["COM"]
properties('MP2/aug-cc-pvtz', properties = ['dipole'])
--------------------------------------------------------------------------

    Molecular point group: c1
  Charge       = 0
  Multiplicity = 1
  Basis Set: AUG-CC-PVTZ
    Blend: AUG-CC-PVTZ
  Basis Set: (AUG-CC-PVTZ AUX)
    Blend: AUG-CC-PVTZ-JKFIT

    Orbital Energies [Eh]
    ---------------------

    Doubly Occupied:

       1A    -15.572684     2A    -15.568584     3A    -11.325844
       4A    -11.298557     5A    -11.297905     6A    -11.241410
       7A    -11.235526     8A    -11.229580     9A    -11.228892
      10A     -1.299073    11A     -1.186410    12A     -1.149929
      13A     -1.061622    14A     -0.913572    15A     -0.885246
      16A     -0.821979    17A     -0.801698    18A     -0.715417
      19A     -0.698412    20A     -0.654336    21A     -0.635767
      22A     -0.605526    23A     -0.585839    24A     -0.573474
      25A     -0.525030    26A     -0.514979    27A     -0.481894
      28A     -0.442371    29A     -0.428805    30A     -0.418817
      31A     -0.409889    32A     -0.346097

  @DF-RHF Final Energy:  -378.72611041860915

   => Energetics <=

    Nuclear Repulsion Energy =            412.3742805779291416
    One-Electron Energy =               -1329.8904549265141668
    Two-Electron Energy =                 538.7900639299759860
    Total Energy =                       -378.7261104186090961
  Basis Set: (AUG-CC-PVTZ AUX)
    Blend: AUG-CC-PVTZ-RI
    Molecular point group: c1

    Geometry (in Angstrom), charge = 0, multiplicity = 1:

       Center              X                  Y                   Z               Mass
    ------------   -----------------  -----------------  -----------------  -----------------
         N            0.177806242822     1.062349803943     0.000000859548    14.003074004430
         N            0.758079442822    -1.317063896057    -0.000002140452    14.003074004430
         C           -1.555282557178    -0.651955896057    -0.000003140452    12.000000000000
         C           -2.532227557178     0.230291103943     0.746382859548    12.000000000000
         C           -2.532227557178     0.230293103943    -0.746382140452    12.000000000000
         C           -0.122908557178    -0.295985896057     0.000000859548    12.000000000000
         C            1.493092442822     1.321865103943     0.000000859548    12.000000000000
         C            2.057421442822    -0.978199896057     0.000002859548    12.000000000000
         C            2.486424442822     0.345887103943     0.000000859548    12.000000000000
         H           -1.739758557178    -1.721341896057     0.000000859548     1.007825032230
         H           -2.108148557178     1.095811103943     1.243834859548     1.007825032230
         H           -3.345734557178    -0.261089896057     1.270160859548     1.007825032230
         H           -3.345735557178    -0.261074896057    -1.270170140452     1.007825032230
         H           -2.108144557178     1.095817103943    -1.243824140452     1.007825032230
         H            1.739191442822     2.382749103943    -0.000007140452     1.007825032230
         H            2.767269442822    -1.803964896057    -0.000010140452     1.007825032230
         H            3.540280442822     0.604683103943    -0.000003140452     1.007825032230

  Basis Set: AUG-CC-PVTZ
    Blend: AUG-CC-PVTZ
  Basis Set: (AUG-CC-PVTZ AUX)
    Blend: AUG-CC-PVTZ-JKFIT
	 Reference Energy          =    -378.7261104186091529 [Eh]
	 Singles Energy            =      -0.0000000000000000 [Eh]
	 Same-Spin Energy          =      -0.4135410468486856 [Eh]
	 Opposite-Spin Energy      =      -1.2919655389495082 [Eh]
	 Correlation Energy        =      -1.7055065857981937 [Eh]
	 Total Energy              =    -380.4316170044073715 [Eh]

	 ================> DF-SCS-MP2 Energies <==================
	-----------------------------------------------------------
	 SCS Same-Spin Scale       =       0.3333333333333333 [-]
	 SCS Opposite-Spin Scale   =       1.2000000000000000 [-]
	 SCS Same-Spin Energy      =      -0.1378470156162285 [Eh]
	 SCS Opposite-Spin Energy  =      -1.5503586467394097 [Eh]
	 SCS Correlation Energy    =      -1.6882056623556383 [Eh]
	 SCS Total Energy          =    -380.4143160809647952 [Eh]
	-----------------------------------------------------------

  Dipole Moment: [D]
     X:     1.3860      Y:     0.5194      Z:    -0.0000     Total:     1.4801

*** Psi4 exiting successfully. Buy a developer a beer!
