                               Psi4 1.3.2 release

  ==> Input File <==

--------------------------------------------------------------------------
#psi4
#
memory 32 gb

molecule  {
0 1
  N        0.2222710     1.0128310     0.0000010
  N        0.7926860    -1.3208380    -0.0000020
  C       -1.5206760    -0.6557300    -0.0000030
  C       -2.4976210     0.2265170     0.7463830
  C       -2.4976210     0.2265190    -0.7463820
  C       -0.2823980    -0.3479963     0.0000005
  C        1.5276990     1.3180910     0.0000010
  C        2.0920280    -0.9819740     0.0000030
  C        2.5210310     0.3421130     0.0000010
  H       -1.7051520    -1.7251160     0.0000010
  H       -2.0735420     1.0920370     1.2438350
  H       -3.3111280    -0.2648640     1.2701610
  H       -3.3111290    -0.2648490    -1.2701700
  H       -2.0735380     1.0920430    -1.2438240
  H        1.7737980     2.3789750    -0.0000070
  H        2.8018760    -1.8077390    -0.0000100
  H        3.5748870     0.6009090    -0.0000030
units angstrom
no_reorient  #important for SAPT in psi4, default
symmetry c1  #important for SAPT in psi4, default
}

set PROPERTIES_ORIGIN ["COM"]
properties('MP2/aug-cc-pvtz', properties = ['dipole'])
--------------------------------------------------------------------------

    Molecular point group: c1
  Charge       = 0
  Multiplicity = 1
  Basis Set: AUG-CC-PVTZ
    Blend: AUG-CC-PVTZ
  Basis Set: (AUG-CC-PVTZ AUX)
    Blend: AUG-CC-PVTZ-JKFIT

    Orbital Energies [Eh]
    ---------------------

    Doubly Occupied:

       1A    -15.559981     2A    -15.559437     3A    -11.333158
       4A    -11.287633     5A    -11.286053     6A    -11.251466
       7A    -11.250715     8A    -11.237848     9A    -11.228151
      10A     -1.269289    11A     -1.183992    12A     -1.148592
      13A     -1.054257    14A     -0.954165    15A     -0.863080
      16A     -0.841598    17A     -0.803552    18A     -0.727191
      19A     -0.692091    20A     -0.660319    21A     -0.636741
      22A     -0.602684    23A     -0.576492    24A     -0.563632
      25A     -0.557913    26A     -0.529035    27A     -0.467769
      28A     -0.464323    29A     -0.447838    30A     -0.400790
      31A     -0.368026    32A     -0.320279

  @DF-RHF Final Energy:  -378.65741737786391

   => Energetics <=

    Nuclear Repulsion Energy =            412.6808135178364978
    One-Electron Energy =               -1330.4202855210908183
    Two-Electron Energy =                 539.0820546253904695
    Total Energy =                       -378.6574173778639079
  Basis Set: (AUG-CC-PVTZ AUX)
    Blend: AUG-CC-PVTZ-RI
    Molecular point group: c1

    Geometry (in Angstrom), charge = 0, multiplicity = 1:

       Center              X                  Y                   Z               Mass
    ------------   -----------------  -----------------  -----------------  -----------------
         N            0.205913212193     1.026760969120     0.000000909519    14.003074004430
         N            0.776328212193    -1.306908030880    -0.000002090481    14.003074004430
         C           -1.537033787807    -0.641800030880    -0.000003090481    12.000000000000
         C           -2.513978787807     0.240446969120     0.746382909519    12.000000000000
         C           -2.513978787807     0.240448969120    -0.746382090481    12.000000000000
         C           -0.298755787807    -0.334066330880     0.000000409519    12.000000000000
         C            1.511341212193     1.332020969120     0.000000909519    12.000000000000
         C            2.075670212193    -0.968044030880     0.000002909519    12.000000000000
         C            2.504673212193     0.356042969120     0.000000909519    12.000000000000
         H           -1.721509787807    -1.711186030880     0.000000909519     1.007825032230
         H           -2.089899787807     1.105966969120     1.243834909519     1.007825032230
         H           -3.327485787807    -0.250934030880     1.270160909519     1.007825032230
         H           -3.327486787807    -0.250919030880    -1.270170090481     1.007825032230
         H           -2.089895787807     1.105972969120    -1.243824090481     1.007825032230
         H            1.757440212193     2.392904969120    -0.000007090481     1.007825032230
         H            2.785518212193    -1.793809030880    -0.000010090481     1.007825032230
         H            3.558529212193     0.614838969120    -0.000003090481     1.007825032230

  Basis Set: AUG-CC-PVTZ
    Blend: AUG-CC-PVTZ
  Basis Set: (AUG-CC-PVTZ AUX)
    Blend: AUG-CC-PVTZ-JKFIT
	 Reference Energy          =    -378.6574173778639079 [Eh]
	 Singles Energy            =      -0.0000000000000000 [Eh]
	 Same-Spin Energy          =      -0.4189949259104315 [Eh]
	 Opposite-Spin Energy      =      -1.3005555272486151 [Eh]
	 Correlation Energy        =      -1.7195504531590466 [Eh]
	 Total Energy              =    -380.3769678310229665 [Eh]

	 ================> DF-SCS-MP2 Energies <==================
	-----------------------------------------------------------
	 SCS Same-Spin Scale       =       0.3333333333333333 [-]
	 SCS Opposite-Spin Scale   =       1.2000000000000000 [-]
	 SCS Same-Spin Energy      =      -0.1396649753034772 [Eh]
	 SCS Opposite-Spin Energy  =      -1.5606666326983381 [Eh]
	 SCS Correlation Energy    =      -1.7003316080018152 [Eh]
	 SCS Total Energy          =    -380.3577489858657259 [Eh]
	-----------------------------------------------------------

  Dipole Moment: [D]
     X:    -0.1006      Y:     0.5139      Z:    -0.0000     Total:     0.5237

*** Psi4 exiting successfully. Buy a developer a beer!
