                               Psi4 1.3.2 release

  ==> Input File <==

--------------------------------------------------------------------------
#psi4
#
memory 32 gb

molecule  {
0 1
  N        0.2222710     1.0128310     0.0000010
  N        0.7926860    -1.3208380    -0.0000020
  C       -1.5206760    -0.6557300    -0.0000030
  C       -2.4976210     0.2265170     0.7463830
  C       -2.4976210     0.2265190    -0.7463820
  C       -0.0669600    -0.4005445     0.0000015
  C        1.5276990     1.3180910     0.0000010
  C        2.0920280    -0.9819740     0.0000030
  C        2.5210310     0.3421130     0.0000010
  H       -1.7051520    -1.7251160     0.0000010
  H       -2.0735420     1.0920370     1.2438350
  H       -3.3111280    -0.2648640     1.2701610
  H       -3.3111290    -0.2648490    -1.2701700
  H       -2.0735380     1.0920430    -1.2438240
  H        1.7737980     2.3789750    -0.0000070
  H        2.8018760    -1.8077390    -0.0000100
  H        3.5748870     0.6009090    -0.0000030
units angstrom
no_reorient  #important for SAPT in psi4, default
symmetry c1  #important for SAPT in psi4, default
}

set PROPERTIES_ORIGIN ["COM"]
properties('MP2/aug-cc-pvtz', properties = ['dipole'])
--------------------------------------------------------------------------

    Molecular point group: c1
  Charge       = 0
  Multiplicity = 1
  Basis Set: AUG-CC-PVTZ
    Blend: AUG-CC-PVTZ
  Basis Set: (AUG-CC-PVTZ AUX)
    Blend: AUG-CC-PVTZ-JKFIT

    Orbital Energies [Eh]
    ---------------------

    Doubly Occupied:

       1A    -15.569597     2A    -15.562030     3A    -11.317660
       4A    -11.299463     5A    -11.295945     6A    -11.242983
       7A    -11.233521     8A    -11.228829     9A    -11.228152
      10A     -1.311864    11A     -1.185344    12A     -1.147253
      13A     -1.064551    14A     -0.917100    15A     -0.885229
      16A     -0.820482    17A     -0.804551    18A     -0.713096
      19A     -0.705348    20A     -0.648763    21A     -0.638796
      22A     -0.608161    23A     -0.587867    24A     -0.579215
      25A     -0.523121    26A     -0.513910    27A     -0.475593
      28A     -0.443408    29A     -0.432347    30A     -0.417946
      31A     -0.400260    32A     -0.347764

  @DF-RHF Final Energy:  -378.71822502607699

   => Energetics <=

    Nuclear Repulsion Energy =            413.1808414495400257
    One-Electron Energy =               -1331.4978371440975025
    Two-Electron Energy =                 539.5987706684804834
    Total Energy =                       -378.7182250260769933
  Basis Set: (AUG-CC-PVTZ AUX)
    Blend: AUG-CC-PVTZ-RI
    Molecular point group: c1

    Geometry (in Angstrom), charge = 0, multiplicity = 1:

       Center              X                  Y                   Z               Mass
    ------------   -----------------  -----------------  -----------------  -----------------
         N            0.184381747617     1.032012780346     0.000000809577    14.003074004430
         N            0.754796747617    -1.301656219654    -0.000002190423    14.003074004430
         C           -1.558565252383    -0.636548219654    -0.000003190423    12.000000000000
         C           -2.535510252383     0.245698780346     0.746382809577    12.000000000000
         C           -2.535510252383     0.245700780346    -0.746382190423    12.000000000000
         C           -0.104849252383    -0.381362719654     0.000001309577    12.000000000000
         C            1.489809747617     1.337272780346     0.000000809577    12.000000000000
         C            2.054138747617    -0.962792219654     0.000002809577    12.000000000000
         C            2.483141747617     0.361294780346     0.000000809577    12.000000000000
         H           -1.743041252383    -1.705934219654     0.000000809577     1.007825032230
         H           -2.111431252383     1.111218780346     1.243834809577     1.007825032230
         H           -3.349017252383    -0.245682219654     1.270160809577     1.007825032230
         H           -3.349018252383    -0.245667219654    -1.270170190423     1.007825032230
         H           -2.111427252383     1.111224780346    -1.243824190423     1.007825032230
         H            1.735908747617     2.398156780346    -0.000007190423     1.007825032230
         H            2.763986747617    -1.788557219654    -0.000010190423     1.007825032230
         H            3.536997747617     0.620090780346    -0.000003190423     1.007825032230

  Basis Set: AUG-CC-PVTZ
    Blend: AUG-CC-PVTZ
  Basis Set: (AUG-CC-PVTZ AUX)
    Blend: AUG-CC-PVTZ-JKFIT
	 Reference Energy          =    -378.7182250260769933 [Eh]
	 Singles Energy            =      -0.0000000000000000 [Eh]
	 Same-Spin Energy          =      -0.4128314802926606 [Eh]
	 Opposite-Spin Energy      =      -1.2912996675608359 [Eh]
	 Correlation Energy        =      -1.7041311478534966 [Eh]
	 Total Energy              =    -380.4223561739304955 [Eh]

	 ================> DF-SCS-MP2 Energies <==================
	-----------------------------------------------------------
	 SCS Same-Spin Scale       =       0.3333333333333333 [-]
	 SCS Opposite-Spin Scale   =       1.2000000000000000 [-]
	 SCS Same-Spin Energy      =      -0.1376104934308869 [Eh]
	 SCS Opposite-Spin Energy  =      -1.5495596010730031 [Eh]
	 SCS Correlation Energy    =      -1.6871700945038899 [Eh]
	 SCS Total Energy          =    -380.4053951205808630 [Eh]
	-----------------------------------------------------------

  Dipole Moment: [D]
     X:     1.4338      Y:     0.5411      Z:    -0.0000     Total:     1.5325

*** Psi4 exiting successfully. Buy a developer a beer!
