                               Psi4 1.3.2 release

  ==> Input File <==

--------------------------------------------------------------------------
#psi4
#
memory 32 gb

molecule  {
0 1
  N        0.2222710     1.0128310     0.0000010
  N        0.7926860    -1.3208380    -0.0000020
  C       -1.5206760    -0.6557300    -0.0000030
  C       -2.4976210     0.2265170     0.7463830
  C       -2.4976210     0.2265190    -0.7463820
  C       -0.0883020    -0.2997600     0.0000010
  C        1.5981995     1.3850049     0.0000006
  C        2.0920280    -0.9819740     0.0000030
  C        2.5210310     0.3421130     0.0000010
  H       -1.7051520    -1.7251160     0.0000010
  H       -2.0735420     1.0920370     1.2438350
  H       -3.3111280    -0.2648640     1.2701610
  H       -3.3111290    -0.2648490    -1.2701700
  H       -2.0735380     1.0920430    -1.2438240
  H        1.7737980     2.3789750    -0.0000070
  H        2.8018760    -1.8077390    -0.0000100
  H        3.5748870     0.6009090    -0.0000030
units angstrom
no_reorient  #important for SAPT in psi4, default
symmetry c1  #important for SAPT in psi4, default
}

set PROPERTIES_ORIGIN ["COM"]
properties('MP2/aug-cc-pvtz', properties = ['dipole'])
--------------------------------------------------------------------------

    Molecular point group: c1
  Charge       = 0
  Multiplicity = 1
  Basis Set: AUG-CC-PVTZ
    Blend: AUG-CC-PVTZ
  Basis Set: (AUG-CC-PVTZ AUX)
    Blend: AUG-CC-PVTZ-JKFIT

    Orbital Energies [Eh]
    ---------------------

    Doubly Occupied:

       1A    -15.568831     2A    -15.568425     3A    -11.316796
       4A    -11.302192     5A    -11.300611     6A    -11.246556
       7A    -11.232457     8A    -11.226537     9A    -11.225850
      10A     -1.293571    11A     -1.172354    12A     -1.144256
      13A     -1.066039    14A     -0.907870    15A     -0.898290
      16A     -0.819124    17A     -0.802644    18A     -0.720626
      19A     -0.693413    20A     -0.655550    21A     -0.629680
      22A     -0.622683    23A     -0.594066    24A     -0.569308
      25A     -0.527071    26A     -0.512166    27A     -0.467236
      28A     -0.440084    29A     -0.424720    30A     -0.408219
      31A     -0.405726    32A     -0.350265

  @DF-RHF Final Energy:  -378.71369614695931

   => Energetics <=

    Nuclear Repulsion Energy =            411.5404912580861492
    One-Electron Energy =               -1328.2819426369292160
    Two-Electron Energy =                 538.0277552318837024
    Total Energy =                       -378.7136961469593643
  Basis Set: (AUG-CC-PVTZ AUX)
    Blend: AUG-CC-PVTZ-RI
    Molecular point group: c1

    Geometry (in Angstrom), charge = 0, multiplicity = 1:

       Center              X                  Y                   Z               Mass
    ------------   -----------------  -----------------  -----------------  -----------------
         N            0.179468712306     1.015252542324     0.000000899525    14.003074004430
         N            0.749883712306    -1.318416457676    -0.000002100475    14.003074004430
         C           -1.563478287694    -0.653308457676    -0.000003100475    12.000000000000
         C           -2.540423287694     0.228938542324     0.746382899525    12.000000000000
         C           -2.540423287694     0.228940542324    -0.746382100475    12.000000000000
         C           -0.131104287694    -0.297338457676     0.000000899525    12.000000000000
         C            1.555397212306     1.387426442324     0.000000499525    12.000000000000
         C            2.049225712306    -0.979552457676     0.000002899525    12.000000000000
         C            2.478228712306     0.344534542324     0.000000899525    12.000000000000
         H           -1.747954287694    -1.722694457676     0.000000899525     1.007825032230
         H           -2.116344287694     1.094458542324     1.243834899525     1.007825032230
         H           -3.353930287694    -0.262442457676     1.270160899525     1.007825032230
         H           -3.353931287694    -0.262427457676    -1.270170100475     1.007825032230
         H           -2.116340287694     1.094464542324    -1.243824100475     1.007825032230
         H            1.730995712306     2.381396542324    -0.000007100475     1.007825032230
         H            2.759073712306    -1.805317457676    -0.000010100475     1.007825032230
         H            3.532084712306     0.603330542324    -0.000003100475     1.007825032230

  Basis Set: AUG-CC-PVTZ
    Blend: AUG-CC-PVTZ
  Basis Set: (AUG-CC-PVTZ AUX)
    Blend: AUG-CC-PVTZ-JKFIT
	 Reference Energy          =    -378.7136961469593075 [Eh]
	 Singles Energy            =      -0.0000000000000000 [Eh]
	 Same-Spin Energy          =      -0.4142380332950087 [Eh]
	 Opposite-Spin Energy      =      -1.2937082728414036 [Eh]
	 Correlation Energy        =      -1.7079463061364122 [Eh]
	 Total Energy              =    -380.4216424530957283 [Eh]

	 ================> DF-SCS-MP2 Energies <==================
	-----------------------------------------------------------
	 SCS Same-Spin Scale       =       0.3333333333333333 [-]
	 SCS Opposite-Spin Scale   =       1.2000000000000000 [-]
	 SCS Same-Spin Energy      =      -0.1380793444316696 [Eh]
	 SCS Opposite-Spin Energy  =      -1.5524499274096841 [Eh]
	 SCS Correlation Energy    =      -1.6905292718413536 [Eh]
	 SCS Total Energy          =    -380.4042254188006495 [Eh]
	-----------------------------------------------------------

  Dipole Moment: [D]
     X:     1.5630      Y:     0.6759      Z:    -0.0000     Total:     1.7029

*** Psi4 exiting successfully. Buy a developer a beer!
