                               Psi4 1.3.2 release

  ==> Input File <==

--------------------------------------------------------------------------
#psi4
#
memory 32 gb

molecule  {
0 1
  N        0.2222710     1.0128310     0.0000010
  N        0.7926860    -1.3208380    -0.0000020
  C       -1.5206760    -0.6557300    -0.0000030
  C       -2.4976210     0.2265170     0.7463830
  C       -2.4976210     0.2265190    -0.7463820
  C       -0.0883020    -0.2997600     0.0000010
  C        1.5276990     1.3180910     0.0000010
  C        2.0920280    -0.9819740     0.0000030
  C        2.5544870     0.3773743     0.0000006
  H       -1.7051520    -1.7251160     0.0000010
  H       -2.0735420     1.0920370     1.2438350
  H       -3.3111280    -0.2648640     1.2701610
  H       -3.3111290    -0.2648490    -1.2701700
  H       -2.0735380     1.0920430    -1.2438240
  H        1.7737980     2.3789750    -0.0000070
  H        2.8018760    -1.8077390    -0.0000100
  H        3.5748870     0.6009090    -0.0000030
units angstrom
no_reorient  #important for SAPT in psi4, default
symmetry c1  #important for SAPT in psi4, default
}

set PROPERTIES_ORIGIN ["COM"]
properties('MP2/aug-cc-pvtz', properties = ['dipole'])
--------------------------------------------------------------------------

    Molecular point group: c1
  Charge       = 0
  Multiplicity = 1
  Basis Set: AUG-CC-PVTZ
    Blend: AUG-CC-PVTZ
  Basis Set: (AUG-CC-PVTZ AUX)
    Blend: AUG-CC-PVTZ-JKFIT

    Orbital Energies [Eh]
    ---------------------

    Doubly Occupied:

       1A    -15.568512     2A    -15.565870     3A    -11.321209
       4A    -11.304121     5A    -11.297581     6A    -11.242913
       7A    -11.234622     8A    -11.229111     9A    -11.228426
      10A     -1.303859    11A     -1.186402    12A     -1.149008
      13A     -1.061118    14A     -0.914349    15A     -0.885920
      16A     -0.821538    17A     -0.803387    18A     -0.716344
      19A     -0.698375    20A     -0.660801    21A     -0.640962
      22A     -0.608556    23A     -0.579974    24A     -0.575480
      25A     -0.527469    26A     -0.514389    27A     -0.480762
      28A     -0.440380    29A     -0.427922    30A     -0.417828
      31A     -0.406413    32A     -0.346352

  @DF-RHF Final Energy:  -378.72680256714779

   => Energetics <=

    Nuclear Repulsion Energy =            412.5934820521134725
    One-Electron Energy =               -1330.3206627236520490
    Two-Electron Energy =                 539.0003781043908475
    Total Energy =                       -378.7268025671477290
  Basis Set: (AUG-CC-PVTZ AUX)
    Blend: AUG-CC-PVTZ-RI
    Molecular point group: c1

    Geometry (in Angstrom), charge = 0, multiplicity = 1:

       Center              X                  Y                   Z               Mass
    ------------   -----------------  -----------------  -----------------  -----------------
         N            0.183171041234     1.018415989978     0.000000899525    14.003074004430
         N            0.753586041234    -1.315253010022    -0.000002100475    14.003074004430
         C           -1.559775958766    -0.650145010022    -0.000003100475    12.000000000000
         C           -2.536720958766     0.232101989978     0.746382899525    12.000000000000
         C           -2.536720958766     0.232103989978    -0.746382100475    12.000000000000
         C           -0.127401958766    -0.294175010022     0.000000899525    12.000000000000
         C            1.488599041234     1.323675989978     0.000000899525    12.000000000000
         C            2.052928041234    -0.976389010022     0.000002899525    12.000000000000
         C            2.515387041234     0.382959289978     0.000000499525    12.000000000000
         H           -1.744251958766    -1.719531010022     0.000000899525     1.007825032230
         H           -2.112641958766     1.097621989978     1.243834899525     1.007825032230
         H           -3.350227958766    -0.259279010022     1.270160899525     1.007825032230
         H           -3.350228958766    -0.259264010022    -1.270170100475     1.007825032230
         H           -2.112637958766     1.097627989978    -1.243824100475     1.007825032230
         H            1.734698041234     2.384559989978    -0.000007100475     1.007825032230
         H            2.762776041234    -1.802154010022    -0.000010100475     1.007825032230
         H            3.535787041234     0.606493989978    -0.000003100475     1.007825032230

  Basis Set: AUG-CC-PVTZ
    Blend: AUG-CC-PVTZ
  Basis Set: (AUG-CC-PVTZ AUX)
    Blend: AUG-CC-PVTZ-JKFIT
	 Reference Energy          =    -378.7268025671477858 [Eh]
	 Singles Energy            =      -0.0000000000000000 [Eh]
	 Same-Spin Energy          =      -0.4130947487226897 [Eh]
	 Opposite-Spin Energy      =      -1.2908286367793993 [Eh]
	 Correlation Energy        =      -1.7039233855020890 [Eh]
	 Total Energy              =    -380.4307259526498797 [Eh]

	 ================> DF-SCS-MP2 Energies <==================
	-----------------------------------------------------------
	 SCS Same-Spin Scale       =       0.3333333333333333 [-]
	 SCS Opposite-Spin Scale   =       1.2000000000000000 [-]
	 SCS Same-Spin Energy      =      -0.1376982495742299 [Eh]
	 SCS Opposite-Spin Energy  =      -1.5489943641352790 [Eh]
	 SCS Correlation Energy    =      -1.6866926137095088 [Eh]
	 SCS Total Energy          =    -380.4134951808572964 [Eh]
	-----------------------------------------------------------

  Dipole Moment: [D]
     X:     1.4230      Y:     0.5602      Z:    -0.0000     Total:     1.5293

*** Psi4 exiting successfully. Buy a developer a beer!
