                               Psi4 1.3.2 release

  ==> Input File <==

--------------------------------------------------------------------------
#psi4
#
memory 32 gb

molecule  {
0 1
  N        0.2222710     1.0128310     0.0000010
  N        0.7926860    -1.3208380    -0.0000020
  C       -1.5206760    -0.6557300    -0.0000030
  C       -2.4976210     0.2265170     0.7463830
  C       -2.4976210     0.2265190    -0.7463820
  C        0.0040163    -0.3182271     0.0000010
  C        1.5276990     1.3180910     0.0000010
  C        2.0920280    -0.9819740     0.0000030
  C        2.5210310     0.3421130     0.0000010
  H       -1.7051520    -1.7251160     0.0000010
  H       -2.0735420     1.0920370     1.2438350
  H       -3.3111280    -0.2648640     1.2701610
  H       -3.3111290    -0.2648490    -1.2701700
  H       -2.0735380     1.0920430    -1.2438240
  H        1.7737980     2.3789750    -0.0000070
  H        2.8018760    -1.8077390    -0.0000100
  H        3.5748870     0.6009090    -0.0000030
units angstrom
no_reorient  #important for SAPT in psi4, default
symmetry c1  #important for SAPT in psi4, default
}

set PROPERTIES_ORIGIN ["COM"]
properties('MP2/aug-cc-pvtz', properties = ['dipole'])
--------------------------------------------------------------------------

    Molecular point group: c1
  Charge       = 0
  Multiplicity = 1
  Basis Set: AUG-CC-PVTZ
    Blend: AUG-CC-PVTZ
  Basis Set: (AUG-CC-PVTZ AUX)
    Blend: AUG-CC-PVTZ-JKFIT

    Orbital Energies [Eh]
    ---------------------

    Doubly Occupied:

       1A    -15.571121     2A    -15.566914     3A    -11.314846
       4A    -11.302944     5A    -11.302382     6A    -11.246238
       7A    -11.230129     8A    -11.221395     9A    -11.220700
      10A     -1.324431    11A     -1.204453    12A     -1.137408
      13A     -1.068543    14A     -0.907653    15A     -0.892765
      16A     -0.814103    17A     -0.798097    18A     -0.716348
      19A     -0.706624    20A     -0.650596    21A     -0.632764
      22A     -0.606243    23A     -0.591131    24A     -0.587838
      25A     -0.520938    26A     -0.508452    27A     -0.466703
      28A     -0.433723    29A     -0.429376    30A     -0.423560
      31A     -0.411934    32A     -0.357207

  @DF-RHF Final Energy:  -378.72203260093892

   => Energetics <=

    Nuclear Repulsion Energy =            413.8195977151876832
    One-Electron Energy =               -1332.7481427881562013
    Two-Electron Energy =                 540.2065124720295444
    Total Energy =                       -378.7220326009389737
  Basis Set: (AUG-CC-PVTZ AUX)
    Blend: AUG-CC-PVTZ-RI
    Molecular point group: c1

    Geometry (in Angstrom), charge = 0, multiplicity = 1:

       Center              X                  Y                   Z               Mass
    ------------   -----------------  -----------------  -----------------  -----------------
         N            0.177288181537     1.023785753628     0.000000859548    14.003074004430
         N            0.747703181537    -1.309883246372    -0.000002140452    14.003074004430
         C           -1.565658818463    -0.644775246372    -0.000003140452    12.000000000000
         C           -2.542603818463     0.237471753628     0.746382859548    12.000000000000
         C           -2.542603818463     0.237473753628    -0.746382140452    12.000000000000
         C           -0.040966518463    -0.307272346372     0.000000859548    12.000000000000
         C            1.482716181537     1.329045753628     0.000000859548    12.000000000000
         C            2.047045181537    -0.971019246372     0.000002859548    12.000000000000
         C            2.476048181537     0.353067753628     0.000000859548    12.000000000000
         H           -1.750134818463    -1.714161246372     0.000000859548     1.007825032230
         H           -2.118524818463     1.102991753628     1.243834859548     1.007825032230
         H           -3.356110818463    -0.253909246372     1.270160859548     1.007825032230
         H           -3.356111818463    -0.253894246372    -1.270170140452     1.007825032230
         H           -2.118520818463     1.102997753628    -1.243824140452     1.007825032230
         H            1.728815181537     2.389929753628    -0.000007140452     1.007825032230
         H            2.756893181537    -1.796784246372    -0.000010140452     1.007825032230
         H            3.529904181537     0.611863753628    -0.000003140452     1.007825032230

  Basis Set: AUG-CC-PVTZ
    Blend: AUG-CC-PVTZ
  Basis Set: (AUG-CC-PVTZ AUX)
    Blend: AUG-CC-PVTZ-JKFIT
	 Reference Energy          =    -378.7220326009389169 [Eh]
	 Singles Energy            =      -0.0000000000000000 [Eh]
	 Same-Spin Energy          =      -0.4121237949774069 [Eh]
	 Opposite-Spin Energy      =      -1.2892909165700206 [Eh]
	 Correlation Energy        =      -1.7014147115474274 [Eh]
	 Total Energy              =    -380.4234473124863598 [Eh]

	 ================> DF-SCS-MP2 Energies <==================
	-----------------------------------------------------------
	 SCS Same-Spin Scale       =       0.3333333333333333 [-]
	 SCS Opposite-Spin Scale   =       1.2000000000000000 [-]
	 SCS Same-Spin Energy      =      -0.1373745983258023 [Eh]
	 SCS Opposite-Spin Energy  =      -1.5471490998840247 [Eh]
	 SCS Correlation Energy    =      -1.6845236982098271 [Eh]
	 SCS Total Energy          =    -380.4065562991487468 [Eh]
	-----------------------------------------------------------

  Dipole Moment: [D]
     X:     2.0094      Y:     0.6271      Z:    -0.0000     Total:     2.1050

*** Psi4 exiting successfully. Buy a developer a beer!
