                               Psi4 1.3.2 release

  ==> Input File <==

--------------------------------------------------------------------------
#psi4
#
memory 32 gb

molecule  {
0 1
  N        0.2277973     0.9900946     0.0000010
  N        0.7926860    -1.3208380    -0.0000020
  C       -1.5206760    -0.6557300    -0.0000030
  C       -2.4976210     0.2265170     0.7463830
  C       -2.4976210     0.2265190    -0.7463820
  C       -0.0883020    -0.2997600     0.0000010
  C        1.5276990     1.3180910     0.0000010
  C        2.0920280    -0.9819740     0.0000030
  C        2.5210310     0.3421130     0.0000010
  H       -1.7051520    -1.7251160     0.0000010
  H       -2.0735420     1.0920370     1.2438350
  H       -3.3111280    -0.2648640     1.2701610
  H       -3.3111290    -0.2648490    -1.2701700
  H       -2.0735380     1.0920430    -1.2438240
  H        1.7737980     2.3789750    -0.0000070
  H        2.8018760    -1.8077390    -0.0000100
  H        3.5748870     0.6009090    -0.0000030
units angstrom
no_reorient  #important for SAPT in psi4, default
symmetry c1  #important for SAPT in psi4, default
}

set PROPERTIES_ORIGIN ["COM"]
properties('MP2/aug-cc-pvtz', properties = ['dipole'])
--------------------------------------------------------------------------

    Molecular point group: c1
  Charge       = 0
  Multiplicity = 1
  Basis Set: AUG-CC-PVTZ
    Blend: AUG-CC-PVTZ
  Basis Set: (AUG-CC-PVTZ AUX)
    Blend: AUG-CC-PVTZ-JKFIT

    Orbital Energies [Eh]
    ---------------------

    Doubly Occupied:

       1A    -15.565869     2A    -15.563679     3A    -11.316732
       4A    -11.299496     5A    -11.297098     6A    -11.242229
       7A    -11.233312     8A    -11.228124     9A    -11.227443
      10A     -1.308720    11A     -1.186878    12A     -1.148607
      13A     -1.065808    14A     -0.910468    15A     -0.893042
      16A     -0.820733    17A     -0.803142    18A     -0.719613
      19A     -0.698173    20A     -0.657372    21A     -0.634595
      22A     -0.608161    23A     -0.588043    24A     -0.578998
      25A     -0.528341    26A     -0.513817    27A     -0.475137
      28A     -0.440959    29A     -0.426358    30A     -0.417308
      31A     -0.406218    32A     -0.349282

  @DF-RHF Final Energy:  -378.73083834717681

   => Energetics <=

    Nuclear Repulsion Energy =            413.9158069017841513
    One-Electron Energy =               -1332.9857799231433546
    Two-Electron Energy =                 540.3391346741823327
    Total Energy =                       -378.7308383471768138
  Basis Set: (AUG-CC-PVTZ AUX)
    Blend: AUG-CC-PVTZ-RI
    Molecular point group: c1

    Geometry (in Angstrom), charge = 0, multiplicity = 1:

       Center              X                  Y                   Z               Mass
    ------------   -----------------  -----------------  -----------------  -----------------
         N            0.191396518304     1.001855344306     0.000000859548    14.003074004430
         N            0.756285218304    -1.309077255694    -0.000002140452    14.003074004430
         C           -1.557076781696    -0.643969255694    -0.000003140452    12.000000000000
         C           -2.534021781696     0.238277744306     0.746382859548    12.000000000000
         C           -2.534021781696     0.238279744306    -0.746382140452    12.000000000000
         C           -0.124702781696    -0.287999255694     0.000000859548    12.000000000000
         C            1.491298218304     1.329851744306     0.000000859548    12.000000000000
         C            2.055627218304    -0.970213255694     0.000002859548    12.000000000000
         C            2.484630218304     0.353873744306     0.000000859548    12.000000000000
         H           -1.741552781696    -1.713355255694     0.000000859548     1.007825032230
         H           -2.109942781696     1.103797744306     1.243834859548     1.007825032230
         H           -3.347528781696    -0.253103255694     1.270160859548     1.007825032230
         H           -3.347529781696    -0.253088255694    -1.270170140452     1.007825032230
         H           -2.109938781696     1.103803744306    -1.243824140452     1.007825032230
         H            1.737397218304     2.390735744306    -0.000007140452     1.007825032230
         H            2.765475218304    -1.795978255694    -0.000010140452     1.007825032230
         H            3.538486218304     0.612669744306    -0.000003140452     1.007825032230

  Basis Set: AUG-CC-PVTZ
    Blend: AUG-CC-PVTZ
  Basis Set: (AUG-CC-PVTZ AUX)
    Blend: AUG-CC-PVTZ-JKFIT
	 Reference Energy          =    -378.7308383471768138 [Eh]
	 Singles Energy            =      -0.0000000000000000 [Eh]
	 Same-Spin Energy          =      -0.4131347517007584 [Eh]
	 Opposite-Spin Energy      =      -1.2901721479508357 [Eh]
	 Correlation Energy        =      -1.7033068996515941 [Eh]
	 Total Energy              =    -380.4341452468283933 [Eh]

	 ================> DF-SCS-MP2 Energies <==================
	-----------------------------------------------------------
	 SCS Same-Spin Scale       =       0.3333333333333333 [-]
	 SCS Opposite-Spin Scale   =       1.2000000000000000 [-]
	 SCS Same-Spin Energy      =      -0.1377115839002528 [Eh]
	 SCS Opposite-Spin Energy  =      -1.5482065775410028 [Eh]
	 SCS Correlation Energy    =      -1.6859181614412555 [Eh]
	 SCS Total Energy          =    -380.4167565086180502 [Eh]
	-----------------------------------------------------------

  Dipole Moment: [D]
     X:     1.4506      Y:     0.6556      Z:    -0.0000     Total:     1.5919

*** Psi4 exiting successfully. Buy a developer a beer!
