                               Psi4 1.3.2 release

  ==> Input File <==

--------------------------------------------------------------------------
#psi4
#
memory 32 gb

molecule  {
0 1
  N        0.2222710     1.0128310     0.0000010
  N        0.7926860    -1.3208380    -0.0000020
  C       -1.5206760    -0.6557300    -0.0000030
  C       -2.5173176     0.2105342     0.7390269
  C       -2.4976210     0.2265190    -0.7463820
  C       -0.0883020    -0.2997600     0.0000010
  C        1.5276990     1.3180910     0.0000010
  C        2.0920280    -0.9819740     0.0000030
  C        2.5210310     0.3421130     0.0000010
  H       -1.7051520    -1.7251160     0.0000010
  H       -2.0735420     1.0920370     1.2438350
  H       -3.3111280    -0.2648640     1.2701610
  H       -3.3111290    -0.2648490    -1.2701700
  H       -2.0735380     1.0920430    -1.2438240
  H        1.7737980     2.3789750    -0.0000070
  H        2.8018760    -1.8077390    -0.0000100
  H        3.5748870     0.6009090    -0.0000030
units angstrom
no_reorient  #important for SAPT in psi4, default
symmetry c1  #important for SAPT in psi4, default
}

set PROPERTIES_ORIGIN ["COM"]
properties('MP2/aug-cc-pvtz', properties = ['dipole'])
--------------------------------------------------------------------------

    Molecular point group: c1
  Charge       = 0
  Multiplicity = 1
  Basis Set: AUG-CC-PVTZ
    Blend: AUG-CC-PVTZ
  Basis Set: (AUG-CC-PVTZ AUX)
    Blend: AUG-CC-PVTZ-JKFIT

    Orbital Energies [Eh]
    ---------------------

    Doubly Occupied:

       1A    -15.566897     2A    -15.566806     3A    -11.320060
       4A    -11.298922     5A    -11.297625     6A    -11.241988
       7A    -11.233674     8A    -11.228640     9A    -11.227913
      10A     -1.305255    11A     -1.186808    12A     -1.149902
      13A     -1.064702    14A     -0.911823    15A     -0.890521
      16A     -0.820728    17A     -0.802650    18A     -0.717557
      19A     -0.698458    20A     -0.656686    21A     -0.636781
      22A     -0.606492    23A     -0.587688    24A     -0.577186
      25A     -0.526722    26A     -0.512401    27A     -0.477418
      28A     -0.440007    29A     -0.429317    30A     -0.417736
      31A     -0.407842    32A     -0.348095

  @DF-RHF Final Energy:  -378.72928100845445

   => Energetics <=

    Nuclear Repulsion Energy =            413.3009192793769557
    One-Electron Energy =               -1331.7498038054084191
    Two-Electron Energy =                 539.7196035175769566
    Total Energy =                       -378.7292810084544499
  Basis Set: (AUG-CC-PVTZ AUX)
    Blend: AUG-CC-PVTZ-RI
    Molecular point group: c1

    Geometry (in Angstrom), charge = 0, multiplicity = 1:

       Center              X                  Y                   Z               Mass
    ------------   -----------------  -----------------  -----------------  -----------------
         N            0.188483257853     1.023537465873     0.000736048357    14.003074004430
         N            0.758898257853    -1.310131534127     0.000733048357    14.003074004430
         C           -1.554463742147    -0.645023534127     0.000732048357    12.000000000000
         C           -2.551105342147     0.221240665873     0.739761948357    12.000000000000
         C           -2.531408742147     0.237225465873    -0.745646951643    12.000000000000
         C           -0.122089742147    -0.289053534127     0.000736048357    12.000000000000
         C            1.493911257853     1.328797465873     0.000736048357    12.000000000000
         C            2.058240257853    -0.971267534127     0.000738048357    12.000000000000
         C            2.487243257853     0.352819465873     0.000736048357    12.000000000000
         H           -1.738939742147    -1.714409534127     0.000736048357     1.007825032230
         H           -2.107329742147     1.102743465873     1.244570048357     1.007825032230
         H           -3.344915742147    -0.254157534127     1.270896048357     1.007825032230
         H           -3.344916742147    -0.254142534127    -1.269434951643     1.007825032230
         H           -2.107325742147     1.102749465873    -1.243088951643     1.007825032230
         H            1.740010257853     2.389681465873     0.000728048357     1.007825032230
         H            2.768088257853    -1.797032534127     0.000725048357     1.007825032230
         H            3.541099257853     0.611615465873     0.000732048357     1.007825032230

  Basis Set: AUG-CC-PVTZ
    Blend: AUG-CC-PVTZ
  Basis Set: (AUG-CC-PVTZ AUX)
    Blend: AUG-CC-PVTZ-JKFIT
	 Reference Energy          =    -378.7292810084544499 [Eh]
	 Singles Energy            =      -0.0000000000000000 [Eh]
	 Same-Spin Energy          =      -0.4133041857384936 [Eh]
	 Opposite-Spin Energy      =      -1.2907286484077911 [Eh]
	 Correlation Energy        =      -1.7040328341462847 [Eh]
	 Total Energy              =    -380.4333138426007395 [Eh]

	 ================> DF-SCS-MP2 Energies <==================
	-----------------------------------------------------------
	 SCS Same-Spin Scale       =       0.3333333333333333 [-]
	 SCS Opposite-Spin Scale   =       1.2000000000000000 [-]
	 SCS Same-Spin Energy      =      -0.1377680619128312 [Eh]
	 SCS Opposite-Spin Energy  =      -1.5488743780893492 [Eh]
	 SCS Correlation Energy    =      -1.6866424400021804 [Eh]
	 SCS Total Energy          =    -380.4159234484566241 [Eh]
	-----------------------------------------------------------

  Dipole Moment: [D]
     X:     1.4245      Y:     0.6064      Z:     0.0036     Total:     1.5482

*** Psi4 exiting successfully. Buy a developer a beer!
