                               Psi4 1.3.2 release

  ==> Input File <==

--------------------------------------------------------------------------
#psi4
#
memory 32 gb

molecule  {
0 1
  N        0.2222710     1.0128310     0.0000010
  N        0.7926860    -1.3208380    -0.0000020
  C       -1.5206760    -0.6557300    -0.0000030
  C       -2.4976210     0.2265170     0.7463830
  C       -2.4976210     0.2265190    -0.7463820
  C       -0.0883020    -0.2997600     0.0000010
  C        1.5623653     1.3521632     0.0000008
  C        2.0920280    -0.9819740     0.0000030
  C        2.5210310     0.3421130     0.0000010
  H       -1.7051520    -1.7251160     0.0000010
  H       -2.0735420     1.0920370     1.2438350
  H       -3.3111280    -0.2648640     1.2701610
  H       -3.3111290    -0.2648490    -1.2701700
  H       -2.0735380     1.0920430    -1.2438240
  H        1.7737980     2.3789750    -0.0000070
  H        2.8018760    -1.8077390    -0.0000100
  H        3.5748870     0.6009090    -0.0000030
units angstrom
no_reorient  #important for SAPT in psi4, default
symmetry c1  #important for SAPT in psi4, default
}

set PROPERTIES_ORIGIN ["COM"]
properties('MP2/aug-cc-pvtz', properties = ['dipole'])
--------------------------------------------------------------------------

    Molecular point group: c1
  Charge       = 0
  Multiplicity = 1
  Basis Set: AUG-CC-PVTZ
    Blend: AUG-CC-PVTZ
  Basis Set: (AUG-CC-PVTZ AUX)
    Blend: AUG-CC-PVTZ-JKFIT

    Orbital Energies [Eh]
    ---------------------

    Doubly Occupied:

       1A    -15.567852     2A    -15.567499     3A    -11.318265
       4A    -11.300508     5A    -11.299036     6A    -11.243999
       7A    -11.233215     8A    -11.227524     9A    -11.226839
      10A     -1.298685    11A     -1.179181    12A     -1.146861
      13A     -1.065089    14A     -0.908713    15A     -0.894844
      16A     -0.820089    17A     -0.802148    18A     -0.719422
      19A     -0.695483    20A     -0.655836    21A     -0.632464
      22A     -0.614153    23A     -0.592220    24A     -0.572829
      25A     -0.527349    26A     -0.513131    27A     -0.472231
      28A     -0.440557    29A     -0.425952    30A     -0.411646
      31A     -0.408424    32A     -0.349163

  @DF-RHF Final Energy:  -378.72503549578011

   => Energetics <=

    Nuclear Repulsion Energy =            412.4498509195128122
    One-Electron Energy =               -1330.0873509498005660
    Two-Electron Energy =                 538.9124645345076488
    Total Energy =                       -378.7250354957801619
  Basis Set: (AUG-CC-PVTZ AUX)
    Blend: AUG-CC-PVTZ-RI
    Molecular point group: c1

    Geometry (in Angstrom), charge = 0, multiplicity = 1:

       Center              X                  Y                   Z               Mass
    ------------   -----------------  -----------------  -----------------  -----------------
         N            0.183050080532     1.018534831893     0.000000879537    14.003074004430
         N            0.753465080532    -1.315134168107    -0.000002120463    14.003074004430
         C           -1.559896919468    -0.650026168107    -0.000003120463    12.000000000000
         C           -2.536841919468     0.232220831893     0.746382879537    12.000000000000
         C           -2.536841919468     0.232222831893    -0.746382120463    12.000000000000
         C           -0.127522919468    -0.294056168107     0.000000879537    12.000000000000
         C            1.523144380532     1.357867031893     0.000000679537    12.000000000000
         C            2.052807080532    -0.976270168107     0.000002879537    12.000000000000
         C            2.481810080532     0.347816831893     0.000000879537    12.000000000000
         H           -1.744372919468    -1.719412168107     0.000000879537     1.007825032230
         H           -2.112762919468     1.097740831893     1.243834879537     1.007825032230
         H           -3.350348919468    -0.259160168107     1.270160879537     1.007825032230
         H           -3.350349919468    -0.259145168107    -1.270170120463     1.007825032230
         H           -2.112758919468     1.097746831893    -1.243824120463     1.007825032230
         H            1.734577080532     2.384678831893    -0.000007120463     1.007825032230
         H            2.762655080532    -1.802035168107    -0.000010120463     1.007825032230
         H            3.535666080532     0.606612831893    -0.000003120463     1.007825032230

  Basis Set: AUG-CC-PVTZ
    Blend: AUG-CC-PVTZ
  Basis Set: (AUG-CC-PVTZ AUX)
    Blend: AUG-CC-PVTZ-JKFIT
	 Reference Energy          =    -378.7250354957801051 [Eh]
	 Singles Energy            =      -0.0000000000000000 [Eh]
	 Same-Spin Energy          =      -0.4137029040802985 [Eh]
	 Opposite-Spin Energy      =      -1.2920103669740346 [Eh]
	 Correlation Energy        =      -1.7057132710543330 [Eh]
	 Total Energy              =    -380.4307487668344265 [Eh]

	 ================> DF-SCS-MP2 Energies <==================
	-----------------------------------------------------------
	 SCS Same-Spin Scale       =       0.3333333333333333 [-]
	 SCS Opposite-Spin Scale   =       1.2000000000000000 [-]
	 SCS Same-Spin Energy      =      -0.1379009680267662 [Eh]
	 SCS Opposite-Spin Energy  =      -1.5504124403688415 [Eh]
	 SCS Correlation Energy    =      -1.6883134083956077 [Eh]
	 SCS Total Energy          =    -380.4133489041757343 [Eh]
	-----------------------------------------------------------

  Dipole Moment: [D]
     X:     1.5018      Y:     0.6511      Z:    -0.0000     Total:     1.6368

*** Psi4 exiting successfully. Buy a developer a beer!
