                               Psi4 1.3.2 release

  ==> Input File <==

--------------------------------------------------------------------------
#psi4
#
memory 32 gb

molecule  {
0 1
  N        0.2222710     1.0128310     0.0000010
  N        0.7926860    -1.3208380    -0.0000020
  C       -1.5206760    -0.6557300    -0.0000030
  C       -2.4976210     0.2265170     0.7463830
  C       -2.4976210     0.2265190    -0.7463820
  C       -0.0883020    -0.2997600     0.0000010
  C        1.7224454     1.3636303     0.0000010
  C        2.0920280    -0.9819740     0.0000030
  C        2.5210310     0.3421130     0.0000010
  H       -1.7051520    -1.7251160     0.0000010
  H       -2.0735420     1.0920370     1.2438350
  H       -3.3111280    -0.2648640     1.2701610
  H       -3.3111290    -0.2648490    -1.2701700
  H       -2.0735380     1.0920430    -1.2438240
  H        1.7737980     2.3789750    -0.0000070
  H        2.8018760    -1.8077390    -0.0000100
  H        3.5748870     0.6009090    -0.0000030
units angstrom
no_reorient  #important for SAPT in psi4, default
symmetry c1  #important for SAPT in psi4, default
}

set PROPERTIES_ORIGIN ["COM"]
properties('MP2/aug-cc-pvtz', properties = ['dipole'])
--------------------------------------------------------------------------

    Molecular point group: c1
  Charge       = 0
  Multiplicity = 1
  Basis Set: AUG-CC-PVTZ
    Blend: AUG-CC-PVTZ
  Basis Set: (AUG-CC-PVTZ AUX)
    Blend: AUG-CC-PVTZ-JKFIT

    Orbital Energies [Eh]
    ---------------------

    Doubly Occupied:

       1A    -15.572319     2A    -15.566851     3A    -11.311926
       4A    -11.308410     5A    -11.295213     6A    -11.241749
       7A    -11.230321     8A    -11.224505     9A    -11.223819
      10A     -1.288686    11A     -1.159822    12A     -1.138283
      13A     -1.082402    14A     -0.918102    15A     -0.889492
      16A     -0.817049    17A     -0.800615    18A     -0.717059
      19A     -0.700763    20A     -0.658217    21A     -0.632653
      22A     -0.605672    23A     -0.597352    24A     -0.566813
      25A     -0.524462    26A     -0.510579    27A     -0.454319
      28A     -0.444982    29A     -0.422056    30A     -0.409241
      31A     -0.397074    32A     -0.358741

  @DF-RHF Final Energy:  -378.68363362574985

   => Energetics <=

    Nuclear Repulsion Energy =            410.8930055551202827
    One-Electron Energy =               -1327.0141877431121884
    Two-Electron Energy =                 537.4375485622421138
    Total Energy =                       -378.6836336257498488
  Basis Set: (AUG-CC-PVTZ AUX)
    Blend: AUG-CC-PVTZ-RI
    Molecular point group: c1

    Geometry (in Angstrom), charge = 0, multiplicity = 1:

       Center              X                  Y                   Z               Mass
    ------------   -----------------  -----------------  -----------------  -----------------
         N            0.167051236306     1.017388778469     0.000000859548    14.003074004430
         N            0.737466236306    -1.316280221531    -0.000002140452    14.003074004430
         C           -1.575895763694    -0.651172221531    -0.000003140452    12.000000000000
         C           -2.552840763694     0.231074778469     0.746382859548    12.000000000000
         C           -2.552840763694     0.231076778469    -0.746382140452    12.000000000000
         C           -0.143521763694    -0.295202221531     0.000000859548    12.000000000000
         C            1.667225636306     1.368188078469     0.000000859548    12.000000000000
         C            2.036808236306    -0.977416221531     0.000002859548    12.000000000000
         C            2.465811236306     0.346670778469     0.000000859548    12.000000000000
         H           -1.760371763694    -1.720558221531     0.000000859548     1.007825032230
         H           -2.128761763694     1.096594778469     1.243834859548     1.007825032230
         H           -3.366347763694    -0.260306221531     1.270160859548     1.007825032230
         H           -3.366348763694    -0.260291221531    -1.270170140452     1.007825032230
         H           -2.128757763694     1.096600778469    -1.243824140452     1.007825032230
         H            1.718578236306     2.383532778469    -0.000007140452     1.007825032230
         H            2.746656236306    -1.803181221531    -0.000010140452     1.007825032230
         H            3.519667236306     0.605466778469    -0.000003140452     1.007825032230

  Basis Set: AUG-CC-PVTZ
    Blend: AUG-CC-PVTZ
  Basis Set: (AUG-CC-PVTZ AUX)
    Blend: AUG-CC-PVTZ-JKFIT
	 Reference Energy          =    -378.6836336257498488 [Eh]
	 Singles Energy            =      -0.0000000000000000 [Eh]
	 Same-Spin Energy          =      -0.4148110729529304 [Eh]
	 Opposite-Spin Energy      =      -1.2973977866279625 [Eh]
	 Correlation Energy        =      -1.7122088595808929 [Eh]
	 Total Energy              =    -380.3958424853307179 [Eh]

	 ================> DF-SCS-MP2 Energies <==================
	-----------------------------------------------------------
	 SCS Same-Spin Scale       =       0.3333333333333333 [-]
	 SCS Opposite-Spin Scale   =       1.2000000000000000 [-]
	 SCS Same-Spin Energy      =      -0.1382703576509768 [Eh]
	 SCS Opposite-Spin Energy  =      -1.5568773439535548 [Eh]
	 SCS Correlation Energy    =      -1.6951477016045315 [Eh]
	 SCS Total Energy          =    -380.3787813273543748 [Eh]
	-----------------------------------------------------------

  Dipole Moment: [D]
     X:     1.7003      Y:     0.5847      Z:    -0.0000     Total:     1.7980

*** Psi4 exiting successfully. Buy a developer a beer!
