                               Psi4 1.3.2 release

  ==> Input File <==

--------------------------------------------------------------------------
#psi4
#
memory 32 gb

molecule  {
0 1
  N        0.2222710     1.0128310     0.0000010
  N        0.7926860    -1.3208380    -0.0000020
  C       -1.5206760    -0.6557300    -0.0000030
  C       -2.3734083     0.3166055     0.7856717
  C       -2.4976210     0.2265190    -0.7463820
  C       -0.0883020    -0.2997600     0.0000010
  C        1.5276990     1.3180910     0.0000010
  C        2.0920280    -0.9819740     0.0000030
  C        2.5210310     0.3421130     0.0000010
  H       -1.7051520    -1.7251160     0.0000010
  H       -2.0735420     1.0920370     1.2438350
  H       -3.3111280    -0.2648640     1.2701610
  H       -3.3111290    -0.2648490    -1.2701700
  H       -2.0735380     1.0920430    -1.2438240
  H        1.7737980     2.3789750    -0.0000070
  H        2.8018760    -1.8077390    -0.0000100
  H        3.5748870     0.6009090    -0.0000030
units angstrom
no_reorient  #important for SAPT in psi4, default
symmetry c1  #important for SAPT in psi4, default
}

set PROPERTIES_ORIGIN ["COM"]
properties('MP2/aug-cc-pvtz', properties = ['dipole'])
--------------------------------------------------------------------------

    Molecular point group: c1
  Charge       = 0
  Multiplicity = 1
  Basis Set: AUG-CC-PVTZ
    Blend: AUG-CC-PVTZ
  Basis Set: (AUG-CC-PVTZ AUX)
    Blend: AUG-CC-PVTZ-JKFIT

    Orbital Energies [Eh]
    ---------------------

    Doubly Occupied:

       1A    -15.566907     2A    -15.566742     3A    -11.319544
       4A    -11.299526     5A    -11.297901     6A    -11.242018
       7A    -11.238951     8A    -11.231184     9A    -11.230609
      10A     -1.305914    11A     -1.187315    12A     -1.145419
      13A     -1.062553    14A     -0.910726    15A     -0.890600
      16A     -0.835680    17A     -0.804540    18A     -0.720779
      19A     -0.700121    20A     -0.655308    21A     -0.632071
      22A     -0.613175    23A     -0.587325    24A     -0.576976
      25A     -0.528864    26A     -0.514820    27A     -0.476813
      28A     -0.445889    29A     -0.418635    30A     -0.411987
      31A     -0.407202    32A     -0.348722

  @DF-RHF Final Energy:  -378.69838859214497

   => Energetics <=

    Nuclear Repulsion Energy =            414.0922966488233214
    One-Electron Energy =               -1333.2317364423527124
    Two-Electron Energy =                 540.4410512013844254
    Total Energy =                       -378.6983885921449655
  Basis Set: (AUG-CC-PVTZ AUX)
    Blend: AUG-CC-PVTZ-RI
    Molecular point group: c1

    Geometry (in Angstrom), charge = 0, multiplicity = 1:

       Center              X                  Y                   Z               Mass
    ------------   -----------------  -----------------  -----------------  -----------------
         N            0.174100567728     1.012936409242    -0.003925760882    14.003074004430
         N            0.744515567728    -1.320732590758    -0.003928760882    14.003074004430
         C           -1.568846432272    -0.655624590758    -0.003929760882    12.000000000000
         C           -2.421578732272     0.316710909242     0.781744939118    12.000000000000
         C           -2.545791432272     0.226624409242    -0.750308760882    12.000000000000
         C           -0.136472432272    -0.299654590758    -0.003925760882    12.000000000000
         C            1.479528567728     1.318196409242    -0.003925760882    12.000000000000
         C            2.043857567728    -0.981868590758    -0.003923760882    12.000000000000
         C            2.472860567728     0.342218409242    -0.003925760882    12.000000000000
         H           -1.753322432272    -1.725010590758    -0.003925760882     1.007825032230
         H           -2.121712432272     1.092142409242     1.239908239118     1.007825032230
         H           -3.359298432272    -0.264758590758     1.266234239118     1.007825032230
         H           -3.359299432272    -0.264743590758    -1.274096760882     1.007825032230
         H           -2.121708432272     1.092148409242    -1.247750760882     1.007825032230
         H            1.725627567728     2.379080409242    -0.003933760882     1.007825032230
         H            2.753705567728    -1.807633590758    -0.003936760882     1.007825032230
         H            3.526716567728     0.601014409242    -0.003929760882     1.007825032230

  Basis Set: AUG-CC-PVTZ
    Blend: AUG-CC-PVTZ
  Basis Set: (AUG-CC-PVTZ AUX)
    Blend: AUG-CC-PVTZ-JKFIT
	 Reference Energy          =    -378.6983885921449655 [Eh]
	 Singles Energy            =      -0.0000000000000000 [Eh]
	 Same-Spin Energy          =      -0.4135159410860180 [Eh]
	 Opposite-Spin Energy      =      -1.2924667842955233 [Eh]
	 Correlation Energy        =      -1.7059827253815412 [Eh]
	 Total Energy              =    -380.4043713175265111 [Eh]

	 ================> DF-SCS-MP2 Energies <==================
	-----------------------------------------------------------
	 SCS Same-Spin Scale       =       0.3333333333333333 [-]
	 SCS Opposite-Spin Scale   =       1.2000000000000000 [-]
	 SCS Same-Spin Energy      =      -0.1378386470286727 [Eh]
	 SCS Opposite-Spin Energy  =      -1.5509601411546279 [Eh]
	 SCS Correlation Energy    =      -1.6887987881833006 [Eh]
	 SCS Total Energy          =    -380.3871873803282710 [Eh]
	-----------------------------------------------------------

  Dipole Moment: [D]
     X:     1.5069      Y:     0.6007      Z:    -0.0830     Total:     1.6244

*** Psi4 exiting successfully. Buy a developer a beer!
