                               Psi4 1.3.2 release

  ==> Input File <==

--------------------------------------------------------------------------
#psi4
#
memory 32 gb

molecule  {
0 1
  N        0.2222710     1.0128310     0.0000010
  N        0.7926860    -1.3208380    -0.0000020
  C       -1.5206760    -0.6557300    -0.0000030
  C       -2.4976210     0.2265170     0.7463830
  C       -2.4976210     0.2265190    -0.7463820
  C       -0.0883020    -0.2997600     0.0000010
  C        1.5276990     1.3180910     0.0000010
  C        2.0920280    -0.9819740     0.0000030
  C        2.4505305     0.2751991     0.0000018
  H       -1.7051520    -1.7251160     0.0000010
  H       -2.0735420     1.0920370     1.2438350
  H       -3.3111280    -0.2648640     1.2701610
  H       -3.3111290    -0.2648490    -1.2701700
  H       -2.0735380     1.0920430    -1.2438240
  H        1.7737980     2.3789750    -0.0000070
  H        2.8018760    -1.8077390    -0.0000100
  H        3.5748870     0.6009090    -0.0000030
units angstrom
no_reorient  #important for SAPT in psi4, default
symmetry c1  #important for SAPT in psi4, default
}

set PROPERTIES_ORIGIN ["COM"]
properties('MP2/aug-cc-pvtz', properties = ['dipole'])
--------------------------------------------------------------------------

    Molecular point group: c1
  Charge       = 0
  Multiplicity = 1
  Basis Set: AUG-CC-PVTZ
    Blend: AUG-CC-PVTZ
  Basis Set: (AUG-CC-PVTZ AUX)
    Blend: AUG-CC-PVTZ-JKFIT

    Orbital Energies [Eh]
    ---------------------

    Doubly Occupied:

       1A    -15.568962     2A    -15.563754     3A    -11.317545
       4A    -11.302601     5A    -11.283699     6A    -11.240320
       7A    -11.233213     8A    -11.227802     9A    -11.227120
      10A     -1.309409    11A     -1.188881    12A     -1.149490
      13A     -1.071488    14A     -0.907638    15A     -0.899207
      16A     -0.820558    17A     -0.802106    18A     -0.721469
      19A     -0.701684    20A     -0.654804    21A     -0.622459
      22A     -0.607769    23A     -0.590554    24A     -0.581401
      25A     -0.526741    26A     -0.514087    27A     -0.467225
      28A     -0.444414    29A     -0.425538    30A     -0.418957
      31A     -0.409939    32A     -0.351832

  @DF-RHF Final Energy:  -378.71701469963233

   => Energetics <=

    Nuclear Repulsion Energy =            415.1323045211685780
    One-Electron Energy =               -1335.3933097937324419
    Two-Electron Energy =                 541.5439905729315342
    Total Energy =                       -378.7170146996322728
  Basis Set: (AUG-CC-PVTZ AUX)
    Blend: AUG-CC-PVTZ-RI
    Molecular point group: c1

    Geometry (in Angstrom), charge = 0, multiplicity = 1:

       Center              X                  Y                   Z               Mass
    ------------   -----------------  -----------------  -----------------  -----------------
         N            0.193560738953     1.028627659689     0.000000779594    14.003074004430
         N            0.763975738953    -1.305041340311    -0.000002220406    14.003074004430
         C           -1.549386261047    -0.639933340311    -0.000003220406    12.000000000000
         C           -2.526331261047     0.242313659689     0.746382779594    12.000000000000
         C           -2.526331261047     0.242315659689    -0.746382220406    12.000000000000
         C           -0.117012261047    -0.283963340311     0.000000779594    12.000000000000
         C            1.498988738953     1.333887659689     0.000000779594    12.000000000000
         C            2.063317738953    -0.966177340311     0.000002779594    12.000000000000
         C            2.421820238953     0.290995759689     0.000001579594    12.000000000000
         H           -1.733862261047    -1.709319340311     0.000000779594     1.007825032230
         H           -2.102252261047     1.107833659689     1.243834779594     1.007825032230
         H           -3.339838261047    -0.249067340311     1.270160779594     1.007825032230
         H           -3.339839261047    -0.249052340311    -1.270170220406     1.007825032230
         H           -2.102248261047     1.107839659689    -1.243824220406     1.007825032230
         H            1.745087738953     2.394771659689    -0.000007220406     1.007825032230
         H            2.773165738953    -1.791942340311    -0.000010220406     1.007825032230
         H            3.546176738953     0.616705659689    -0.000003220406     1.007825032230

  Basis Set: AUG-CC-PVTZ
    Blend: AUG-CC-PVTZ
  Basis Set: (AUG-CC-PVTZ AUX)
    Blend: AUG-CC-PVTZ-JKFIT
	 Reference Energy          =    -378.7170146996323297 [Eh]
	 Singles Energy            =      -0.0000000000000000 [Eh]
	 Same-Spin Energy          =      -0.4137860347710030 [Eh]
	 Opposite-Spin Energy      =      -1.2914197888329073 [Eh]
	 Correlation Energy        =      -1.7052058236039103 [Eh]
	 Total Energy              =    -380.4222205232362626 [Eh]

	 ================> DF-SCS-MP2 Energies <==================
	-----------------------------------------------------------
	 SCS Same-Spin Scale       =       0.3333333333333333 [-]
	 SCS Opposite-Spin Scale   =       1.2000000000000000 [-]
	 SCS Same-Spin Energy      =      -0.1379286782570010 [Eh]
	 SCS Opposite-Spin Energy  =      -1.5497037465994887 [Eh]
	 SCS Correlation Energy    =      -1.6876324248564898 [Eh]
	 SCS Total Energy          =    -380.4046471244888039 [Eh]
	-----------------------------------------------------------

  Dipole Moment: [D]
     X:     1.3994      Y:     0.6887      Z:    -0.0000     Total:     1.5597

*** Psi4 exiting successfully. Buy a developer a beer!
