                               Psi4 1.3.2 release

  ==> Input File <==

--------------------------------------------------------------------------
#psi4
#
memory 32 gb

molecule  {
0 1
  N        0.2222710     1.0128310     0.0000010
  N        0.7926860    -1.3208380    -0.0000020
  C       -1.5206760    -0.6557300    -0.0000030
  C       -2.4976210     0.2265170     0.7463830
  C       -2.4976210     0.2265190    -0.7463820
  C       -0.0883020    -0.2997600     0.0000010
  C        1.5276990     1.3180910     0.0000010
  C        2.0920280    -0.9819740     0.0000030
  C        2.5210310     0.3421130     0.0000010
  H       -1.7051520    -1.7251160     0.0000010
  H       -2.0735420     1.0920370     1.2438350
  H       -3.3111280    -0.2648640     1.2701610
  H       -3.3111290    -0.2648490    -1.2701700
  H       -2.0735380     1.0920430    -1.2438240
  H        1.8189930     2.5738016    -0.0000085
  H        2.8018760    -1.8077390    -0.0000100
  H        3.5748870     0.6009090    -0.0000030
units angstrom
no_reorient  #important for SAPT in psi4, default
symmetry c1  #important for SAPT in psi4, default
}

set PROPERTIES_ORIGIN ["COM"]
properties('MP2/aug-cc-pvtz', properties = ['dipole'])
--------------------------------------------------------------------------

    Molecular point group: c1
  Charge       = 0
  Multiplicity = 1
  Basis Set: AUG-CC-PVTZ
    Blend: AUG-CC-PVTZ
  Basis Set: (AUG-CC-PVTZ AUX)
    Blend: AUG-CC-PVTZ-JKFIT

    Orbital Energies [Eh]
    ---------------------

    Doubly Occupied:

       1A    -15.569341     2A    -15.567836     3A    -11.322023
       4A    -11.319898     5A    -11.299286     6A    -11.244376
       7A    -11.235038     8A    -11.229295     9A    -11.228609
      10A     -1.306800    11A     -1.187529    12A     -1.149578
      13A     -1.064251    14A     -0.912842    15A     -0.880531
      16A     -0.821806    17A     -0.799438    18A     -0.708242
      19A     -0.698039    20A     -0.657244    21A     -0.635482
      22A     -0.601270    23A     -0.578663    24A     -0.563947
      25A     -0.524031    26A     -0.514866    27A     -0.478865
      28A     -0.442397    29A     -0.427886    30A     -0.419350
      31A     -0.406125    32A     -0.349513

  @DF-RHF Final Energy:  -378.70796942140066

   => Energetics <=

    Nuclear Repulsion Energy =            412.4691456877822588
    One-Electron Energy =               -1330.0654359627963004
    Two-Electron Energy =                 538.8883208536134362
    Total Energy =                       -378.7079694214006622
  Basis Set: (AUG-CC-PVTZ AUX)
    Blend: AUG-CC-PVTZ-RI
    Molecular point group: c1

    Geometry (in Angstrom), charge = 0, multiplicity = 1:

       Center              X                  Y                   Z               Mass
    ------------   -----------------  -----------------  -----------------  -----------------
         N            0.186135370860     1.020304778516     0.000000872139    14.003074004430
         N            0.756550370860    -1.313364221484    -0.000002127861    14.003074004430
         C           -1.556811629140    -0.648256221484    -0.000003127861    12.000000000000
         C           -2.533756629140     0.233990778516     0.746382872139    12.000000000000
         C           -2.533756629140     0.233992778516    -0.746382127861    12.000000000000
         C           -0.124437629140    -0.292286221484     0.000000872139    12.000000000000
         C            1.491563370860     1.325564778516     0.000000872139    12.000000000000
         C            2.055892370860    -0.974500221484     0.000002872139    12.000000000000
         C            2.484895370860     0.349586778516     0.000000872139    12.000000000000
         H           -1.741287629140    -1.717642221484     0.000000872139     1.007825032230
         H           -2.109677629140     1.099510778516     1.243834872139     1.007825032230
         H           -3.347263629140    -0.257390221484     1.270160872139     1.007825032230
         H           -3.347264629140    -0.257375221484    -1.270170127861     1.007825032230
         H           -2.109673629140     1.099516778516    -1.243824127861     1.007825032230
         H            1.782857370860     2.581275378516    -0.000008627861     1.007825032230
         H            2.765740370860    -1.800265221484    -0.000010127861     1.007825032230
         H            3.538751370860     0.608382778516    -0.000003127861     1.007825032230

  Basis Set: AUG-CC-PVTZ
    Blend: AUG-CC-PVTZ
  Basis Set: (AUG-CC-PVTZ AUX)
    Blend: AUG-CC-PVTZ-JKFIT
	 Reference Energy          =    -378.7079694214006622 [Eh]
	 Singles Energy            =      -0.0000000000000000 [Eh]
	 Same-Spin Energy          =      -0.4138865846920988 [Eh]
	 Opposite-Spin Energy      =      -1.2929960971671037 [Eh]
	 Correlation Energy        =      -1.7068826818592027 [Eh]
	 Total Energy              =    -380.4148521032598751 [Eh]

	 ================> DF-SCS-MP2 Energies <==================
	-----------------------------------------------------------
	 SCS Same-Spin Scale       =       0.3333333333333333 [-]
	 SCS Opposite-Spin Scale   =       1.2000000000000000 [-]
	 SCS Same-Spin Energy      =      -0.1379621948973663 [Eh]
	 SCS Opposite-Spin Energy  =      -1.5515953166005245 [Eh]
	 SCS Correlation Energy    =      -1.6895575114978909 [Eh]
	 SCS Total Energy          =    -380.3975269328985291 [Eh]
	-----------------------------------------------------------

  Dipole Moment: [D]
     X:     1.3513      Y:     0.4978      Z:    -0.0000     Total:     1.4401

*** Psi4 exiting successfully. Buy a developer a beer!
