                               Psi4 1.4a3.dev225

  ==> Input File <==

--------------------------------------------------------------------------
#psi4
#
memory 32 gb

molecule  {
0 1
  N        0.2222710     1.0128310     0.0000010
  N        0.7926860    -1.3208380    -0.0000020
  C       -1.5206760    -0.6557300    -0.0000030
  C       -2.4976210     0.2265170     0.7463830
  C       -2.4976210     0.2265190    -0.7463820
  C       -0.0883020    -0.2997600     0.0000010
  C        1.5276990     1.3180910     0.0000010
  C        2.0920280    -0.9819740     0.0000030
  C        2.5210310     0.3421130     0.0000010
  H       -1.7051520    -1.7251160     0.0000010
  H       -2.0735420     1.0920370     1.2438350
  H       -3.3111280    -0.2648640     1.2701610
  H       -3.3111290    -0.2648490    -1.2701700
  H       -2.0735380     1.0920430    -1.2438240
  H        1.7692785     2.3594923    -0.0000069
  H        2.8018760    -1.8077390    -0.0000100
  H        3.5748870     0.6009090    -0.0000030
units angstrom
no_reorient  #important for SAPT in psi4, default
symmetry c1  #important for SAPT in psi4, default
}

set PROPERTIES_ORIGIN ["COM"]
properties('MP2/aug-cc-pvtz', properties = ['dipole'])
--------------------------------------------------------------------------

    Molecular point group: c1
  Charge       = 0
  Multiplicity = 1
  Basis Set: AUG-CC-PVTZ
    Blend: AUG-CC-PVTZ
  Basis Set: (AUG-CC-PVTZ AUX)
    Blend: AUG-CC-PVTZ-JKFIT

    Orbital Energies [Eh]
    ---------------------

    Doubly Occupied:

       1A    -15.566749     2A    -15.566561     3A    -11.319708
       4A    -11.297483     5A    -11.296659     6A    -11.241762
       7A    -11.233994     8A    -11.228552     9A    -11.227868
      10A     -1.305172    11A     -1.186826    12A     -1.149037
      13A     -1.064483    14A     -0.911391    15A     -0.892074
      16A     -0.821094    17A     -0.803190    18A     -0.719585
      19A     -0.698254    20A     -0.656311    21A     -0.635022
      22A     -0.608726    23A     -0.588768    24A     -0.576918
      25A     -0.527343    26A     -0.514148    27A     -0.477156
      28A     -0.441306    29A     -0.427135    30A     -0.417727
      31A     -0.407957    32A     -0.348110

  @DF-RHF Final Energy:  -378.73030162314410

   => Energetics <=

    Nuclear Repulsion Energy =            413.5024117651114466
    One-Electron Energy =               -1332.1512912113964830
    Two-Electron Energy =                 539.9185778231409358
    Total Energy =                       -378.7303016231441006
  Basis Set: (AUG-CC-PVTZ AUX)
    Blend: AUG-CC-PVTZ-RI
    Molecular point group: c1

    Geometry (in Angstrom), charge = 0, multiplicity = 1:

       Center              X                  Y                   Z               Mass
    ------------   -----------------  -----------------  -----------------  -----------------
         N            0.186552661106     1.022103633591     0.000000858709    14.003074004430
         N            0.756967661106    -1.311565366409    -0.000002141291    14.003074004430
         C           -1.556394338894    -0.646457366409    -0.000003141291    12.000000000000
         C           -2.533339338894     0.235789633591     0.746382858709    12.000000000000
         C           -2.533339338894     0.235791633591    -0.746382141291    12.000000000000
         C           -0.124020338894    -0.290487366409     0.000000858709    12.000000000000
         C            1.491980661106     1.327363633591     0.000000858709    12.000000000000
         C            2.056309661106    -0.972701366409     0.000002858709    12.000000000000
         C            2.485312661106     0.351385633591     0.000000858709    12.000000000000
         H           -1.740870338894    -1.715843366409     0.000000858709     1.007825032230
         H           -2.109260338894     1.101309633591     1.243834858709     1.007825032230
         H           -3.346846338894    -0.255591366409     1.270160858709     1.007825032230
         H           -3.346847338894    -0.255576366409    -1.270170141291     1.007825032230
         H           -2.109256338894     1.101315633591    -1.243824141291     1.007825032230
         H            1.733560161106     2.368764933591    -0.000007041291     1.007825032230
         H            2.766157661106    -1.798466366409    -0.000010141291     1.007825032230
         H            3.539168661106     0.610181633591    -0.000003141291     1.007825032230

  Basis Set: AUG-CC-PVTZ
    Blend: AUG-CC-PVTZ
  Basis Set: (AUG-CC-PVTZ AUX)
    Blend: AUG-CC-PVTZ-JKFIT
	 Reference Energy          =    -378.7303016231441006 [Eh]
	 Singles Energy            =      -0.0000000000000000 [Eh]
	 Same-Spin Energy          =      -0.4132103576140334 [Eh]
	 Opposite-Spin Energy      =      -1.2905591542660042 [Eh]
	 Correlation Energy        =      -1.7037695118800376 [Eh]
	 Total Energy              =    -380.4340711350241122 [Eh]

	 ================> DF-SCS-MP2 Energies <==================
	-----------------------------------------------------------
	 SCS Same-Spin Scale       =       0.3333333333333333 [-]
	 SCS Opposite-Spin Scale   =       1.2000000000000000 [-]
	 SCS Same-Spin Energy      =      -0.1377367858713444 [Eh]
	 SCS Opposite-Spin Energy  =      -1.5486709851192051 [Eh]
	 SCS Correlation Energy    =      -1.6864077709905496 [Eh]
	 SCS Total Energy          =    -380.4167093941346707 [Eh]
	-----------------------------------------------------------

  Dipole Moment: [D]
     X:     1.4364      Y:     0.6153      Z:    -0.0000     Total:     1.5626

*** Psi4 exiting successfully. Buy a developer a beer!
