                               Psi4 1.3.2 release

  ==> Input File <==

--------------------------------------------------------------------------
#psi4
#
memory 32 gb

molecule  {
0 1
  N        0.2222710     1.0128310     0.0000010
  N        0.7926860    -1.3208380    -0.0000020
  C       -1.5206760    -0.6557300    -0.0000030
  C       -2.4976210     0.2265170     0.7463830
  C       -2.4976210     0.2265190    -0.7463820
  C       -0.0883020    -0.2997600     0.0000010
  C        1.4620379     1.2464222     0.0000012
  C        2.0920280    -0.9819740     0.0000030
  C        2.5210310     0.3421130     0.0000010
  H       -1.7051520    -1.7251160     0.0000010
  H       -2.0735420     1.0920370     1.2438350
  H       -3.3111280    -0.2648640     1.2701610
  H       -3.3111290    -0.2648490    -1.2701700
  H       -2.0735380     1.0920430    -1.2438240
  H        1.7737980     2.3789750    -0.0000070
  H        2.8018760    -1.8077390    -0.0000100
  H        3.5748870     0.6009090    -0.0000030
units angstrom
no_reorient  #important for SAPT in psi4, default
symmetry c1  #important for SAPT in psi4, default
}

set PROPERTIES_ORIGIN ["COM"]
properties('MP2/aug-cc-pvtz', properties = ['dipole'])
--------------------------------------------------------------------------

    Molecular point group: c1
  Charge       = 0
  Multiplicity = 1
  Basis Set: AUG-CC-PVTZ
    Blend: AUG-CC-PVTZ
  Basis Set: (AUG-CC-PVTZ AUX)
    Blend: AUG-CC-PVTZ-JKFIT

    Orbital Energies [Eh]
    ---------------------

    Doubly Occupied:

       1A    -15.566256     2A    -15.564605     3A    -11.323738
       4A    -11.296482     5A    -11.295389     6A    -11.239520
       7A    -11.236126     8A    -11.231073     9A    -11.230392
      10A     -1.323811    11A     -1.202810    12A     -1.152818
      13A     -1.063681    14A     -0.919225    15A     -0.882265
      16A     -0.823557    17A     -0.806152    18A     -0.715507
      19A     -0.705102    20A     -0.657755    21A     -0.639397
      22A     -0.602500    23A     -0.587969    24A     -0.571371
      25A     -0.524096    26A     -0.516672    27A     -0.486364
      28A     -0.444973    29A     -0.429774    30A     -0.429636
      31A     -0.403745    32A     -0.346986

  @DF-RHF Final Energy:  -378.72069743698972

   => Energetics <=

    Nuclear Repulsion Energy =            415.4025368504503604
    One-Electron Energy =               -1335.8069763461337516
    Two-Electron Energy =                 541.6837420586936105
    Total Energy =                       -378.7206974369897807
  Basis Set: (AUG-CC-PVTZ AUX)
    Blend: AUG-CC-PVTZ-RI
    Molecular point group: c1

    Geometry (in Angstrom), charge = 0, multiplicity = 1:

       Center              X                  Y                   Z               Mass
    ------------   -----------------  -----------------  -----------------  -----------------
         N            0.193077076044     1.029102877436     0.000000839559    14.003074004430
         N            0.763492076044    -1.304566122564    -0.000002160441    14.003074004430
         C           -1.549869923956    -0.639458122564    -0.000003160441    12.000000000000
         C           -2.526814923956     0.242788877436     0.746382839559    12.000000000000
         C           -2.526814923956     0.242790877436    -0.746382160441    12.000000000000
         C           -0.117495923956    -0.283488122564     0.000000839559    12.000000000000
         C            1.432843976044     1.262694077436     0.000001039559    12.000000000000
         C            2.062834076044    -0.965702122564     0.000002839559    12.000000000000
         C            2.491837076044     0.358384877436     0.000000839559    12.000000000000
         H           -1.734345923956    -1.708844122564     0.000000839559     1.007825032230
         H           -2.102735923956     1.108308877436     1.243834839559     1.007825032230
         H           -3.340321923956    -0.248592122564     1.270160839559     1.007825032230
         H           -3.340322923956    -0.248577122564    -1.270170160441     1.007825032230
         H           -2.102731923956     1.108314877436    -1.243824160441     1.007825032230
         H            1.744604076044     2.395246877436    -0.000007160441     1.007825032230
         H            2.772682076044    -1.791467122564    -0.000010160441     1.007825032230
         H            3.545693076044     0.617180877436    -0.000003160441     1.007825032230

  Basis Set: AUG-CC-PVTZ
    Blend: AUG-CC-PVTZ
  Basis Set: (AUG-CC-PVTZ AUX)
    Blend: AUG-CC-PVTZ-JKFIT
	 Reference Energy          =    -378.7206974369897239 [Eh]
	 Singles Energy            =      -0.0000000000000000 [Eh]
	 Same-Spin Energy          =      -0.4126345779692393 [Eh]
	 Opposite-Spin Energy      =      -1.2892581352462484 [Eh]
	 Correlation Energy        =      -1.7018927132154877 [Eh]
	 Total Energy              =    -380.4225901502052238 [Eh]

	 ================> DF-SCS-MP2 Energies <==================
	-----------------------------------------------------------
	 SCS Same-Spin Scale       =       0.3333333333333333 [-]
	 SCS Opposite-Spin Scale   =       1.2000000000000000 [-]
	 SCS Same-Spin Energy      =      -0.1375448593230797 [Eh]
	 SCS Opposite-Spin Energy  =      -1.5471097622954981 [Eh]
	 SCS Correlation Energy    =      -1.6846546216185778 [Eh]
	 SCS Total Energy          =    -380.4053520586082868 [Eh]
	-----------------------------------------------------------

  Dipole Moment: [D]
     X:     1.2497      Y:     0.4565      Z:    -0.0000     Total:     1.3304

*** Psi4 exiting successfully. Buy a developer a beer!
