                               Psi4 1.3.2 release

  ==> Input File <==

--------------------------------------------------------------------------
#psi4
#
memory 32 gb

molecule  {
0 1
  N        0.2467448     0.9225125     0.0000018
  N        0.7926860    -1.3208380    -0.0000020
  C       -1.5206760    -0.6557300    -0.0000030
  C       -2.4976210     0.2265170     0.7463830
  C       -2.4976210     0.2265190    -0.7463820
  C       -0.0883020    -0.2997600     0.0000010
  C        1.5276990     1.3180910     0.0000010
  C        2.0920280    -0.9819740     0.0000030
  C        2.5210310     0.3421130     0.0000010
  H       -1.7051520    -1.7251160     0.0000010
  H       -2.0735420     1.0920370     1.2438350
  H       -3.3111280    -0.2648640     1.2701610
  H       -3.3111290    -0.2648490    -1.2701700
  H       -2.0735380     1.0920430    -1.2438240
  H        1.7737980     2.3789750    -0.0000070
  H        2.8018760    -1.8077390    -0.0000100
  H        3.5748870     0.6009090    -0.0000030
units angstrom
no_reorient  #important for SAPT in psi4, default
symmetry c1  #important for SAPT in psi4, default
}

set PROPERTIES_ORIGIN ["COM"]
properties('MP2/aug-cc-pvtz', properties = ['dipole'])
--------------------------------------------------------------------------

    Molecular point group: c1
  Charge       = 0
  Multiplicity = 1
  Basis Set: AUG-CC-PVTZ
    Blend: AUG-CC-PVTZ
  Basis Set: (AUG-CC-PVTZ AUX)
    Blend: AUG-CC-PVTZ-JKFIT

    Orbital Energies [Eh]
    ---------------------

    Doubly Occupied:

       1A    -15.562883     2A    -15.554174     3A    -11.306852
       4A    -11.301247     5A    -11.295413     6A    -11.243215
       7A    -11.230956     8A    -11.226767     9A    -11.226097
      10A     -1.320527    11A     -1.186570    12A     -1.147341
      13A     -1.070595    14A     -0.907923    15A     -0.900066
      16A     -0.819573    17A     -0.804503    18A     -0.724642
      19A     -0.697792    20A     -0.660212    21A     -0.633424
      22A     -0.611146    23A     -0.588860    24A     -0.585688
      25A     -0.531852    26A     -0.512761    27A     -0.469594
      28A     -0.440057    29A     -0.424065    30A     -0.415649
      31A     -0.398973    32A     -0.352553

  @DF-RHF Final Energy:  -378.72657166026784

   => Energetics <=

    Nuclear Repulsion Energy =            415.4938349803265965
    One-Electron Energy =               -1336.1368788325694368
    Two-Electron Energy =                 541.9164721919750036
    Total Energy =                       -378.7265716602678367
  Basis Set: (AUG-CC-PVTZ AUX)
    Blend: AUG-CC-PVTZ-RI
    Molecular point group: c1

    Geometry (in Angstrom), charge = 0, multiplicity = 1:

       Center              X                  Y                   Z               Mass
    ------------   -----------------  -----------------  -----------------  -----------------
         N            0.208134257241     0.942155038372     0.000001566248    14.003074004430
         N            0.754075457241    -1.301195461628    -0.000002233752    14.003074004430
         C           -1.559286542759    -0.636087461628    -0.000003233752    12.000000000000
         C           -2.536231542759     0.246159538372     0.746382766248    12.000000000000
         C           -2.536231542759     0.246161538372    -0.746382233752    12.000000000000
         C           -0.126912542759    -0.280117461628     0.000000766248    12.000000000000
         C            1.489088457241     1.337733538372     0.000000766248    12.000000000000
         C            2.053417457241    -0.962331461628     0.000002766248    12.000000000000
         C            2.482420457241     0.361755538372     0.000000766248    12.000000000000
         H           -1.743762542759    -1.705473461628     0.000000766248     1.007825032230
         H           -2.112152542759     1.111679538372     1.243834766248     1.007825032230
         H           -3.349738542759    -0.245221461628     1.270160766248     1.007825032230
         H           -3.349739542759    -0.245206461628    -1.270170233752     1.007825032230
         H           -2.112148542759     1.111685538372    -1.243824233752     1.007825032230
         H            1.735187457241     2.398617538372    -0.000007233752     1.007825032230
         H            2.763265457241    -1.788096461628    -0.000010233752     1.007825032230
         H            3.536276457241     0.620551538372    -0.000003233752     1.007825032230

  Basis Set: AUG-CC-PVTZ
    Blend: AUG-CC-PVTZ
  Basis Set: (AUG-CC-PVTZ AUX)
    Blend: AUG-CC-PVTZ-JKFIT
	 Reference Energy          =    -378.7265716602678367 [Eh]
	 Singles Energy            =      -0.0000000000000000 [Eh]
	 Same-Spin Energy          =      -0.4128770458422794 [Eh]
	 Opposite-Spin Energy      =      -1.2889873418147801 [Eh]
	 Correlation Energy        =      -1.7018643876570594 [Eh]
	 Total Energy              =    -380.4284360479248903 [Eh]

	 ================> DF-SCS-MP2 Energies <==================
	-----------------------------------------------------------
	 SCS Same-Spin Scale       =       0.3333333333333333 [-]
	 SCS Opposite-Spin Scale   =       1.2000000000000000 [-]
	 SCS Same-Spin Energy      =      -0.1376256819474264 [Eh]
	 SCS Opposite-Spin Energy  =      -1.5467848101777362 [Eh]
	 SCS Correlation Energy    =      -1.6844104921251626 [Eh]
	 SCS Total Energy          =    -380.4109821523929895 [Eh]
	-----------------------------------------------------------

  Dipole Moment: [D]
     X:     1.5022      Y:     0.8038      Z:    -0.0000     Total:     1.7038

*** Psi4 exiting successfully. Buy a developer a beer!
