                               Psi4 1.3.2 release

  ==> Input File <==

--------------------------------------------------------------------------
#psi4
#
memory 32 gb

molecule  {
0 1
  N        0.2222710     1.0128310     0.0000010
  N        0.7926860    -1.3208380    -0.0000020
  C       -1.5206760    -0.6557300    -0.0000030
  C       -2.4976210     0.2265170     0.7463830
  C       -2.4976210     0.2265190    -0.7463820
  C       -0.0423040    -0.3097992     0.0000010
  C        1.5276990     1.3180910     0.0000010
  C        2.0920280    -0.9819740     0.0000030
  C        2.5210310     0.3421130     0.0000010
  H       -1.7051520    -1.7251160     0.0000010
  H       -2.0735420     1.0920370     1.2438350
  H       -3.3111280    -0.2648640     1.2701610
  H       -3.3111290    -0.2648490    -1.2701700
  H       -2.0735380     1.0920430    -1.2438240
  H        1.7737980     2.3789750    -0.0000070
  H        2.8018760    -1.8077390    -0.0000100
  H        3.5748870     0.6009090    -0.0000030
units angstrom
no_reorient  #important for SAPT in psi4, default
symmetry c1  #important for SAPT in psi4, default
}

set PROPERTIES_ORIGIN ["COM"]
properties('MP2/aug-cc-pvtz', properties = ['dipole'])
--------------------------------------------------------------------------

    Molecular point group: c1
  Charge       = 0
  Multiplicity = 1
  Basis Set: AUG-CC-PVTZ
    Blend: AUG-CC-PVTZ
  Basis Set: (AUG-CC-PVTZ AUX)
    Blend: AUG-CC-PVTZ-JKFIT

    Orbital Energies [Eh]
    ---------------------

    Doubly Occupied:

       1A    -15.568852     2A    -15.566914     3A    -11.317230
       4A    -11.300640     5A    -11.300274     6A    -11.244117
       7A    -11.232332     8A    -11.224932     9A    -11.224239
      10A     -1.314263    11A     -1.195473    12A     -1.143045
      13A     -1.066513    14A     -0.907317    15A     -0.893443
      16A     -0.817558    17A     -0.800729    18A     -0.717042
      19A     -0.702424    20A     -0.653344    21A     -0.633847
      22A     -0.607092    23A     -0.589370    24A     -0.581998
      25A     -0.522556    26A     -0.511309    27A     -0.473741
      28A     -0.436751    29A     -0.425657    30A     -0.421183
      31A     -0.413052    32A     -0.352931

  @DF-RHF Final Energy:  -378.72913989735116

   => Energetics <=

    Nuclear Repulsion Energy =            413.5870761556610660
    One-Electron Energy =               -1332.3120974809698964
    Two-Electron Energy =                 539.9958814279576700
    Total Energy =                       -378.7291398973511605
  Basis Set: (AUG-CC-PVTZ AUX)
    Blend: AUG-CC-PVTZ-RI
    Molecular point group: c1

    Geometry (in Angstrom), charge = 0, multiplicity = 1:

       Center              X                  Y                   Z               Mass
    ------------   -----------------  -----------------  -----------------  -----------------
         N            0.181917559356     1.022943446188     0.000000859548    14.003074004430
         N            0.752332559356    -1.310725553812    -0.000002140452    14.003074004430
         C           -1.561029440644    -0.645617553812    -0.000003140452    12.000000000000
         C           -2.537974440644     0.236629446188     0.746382859548    12.000000000000
         C           -2.537974440644     0.236631446188    -0.746382140452    12.000000000000
         C           -0.082657440644    -0.299686753812     0.000000859548    12.000000000000
         C            1.487345559356     1.328203446188     0.000000859548    12.000000000000
         C            2.051674559356    -0.971861553812     0.000002859548    12.000000000000
         C            2.480677559356     0.352225446188     0.000000859548    12.000000000000
         H           -1.745505440644    -1.715003553812     0.000000859548     1.007825032230
         H           -2.113895440644     1.102149446188     1.243834859548     1.007825032230
         H           -3.351481440644    -0.254751553812     1.270160859548     1.007825032230
         H           -3.351482440644    -0.254736553812    -1.270170140452     1.007825032230
         H           -2.113891440644     1.102155446188    -1.243824140452     1.007825032230
         H            1.733444559356     2.389087446188    -0.000007140452     1.007825032230
         H            2.761522559356    -1.797626553812    -0.000010140452     1.007825032230
         H            3.534533559356     0.611021446188    -0.000003140452     1.007825032230

  Basis Set: AUG-CC-PVTZ
    Blend: AUG-CC-PVTZ
  Basis Set: (AUG-CC-PVTZ AUX)
    Blend: AUG-CC-PVTZ-JKFIT
	 Reference Energy          =    -378.7291398973511605 [Eh]
	 Singles Energy            =      -0.0000000000000000 [Eh]
	 Same-Spin Energy          =      -0.4125889842913122 [Eh]
	 Opposite-Spin Energy      =      -1.2897717548202006 [Eh]
	 Correlation Energy        =      -1.7023607391115128 [Eh]
	 Total Energy              =    -380.4315006364626583 [Eh]

	 ================> DF-SCS-MP2 Energies <==================
	-----------------------------------------------------------
	 SCS Same-Spin Scale       =       0.3333333333333333 [-]
	 SCS Opposite-Spin Scale   =       1.2000000000000000 [-]
	 SCS Same-Spin Energy      =      -0.1375296614304374 [Eh]
	 SCS Opposite-Spin Energy  =      -1.5477261057842406 [Eh]
	 SCS Correlation Energy    =      -1.6852557672146780 [Eh]
	 SCS Total Energy          =    -380.4143956645658591 [Eh]
	-----------------------------------------------------------

  Dipole Moment: [D]
     X:     1.7219      Y:     0.6182      Z:    -0.0000     Total:     1.8295

*** Psi4 exiting successfully. Buy a developer a beer!
