                               Psi4 1.3.2 release

  ==> Input File <==

--------------------------------------------------------------------------
#psi4
#
memory 32 gb

molecule  {
0 1
  N        0.2222710     1.0128310     0.0000010
  N        0.7926860    -1.3208380    -0.0000020
  C       -1.5206760    -0.6557300    -0.0000030
  C       -2.4976210     0.2265170     0.7463830
  C       -2.4976210     0.2265190    -0.7463820
  C       -0.0883020    -0.2997600     0.0000010
  C        1.5276990     1.3180910     0.0000010
  C        2.0920280    -0.9819740     0.0000030
  C        2.5210310     0.3421130     0.0000010
  H       -1.7051520    -1.7251160     0.0000010
  H       -2.0735420     1.0920370     1.2438350
  H       -3.3111280    -0.2648640     1.2701610
  H       -3.3111290    -0.2648490    -1.2701700
  H       -2.0735380     1.0920430    -1.2438240
  H        1.7286030     2.1841484    -0.0000055
  H        2.8018760    -1.8077390    -0.0000100
  H        3.5748870     0.6009090    -0.0000030
units angstrom
no_reorient  #important for SAPT in psi4, default
symmetry c1  #important for SAPT in psi4, default
}

set PROPERTIES_ORIGIN ["COM"]
properties('MP2/aug-cc-pvtz', properties = ['dipole'])
--------------------------------------------------------------------------

    Molecular point group: c1
  Charge       = 0
  Multiplicity = 1
  Basis Set: AUG-CC-PVTZ
    Blend: AUG-CC-PVTZ
  Basis Set: (AUG-CC-PVTZ AUX)
    Blend: AUG-CC-PVTZ-JKFIT

    Orbital Energies [Eh]
    ---------------------

    Doubly Occupied:

       1A    -15.566635     2A    -15.565599     3A    -11.318634
       4A    -11.296764     5A    -11.275707     6A    -11.240849
       7A    -11.233549     8A    -11.228248     9A    -11.227566
      10A     -1.304964    11A     -1.188185    12A     -1.149435
      13A     -1.067312    14A     -0.914225    15A     -0.910804
      16A     -0.820807    17A     -0.809332    18A     -0.734946
      19A     -0.698243    20A     -0.656021    21A     -0.636960
      22A     -0.623820    23A     -0.593300    24A     -0.576262
      25A     -0.528101    26A     -0.513863    27A     -0.476483
      28A     -0.440946    29A     -0.426851    30A     -0.417238
      31A     -0.409198    32A     -0.347581

  @DF-RHF Final Energy:  -378.69585729131268

   => Energetics <=

    Nuclear Repulsion Energy =            414.5786291575620339
    One-Electron Energy =               -1334.1521169240954805
    Two-Electron Energy =                 540.8776304752207125
    Total Energy =                       -378.6958572913126773
  Basis Set: (AUG-CC-PVTZ AUX)
    Blend: AUG-CC-PVTZ-RI
    Molecular point group: c1

    Geometry (in Angstrom), charge = 0, multiplicity = 1:

       Center              X                  Y                   Z               Mass
    ------------   -----------------  -----------------  -----------------  -----------------
         N            0.186894080399     1.023575423497     0.000000846957    14.003074004430
         N            0.757309080399    -1.310093576503    -0.000002153043    14.003074004430
         C           -1.556052919601    -0.644985576503    -0.000003153043    12.000000000000
         C           -2.532997919601     0.237261423497     0.746382846957    12.000000000000
         C           -2.532997919601     0.237263423497    -0.746382153043    12.000000000000
         C           -0.123678919601    -0.289015576503     0.000000846957    12.000000000000
         C            1.492322080399     1.328835423497     0.000000846957    12.000000000000
         C            2.056651080399    -0.971229576503     0.000002846957    12.000000000000
         C            2.485654080399     0.352857423497     0.000000846957    12.000000000000
         H           -1.740528919601    -1.714371576503     0.000000846957     1.007825032230
         H           -2.108918919601     1.102781423497     1.243834846957     1.007825032230
         H           -3.346504919601    -0.254119576503     1.270160846957     1.007825032230
         H           -3.346505919601    -0.254104576503    -1.270170153043     1.007825032230
         H           -2.108914919601     1.102787423497    -1.243824153043     1.007825032230
         H            1.693226080399     2.194892823497    -0.000005653043     1.007825032230
         H            2.766499080399    -1.796994576503    -0.000010153043     1.007825032230
         H            3.539510080399     0.611653423497    -0.000003153043     1.007825032230

  Basis Set: AUG-CC-PVTZ
    Blend: AUG-CC-PVTZ
  Basis Set: (AUG-CC-PVTZ AUX)
    Blend: AUG-CC-PVTZ-JKFIT
	 Reference Energy          =    -378.6958572913126773 [Eh]
	 Singles Energy            =      -0.0000000000000000 [Eh]
	 Same-Spin Energy          =      -0.4130510185181033 [Eh]
	 Opposite-Spin Energy      =      -1.2901393744532448 [Eh]
	 Correlation Energy        =      -1.7031903929713481 [Eh]
	 Total Energy              =    -380.3990476842840280 [Eh]

	 ================> DF-SCS-MP2 Energies <==================
	-----------------------------------------------------------
	 SCS Same-Spin Scale       =       0.3333333333333333 [-]
	 SCS Opposite-Spin Scale   =       1.2000000000000000 [-]
	 SCS Same-Spin Energy      =      -0.1376836728393678 [Eh]
	 SCS Opposite-Spin Energy  =      -1.5481672493438936 [Eh]
	 SCS Correlation Energy    =      -1.6858509221832614 [Eh]
	 SCS Total Energy          =    -380.3817082134959264 [Eh]
	-----------------------------------------------------------

  Dipole Moment: [D]
     X:     1.4741      Y:     0.6341      Z:    -0.0000     Total:     1.6047

*** Psi4 exiting successfully. Buy a developer a beer!
