                               Psi4 1.4a3.dev225

  ==> Input File <==

--------------------------------------------------------------------------
#psi4
#
memory 32 gb

molecule  {
0 1
  N        0.2222710     1.0128310     0.0000010
  N        0.7926860    -1.3208380    -0.0000020
  C       -1.5206760    -0.6557300    -0.0000030
  C       -2.4976210     0.2265170     0.7463830
  C       -2.4976210     0.2265190    -0.7463820
  C       -0.1077116    -0.3045836     0.0000009
  C        1.5276990     1.3180910     0.0000010
  C        2.0920280    -0.9819740     0.0000030
  C        2.5210310     0.3421130     0.0000010
  H       -1.7051520    -1.7251160     0.0000010
  H       -2.0735420     1.0920370     1.2438350
  H       -3.3111280    -0.2648640     1.2701610
  H       -3.3111290    -0.2648490    -1.2701700
  H       -2.0735380     1.0920430    -1.2438240
  H        1.7737980     2.3789750    -0.0000070
  H        2.8018760    -1.8077390    -0.0000100
  H        3.5748870     0.6009090    -0.0000030
units angstrom
no_reorient  #important for SAPT in psi4, default
symmetry c1  #important for SAPT in psi4, default
}

set PROPERTIES_ORIGIN ["COM"]
properties('MP2/aug-cc-pvtz', properties = ['dipole'])
--------------------------------------------------------------------------

    Molecular point group: c1
  Charge       = 0
  Multiplicity = 1
  Basis Set: AUG-CC-PVTZ
    Blend: AUG-CC-PVTZ
  Basis Set: (AUG-CC-PVTZ AUX)
    Blend: AUG-CC-PVTZ-JKFIT

    Orbital Energies [Eh]
    ---------------------

    Doubly Occupied:

       1A    -15.566297     2A    -15.566184     3A    -11.321178
       4A    -11.297908     5A    -11.296553     6A    -11.240876
       7A    -11.234699     8A    -11.230445     9A    -11.229772
      10A     -1.301189    11A     -1.182920    12A     -1.151848
      13A     -1.063300    14A     -0.914808    15A     -0.887968
      16A     -0.822849    17A     -0.803610    18A     -0.718311
      19A     -0.697071    20A     -0.656996    21A     -0.635830
      22A     -0.607300    23A     -0.586554    24A     -0.574872
      25A     -0.529793    26A     -0.515563    27A     -0.477574
      28A     -0.443826    29A     -0.429172    30A     -0.416139
      31A     -0.404193    32A     -0.345833

  @DF-RHF Final Energy:  -378.72865549458595

   => Energetics <=

    Nuclear Repulsion Energy =            413.2924273200496259
    One-Electron Energy =               -1331.7393085770456764
    Two-Electron Energy =                 539.7182257624100430
    Total Energy =                       -378.7286554945859507
  Basis Set: (AUG-CC-PVTZ AUX)
    Blend: AUG-CC-PVTZ-RI
    Molecular point group: c1

    Geometry (in Angstrom), charge = 0, multiplicity = 1:

       Center              X                  Y                   Z               Mass
    ------------   -----------------  -----------------  -----------------  -----------------
         N            0.188454574286     1.022422184820     0.000000869542    14.003074004430
         N            0.758869574286    -1.311246815180    -0.000002130458    14.003074004430
         C           -1.554492425714    -0.646138815180    -0.000003130458    12.000000000000
         C           -2.531437425714     0.236108184820     0.746382869542    12.000000000000
         C           -2.531437425714     0.236110184820    -0.746382130458    12.000000000000
         C           -0.141528025714    -0.294992415180     0.000000769542    12.000000000000
         C            1.493882574286     1.327682184820     0.000000869542    12.000000000000
         C            2.058211574286    -0.972382815180     0.000002869542    12.000000000000
         C            2.487214574286     0.351704184820     0.000000869542    12.000000000000
         H           -1.738968425714    -1.715524815180     0.000000869542     1.007825032230
         H           -2.107358425714     1.101628184820     1.243834869542     1.007825032230
         H           -3.344944425714    -0.255272815180     1.270160869542     1.007825032230
         H           -3.344945425714    -0.255257815180    -1.270170130458     1.007825032230
         H           -2.107354425714     1.101634184820    -1.243824130458     1.007825032230
         H            1.739981574286     2.388566184820    -0.000007130458     1.007825032230
         H            2.768059574286    -1.798147815180    -0.000010130458     1.007825032230
         H            3.541070574286     0.610500184820    -0.000003130458     1.007825032230

  Basis Set: AUG-CC-PVTZ
    Blend: AUG-CC-PVTZ
  Basis Set: (AUG-CC-PVTZ AUX)
    Blend: AUG-CC-PVTZ-JKFIT
	 Reference Energy          =    -378.7286554945859507 [Eh]
	 Singles Energy            =      -0.0000000000000000 [Eh]
	 Same-Spin Energy          =      -0.4136179450217823 [Eh]
	 Opposite-Spin Energy      =      -1.2912844474896186 [Eh]
	 Correlation Energy        =      -1.7049023925114009 [Eh]
	 Total Energy              =    -380.4335578870973791 [Eh]

	 ================> DF-SCS-MP2 Energies <==================
	-----------------------------------------------------------
	 SCS Same-Spin Scale       =       0.3333333333333333 [-]
	 SCS Opposite-Spin Scale   =       1.2000000000000000 [-]
	 SCS Same-Spin Energy      =      -0.1378726483405941 [Eh]
	 SCS Opposite-Spin Energy  =      -1.5495413369875422 [Eh]
	 SCS Correlation Energy    =      -1.6874139853281362 [Eh]
	 SCS Total Energy          =    -380.4160694799140856 [Eh]
	-----------------------------------------------------------

  Dipole Moment: [D]
     X:     1.2916      Y:     0.6001      Z:    -0.0000     Total:     1.4241

*** Psi4 exiting successfully. Buy a developer a beer!
