                               Psi4 1.3.2 release

  ==> Input File <==

--------------------------------------------------------------------------
#psi4
#
memory 32 gb

molecule  {
0 1
  N        0.2222710     1.0128310     0.0000010
  N        0.7926860    -1.3208380    -0.0000020
  C       -1.5206760    -0.6557300    -0.0000030
  C       -2.4976210     0.2265170     0.7463830
  C       -2.4976210     0.2265190    -0.7463820
  C       -0.0652767    -0.2024469     0.0000010
  C        1.5276990     1.3180910     0.0000010
  C        2.0920280    -0.9819740     0.0000030
  C        2.5210310     0.3421130     0.0000010
  H       -1.7051520    -1.7251160     0.0000010
  H       -2.0735420     1.0920370     1.2438350
  H       -3.3111280    -0.2648640     1.2701610
  H       -3.3111290    -0.2648490    -1.2701700
  H       -2.0735380     1.0920430    -1.2438240
  H        1.7737980     2.3789750    -0.0000070
  H        2.8018760    -1.8077390    -0.0000100
  H        3.5748870     0.6009090    -0.0000030
units angstrom
no_reorient  #important for SAPT in psi4, default
symmetry c1  #important for SAPT in psi4, default
}

set PROPERTIES_ORIGIN ["COM"]
properties('MP2/aug-cc-pvtz', properties = ['dipole'])
--------------------------------------------------------------------------

    Molecular point group: c1
  Charge       = 0
  Multiplicity = 1
  Basis Set: AUG-CC-PVTZ
    Blend: AUG-CC-PVTZ
  Basis Set: (AUG-CC-PVTZ AUX)
    Blend: AUG-CC-PVTZ-JKFIT

    Orbital Energies [Eh]
    ---------------------

    Doubly Occupied:

       1A    -15.571184     2A    -15.563271     3A    -11.315410
       4A    -11.303019     5A    -11.297607     6A    -11.244795
       7A    -11.232726     8A    -11.224232     9A    -11.223535
      10A     -1.322098    11A     -1.193565    12A     -1.143947
      13A     -1.066363    14A     -0.905570    15A     -0.895784
      16A     -0.817803    17A     -0.797479    18A     -0.722674
      19A     -0.695233    20A     -0.660730    21A     -0.631854
      22A     -0.602897    23A     -0.590075    24A     -0.585570
      25A     -0.526909    26A     -0.511337    27A     -0.477285
      28A     -0.437368    29A     -0.422469    30A     -0.418696
      31A     -0.411585    32A     -0.352582

  @DF-RHF Final Energy:  -378.71894853807800

   => Energetics <=

    Nuclear Repulsion Energy =            413.9703038051561066
    One-Electron Energy =               -1333.0472042256747045
    Two-Electron Energy =                 540.3579518824404886
    Total Energy =                       -378.7189485380780525
  Basis Set: (AUG-CC-PVTZ AUX)
    Blend: AUG-CC-PVTZ-RI
    Molecular point group: c1

    Geometry (in Angstrom), charge = 0, multiplicity = 1:

       Center              X                  Y                   Z               Mass
    ------------   -----------------  -----------------  -----------------  -----------------
         N            0.184213513999     1.012214362903     0.000000859548    14.003074004430
         N            0.754628513999    -1.321454637097    -0.000002140452    14.003074004430
         C           -1.558733486001    -0.656346637097    -0.000003140452    12.000000000000
         C           -2.535678486001     0.225900362903     0.746382859548    12.000000000000
         C           -2.535678486001     0.225902362903    -0.746382140452    12.000000000000
         C           -0.103334186001    -0.203063537097     0.000000859548    12.000000000000
         C            1.489641513999     1.317474362903     0.000000859548    12.000000000000
         C            2.053970513999    -0.982590637097     0.000002859548    12.000000000000
         C            2.482973513999     0.341496362903     0.000000859548    12.000000000000
         H           -1.743209486001    -1.725732637097     0.000000859548     1.007825032230
         H           -2.111599486001     1.091420362903     1.243834859548     1.007825032230
         H           -3.349185486001    -0.265480637097     1.270160859548     1.007825032230
         H           -3.349186486001    -0.265465637097    -1.270170140452     1.007825032230
         H           -2.111595486001     1.091426362903    -1.243824140452     1.007825032230
         H            1.735740513999     2.378358362903    -0.000007140452     1.007825032230
         H            2.763818513999    -1.808355637097    -0.000010140452     1.007825032230
         H            3.536829513999     0.600292362903    -0.000003140452     1.007825032230

  Basis Set: AUG-CC-PVTZ
    Blend: AUG-CC-PVTZ
  Basis Set: (AUG-CC-PVTZ AUX)
    Blend: AUG-CC-PVTZ-JKFIT
	 Reference Energy          =    -378.7189485380779956 [Eh]
	 Singles Energy            =      -0.0000000000000000 [Eh]
	 Same-Spin Energy          =      -0.4125851802271805 [Eh]
	 Opposite-Spin Energy      =      -1.2904020421810376 [Eh]
	 Correlation Energy        =      -1.7029872224082181 [Eh]
	 Total Energy              =    -380.4219357604862353 [Eh]

	 ================> DF-SCS-MP2 Energies <==================
	-----------------------------------------------------------
	 SCS Same-Spin Scale       =       0.3333333333333333 [-]
	 SCS Opposite-Spin Scale   =       1.2000000000000000 [-]
	 SCS Same-Spin Energy      =      -0.1375283934090601 [Eh]
	 SCS Opposite-Spin Energy  =      -1.5484824506172450 [Eh]
	 SCS Correlation Energy    =      -1.6860108440263051 [Eh]
	 SCS Total Energy          =    -380.4049593821043231 [Eh]
	-----------------------------------------------------------

  Dipole Moment: [D]
     X:     1.7118      Y:     0.6745      Z:    -0.0000     Total:     1.8399

*** Psi4 exiting successfully. Buy a developer a beer!
