                               Psi4 1.3.2 release

  ==> Input File <==

--------------------------------------------------------------------------
#psi4
#
memory 32 gb

molecule  {
0 1
  N        0.1975139     1.1509576     0.0000010
  N        0.7926860    -1.3208380    -0.0000020
  C       -1.5206760    -0.6557300    -0.0000030
  C       -2.4976210     0.2265170     0.7463830
  C       -2.4976210     0.2265190    -0.7463820
  C       -0.0883020    -0.2997600     0.0000010
  C        1.5276990     1.3180910     0.0000010
  C        2.0920280    -0.9819740     0.0000030
  C        2.5210310     0.3421130     0.0000010
  H       -1.7051520    -1.7251160     0.0000010
  H       -2.0735420     1.0920370     1.2438350
  H       -3.3111280    -0.2648640     1.2701610
  H       -3.3111290    -0.2648490    -1.2701700
  H       -2.0735380     1.0920430    -1.2438240
  H        1.7737980     2.3789750    -0.0000070
  H        2.8018760    -1.8077390    -0.0000100
  H        3.5748870     0.6009090    -0.0000030
units angstrom
no_reorient  #important for SAPT in psi4, default
symmetry c1  #important for SAPT in psi4, default
}

set PROPERTIES_ORIGIN ["COM"]
properties('MP2/aug-cc-pvtz', properties = ['dipole'])
--------------------------------------------------------------------------

    Molecular point group: c1
  Charge       = 0
  Multiplicity = 1
  Basis Set: AUG-CC-PVTZ
    Blend: AUG-CC-PVTZ
  Basis Set: (AUG-CC-PVTZ AUX)
    Blend: AUG-CC-PVTZ-JKFIT

    Orbital Energies [Eh]
    ---------------------

    Doubly Occupied:

       1A    -15.583722     2A    -15.571784     3A    -11.336272
       4A    -11.300315     5A    -11.296167     6A    -11.240593
       7A    -11.238234     8A    -11.231547     9A    -11.230855
      10A     -1.289463    11A     -1.184927    12A     -1.151683
      13A     -1.057033    14A     -0.917732    15A     -0.875284
      16A     -0.823649    17A     -0.799434    18A     -0.711211
      19A     -0.698557    20A     -0.650542    21A     -0.637076
      22A     -0.603305    23A     -0.580325    24A     -0.567654
      25A     -0.521050    26A     -0.516565    27A     -0.491879
      28A     -0.444908    29A     -0.431418    30A     -0.420618
      31A     -0.410204    32A     -0.342248

  @DF-RHF Final Energy:  -378.70931080297350

   => Energetics <=

    Nuclear Repulsion Energy =            410.3832431685881375
    One-Electron Energy =               -1325.8726019661939972
    Two-Electron Energy =                 536.7800479946323549
    Total Energy =                       -378.7093108029735049
  Basis Set: (AUG-CC-PVTZ AUX)
    Blend: AUG-CC-PVTZ-RI
    Molecular point group: c1

    Geometry (in Angstrom), charge = 0, multiplicity = 1:

       Center              X                  Y                   Z               Mass
    ------------   -----------------  -----------------  -----------------  -----------------
         N            0.164644934013     1.143957621586     0.000000859548    14.003074004430
         N            0.759817034013    -1.327837978414    -0.000002140452    14.003074004430
         C           -1.553544965987    -0.662729978414    -0.000003140452    12.000000000000
         C           -2.530489965987     0.219517021586     0.746382859548    12.000000000000
         C           -2.530489965987     0.219519021586    -0.746382140452    12.000000000000
         C           -0.121170965987    -0.306759978414     0.000000859548    12.000000000000
         C            1.494830034013     1.311091021586     0.000000859548    12.000000000000
         C            2.059159034013    -0.988973978414     0.000002859548    12.000000000000
         C            2.488162034013     0.335113021586     0.000000859548    12.000000000000
         H           -1.738020965987    -1.732115978414     0.000000859548     1.007825032230
         H           -2.106410965987     1.085037021586     1.243834859548     1.007825032230
         H           -3.343996965987    -0.271863978414     1.270160859548     1.007825032230
         H           -3.343997965987    -0.271848978414    -1.270170140452     1.007825032230
         H           -2.106406965987     1.085043021586    -1.243824140452     1.007825032230
         H            1.740929034013     2.371975021586    -0.000007140452     1.007825032230
         H            2.769007034013    -1.814738978414    -0.000010140452     1.007825032230
         H            3.542018034013     0.593909021586    -0.000003140452     1.007825032230

  Basis Set: AUG-CC-PVTZ
    Blend: AUG-CC-PVTZ
  Basis Set: (AUG-CC-PVTZ AUX)
    Blend: AUG-CC-PVTZ-JKFIT
	 Reference Energy          =    -378.7093108029735049 [Eh]
	 Singles Energy            =      -0.0000000000000000 [Eh]
	 Same-Spin Energy          =      -0.4143022311761289 [Eh]
	 Opposite-Spin Energy      =      -1.2952192916931713 [Eh]
	 Correlation Energy        =      -1.7095215228693001 [Eh]
	 Total Energy              =    -380.4188323258427999 [Eh]

	 ================> DF-SCS-MP2 Energies <==================
	-----------------------------------------------------------
	 SCS Same-Spin Scale       =       0.3333333333333333 [-]
	 SCS Opposite-Spin Scale   =       1.2000000000000000 [-]
	 SCS Same-Spin Energy      =      -0.1381007437253763 [Eh]
	 SCS Opposite-Spin Energy  =      -1.5542631500318056 [Eh]
	 SCS Correlation Energy    =      -1.6923638937571819 [Eh]
	 SCS Total Energy          =    -380.4016746967307085 [Eh]
	-----------------------------------------------------------

  Dipole Moment: [D]
     X:     1.2822      Y:     0.3497      Z:    -0.0000     Total:     1.3291

*** Psi4 exiting successfully. Buy a developer a beer!
