                               Psi4 1.3.2 release

  ==> Input File <==

--------------------------------------------------------------------------
#psi4
#
memory 32 gb

molecule  {
0 1
  N        0.2222710     1.0128310     0.0000010
  N        0.7926860    -1.3208380    -0.0000020
  C       -1.5206760    -0.6557300    -0.0000030
  C       -2.4976210     0.2265170     0.7463830
  C       -2.4976210     0.2265190    -0.7463820
  C        0.1057940    -0.2515237     0.0000015
  C        1.5276990     1.3180910     0.0000010
  C        2.0920280    -0.9819740     0.0000030
  C        2.5210310     0.3421130     0.0000010
  H       -1.7051520    -1.7251160     0.0000010
  H       -2.0735420     1.0920370     1.2438350
  H       -3.3111280    -0.2648640     1.2701610
  H       -3.3111290    -0.2648490    -1.2701700
  H       -2.0735380     1.0920430    -1.2438240
  H        1.7737980     2.3789750    -0.0000070
  H        2.8018760    -1.8077390    -0.0000100
  H        3.5748870     0.6009090    -0.0000030
units angstrom
no_reorient  #important for SAPT in psi4, default
symmetry c1  #important for SAPT in psi4, default
}

set PROPERTIES_ORIGIN ["COM"]
properties('MP2/aug-cc-pvtz', properties = ['dipole'])
--------------------------------------------------------------------------

    Molecular point group: c1
  Charge       = 0
  Multiplicity = 1
  Basis Set: AUG-CC-PVTZ
    Blend: AUG-CC-PVTZ
  Basis Set: (AUG-CC-PVTZ AUX)
    Blend: AUG-CC-PVTZ-JKFIT

    Orbital Energies [Eh]
    ---------------------

    Doubly Occupied:

       1A    -15.574064     2A    -15.573629     3A    -11.313770
       4A    -11.309875     5A    -11.308610     6A    -11.251184
       7A    -11.222074     8A    -11.212445     9A    -11.211751
      10A     -1.348271    11A     -1.231758    12A     -1.125164
      13A     -1.073425    14A     -0.914246    15A     -0.889706
      16A     -0.805844    17A     -0.788413    18A     -0.721701
      19A     -0.711339    20A     -0.647565    21A     -0.631156
      22A     -0.604177    23A     -0.600827    24A     -0.594496
      25A     -0.525059    26A     -0.501395    27A     -0.450459
      28A     -0.441566    29A     -0.436096    30A     -0.420571
      31A     -0.393896    32A     -0.366498

  @DF-RHF Final Energy:  -378.68870732798490

   => Energetics <=

    Nuclear Repulsion Energy =            414.6909438484527755
    One-Electron Energy =               -1334.3572386319369798
    Two-Electron Energy =                 540.9775874554993607
    Total Energy =                       -378.6887073279848437
  Basis Set: (AUG-CC-PVTZ AUX)
    Blend: AUG-CC-PVTZ-RI
    Molecular point group: c1

    Geometry (in Angstrom), charge = 0, multiplicity = 1:

       Center              X                  Y                   Z               Mass
    ------------   -----------------  -----------------  -----------------  -----------------
         N            0.167116239066     1.017119232893     0.000000809577    14.003074004430
         N            0.737531239066    -1.316549767107    -0.000002190423    14.003074004430
         C           -1.575830760934    -0.651441767107    -0.000003190423    12.000000000000
         C           -2.552775760934     0.230805232893     0.746382809577    12.000000000000
         C           -2.552775760934     0.230807232893    -0.746382190423    12.000000000000
         C            0.050639239066    -0.247235467107     0.000001309577    12.000000000000
         C            1.472544239066     1.322379232893     0.000000809577    12.000000000000
         C            2.036873239066    -0.977685767107     0.000002809577    12.000000000000
         C            2.465876239066     0.346401232893     0.000000809577    12.000000000000
         H           -1.760306760934    -1.720827767107     0.000000809577     1.007825032230
         H           -2.128696760934     1.096325232893     1.243834809577     1.007825032230
         H           -3.366282760934    -0.260575767107     1.270160809577     1.007825032230
         H           -3.366283760934    -0.260560767107    -1.270170190423     1.007825032230
         H           -2.128692760934     1.096331232893    -1.243824190423     1.007825032230
         H            1.718643239066     2.383263232893    -0.000007190423     1.007825032230
         H            2.746721239066    -1.803450767107    -0.000010190423     1.007825032230
         H            3.519732239066     0.605197232893    -0.000003190423     1.007825032230

  Basis Set: AUG-CC-PVTZ
    Blend: AUG-CC-PVTZ
  Basis Set: (AUG-CC-PVTZ AUX)
    Blend: AUG-CC-PVTZ-JKFIT
	 Reference Energy          =    -378.6887073279849005 [Eh]
	 Singles Energy            =      -0.0000000000000000 [Eh]
	 Same-Spin Energy          =      -0.4123632910051521 [Eh]
	 Opposite-Spin Energy      =      -1.2898683657144785 [Eh]
	 Correlation Energy        =      -1.7022316567196305 [Eh]
	 Total Energy              =    -380.3909389847045190 [Eh]

	 ================> DF-SCS-MP2 Energies <==================
	-----------------------------------------------------------
	 SCS Same-Spin Scale       =       0.3333333333333333 [-]
	 SCS Opposite-Spin Scale   =       1.2000000000000000 [-]
	 SCS Same-Spin Energy      =      -0.1374544303350507 [Eh]
	 SCS Opposite-Spin Energy  =      -1.5478420388573741 [Eh]
	 SCS Correlation Energy    =      -1.6852964691924248 [Eh]
	 SCS Total Energy          =    -380.3740037971773518 [Eh]
	-----------------------------------------------------------

  Dipole Moment: [D]
     X:     2.7539      Y:     0.7015      Z:    -0.0000     Total:     2.8418

*** Psi4 exiting successfully. Buy a developer a beer!
