                               Psi4 1.3.2 release

  ==> Input File <==

--------------------------------------------------------------------------
#psi4
#
memory 32 gb

molecule  {
0 1
  N        0.2222710     1.0128310     0.0000010
  N        0.7926860    -1.3208380    -0.0000020
  C       -1.5206760    -0.6557300    -0.0000030
  C       -2.4976210     0.2265170     0.7463830
  C       -2.4976210     0.2265190    -0.7463820
  C        0.0506025    -0.3250332     0.0000010
  C        1.5276990     1.3180910     0.0000010
  C        2.0920280    -0.9819740     0.0000030
  C        2.5210310     0.3421130     0.0000010
  H       -1.7051520    -1.7251160     0.0000010
  H       -2.0735420     1.0920370     1.2438350
  H       -3.3111280    -0.2648640     1.2701610
  H       -3.3111290    -0.2648490    -1.2701700
  H       -2.0735380     1.0920430    -1.2438240
  H        1.7737980     2.3789750    -0.0000070
  H        2.8018760    -1.8077390    -0.0000100
  H        3.5748870     0.6009090    -0.0000030
units angstrom
no_reorient  #important for SAPT in psi4, default
symmetry c1  #important for SAPT in psi4, default
}

set PROPERTIES_ORIGIN ["COM"]
properties('MP2/aug-cc-pvtz', properties = ['dipole'])
--------------------------------------------------------------------------

    Molecular point group: c1
  Charge       = 0
  Multiplicity = 1
  Basis Set: AUG-CC-PVTZ
    Blend: AUG-CC-PVTZ
  Basis Set: (AUG-CC-PVTZ AUX)
    Blend: AUG-CC-PVTZ-JKFIT

    Orbital Energies [Eh]
    ---------------------

    Doubly Occupied:

       1A    -15.573657     2A    -15.566975     3A    -11.312941
       4A    -11.305704     5A    -11.304231     6A    -11.248363
       7A    -11.227309     8A    -11.217925     9A    -11.217230
      10A     -1.335816    11A     -1.213629    12A     -1.132085
      13A     -1.070457    14A     -0.911303    15A     -0.889504
      16A     -0.810708    17A     -0.795005    18A     -0.716071
      19A     -0.710701    20A     -0.648124    21A     -0.631924
      22A     -0.604936    23A     -0.594553    24A     -0.592659
      25A     -0.521708    26A     -0.505597    27A     -0.457570
      28A     -0.435931    29A     -0.434732    30A     -0.422545
      31A     -0.406185    32A     -0.360990

  @DF-RHF Final Energy:  -378.70877386460830

   => Energetics <=

    Nuclear Repulsion Energy =            414.0919777520674074
    One-Electron Energy =               -1333.2473672474577597
    Two-Electron Energy =                 540.4466156307821620
    Total Energy =                       -378.7087738646082471
  Basis Set: (AUG-CC-PVTZ AUX)
    Blend: AUG-CC-PVTZ-RI
    Molecular point group: c1

    Geometry (in Angstrom), charge = 0, multiplicity = 1:

       Center              X                  Y                   Z               Mass
    ------------   -----------------  -----------------  -----------------  -----------------
         N            0.172632228943     1.024465973928     0.000000859548    14.003074004430
         N            0.743047228943    -1.309203026072    -0.000002140452    14.003074004430
         C           -1.570314771057    -0.644095026072    -0.000003140452    12.000000000000
         C           -2.547259771057     0.238151973928     0.746382859548    12.000000000000
         C           -2.547259771057     0.238153973928    -0.746382140452    12.000000000000
         C            0.000963728943    -0.313398226072     0.000000859548    12.000000000000
         C            1.478060228943     1.329725973928     0.000000859548    12.000000000000
         C            2.042389228943    -0.970339026072     0.000002859548    12.000000000000
         C            2.471392228943     0.353747973928     0.000000859548    12.000000000000
         H           -1.754790771057    -1.713481026072     0.000000859548     1.007825032230
         H           -2.123180771057     1.103671973928     1.243834859548     1.007825032230
         H           -3.360766771057    -0.253229026072     1.270160859548     1.007825032230
         H           -3.360767771057    -0.253214026072    -1.270170140452     1.007825032230
         H           -2.123176771057     1.103677973928    -1.243824140452     1.007825032230
         H            1.724159228943     2.390609973928    -0.000007140452     1.007825032230
         H            2.752237228943    -1.796104026072    -0.000010140452     1.007825032230
         H            3.525248228943     0.612543973928    -0.000003140452     1.007825032230

  Basis Set: AUG-CC-PVTZ
    Blend: AUG-CC-PVTZ
  Basis Set: (AUG-CC-PVTZ AUX)
    Blend: AUG-CC-PVTZ-JKFIT
	 Reference Energy          =    -378.7087738646083039 [Eh]
	 Singles Energy            =      -0.0000000000000000 [Eh]
	 Same-Spin Energy          =      -0.4118754827896292 [Eh]
	 Opposite-Spin Energy      =      -1.2892634899565523 [Eh]
	 Correlation Energy        =      -1.7011389727461814 [Eh]
	 Total Energy              =    -380.4099128373545113 [Eh]

	 ================> DF-SCS-MP2 Energies <==================
	-----------------------------------------------------------
	 SCS Same-Spin Scale       =       0.3333333333333333 [-]
	 SCS Opposite-Spin Scale   =       1.2000000000000000 [-]
	 SCS Same-Spin Energy      =      -0.1372918275965430 [Eh]
	 SCS Opposite-Spin Energy  =      -1.5471161879478628 [Eh]
	 SCS Correlation Energy    =      -1.6844080155444059 [Eh]
	 SCS Total Energy          =    -380.3931818801527243 [Eh]
	-----------------------------------------------------------

  Dipole Moment: [D]
     X:     2.2982      Y:     0.6363      Z:    -0.0000     Total:     2.3846

*** Psi4 exiting successfully. Buy a developer a beer!
