                               Psi4 1.4a3.dev225

  ==> Input File <==

--------------------------------------------------------------------------
#psi4
#
memory 32 gb

molecule  {
0 1
  N        0.2222710     1.0128310     0.0000010
  N        0.7926860    -1.3208380    -0.0000020
  C       -1.5206760    -0.6557300    -0.0000030
  C       -2.4976210     0.2265170     0.7463830
  C       -2.4976210     0.2265190    -0.7463820
  C       -0.0883020    -0.2997600     0.0000010
  C        1.5763856     1.3294758     0.0000010
  C        2.0920280    -0.9819740     0.0000030
  C        2.5210310     0.3421130     0.0000010
  H       -1.7051520    -1.7251160     0.0000010
  H       -2.0735420     1.0920370     1.2438350
  H       -3.3111280    -0.2648640     1.2701610
  H       -3.3111290    -0.2648490    -1.2701700
  H       -2.0735380     1.0920430    -1.2438240
  H        1.7737980     2.3789750    -0.0000070
  H        2.8018760    -1.8077390    -0.0000100
  H        3.5748870     0.6009090    -0.0000030
units angstrom
no_reorient  #important for SAPT in psi4, default
symmetry c1  #important for SAPT in psi4, default
}

set PROPERTIES_ORIGIN ["COM"]
properties('MP2/aug-cc-pvtz', properties = ['dipole'])
--------------------------------------------------------------------------

    Molecular point group: c1
  Charge       = 0
  Multiplicity = 1
  Basis Set: AUG-CC-PVTZ
    Blend: AUG-CC-PVTZ
  Basis Set: (AUG-CC-PVTZ AUX)
    Blend: AUG-CC-PVTZ-JKFIT

    Orbital Energies [Eh]
    ---------------------

    Doubly Occupied:

       1A    -15.567956     2A    -15.567417     3A    -11.317719
       4A    -11.300605     5A    -11.298291     6A    -11.241754
       7A    -11.232993     8A    -11.227440     9A    -11.226755
      10A     -1.299012    11A     -1.177779    12A     -1.146917
      13A     -1.069361    14A     -0.910582    15A     -0.892548
      16A     -0.819978    17A     -0.801191    18A     -0.717540
      19A     -0.697669    20A     -0.656457    21A     -0.633037
      22A     -0.608730    23A     -0.591482    24A     -0.573506
      25A     -0.526781    26A     -0.513129    27A     -0.472793
      28A     -0.441664    29A     -0.426063    30A     -0.410587
      31A     -0.409560    32A     -0.351812

  @DF-RHF Final Energy:  -378.72534344806013

   => Energetics <=

    Nuclear Repulsion Energy =            412.7192332117296587
    One-Electron Energy =               -1330.6309340852910736
    Two-Electron Energy =                 539.1863574255012281
    Total Energy =                       -378.7253434480601300
  Basis Set: (AUG-CC-PVTZ AUX)
    Blend: AUG-CC-PVTZ-RI
    Molecular point group: c1

    Geometry (in Angstrom), charge = 0, multiplicity = 1:

       Center              X                  Y                   Z               Mass
    ------------   -----------------  -----------------  -----------------  -----------------
         N            0.181648853299     1.020802272871     0.000000859548    14.003074004430
         N            0.752063853299    -1.312866727129    -0.000002140452    14.003074004430
         C           -1.561298146701    -0.647758727129    -0.000003140452    12.000000000000
         C           -2.538243146701     0.234488272871     0.746382859548    12.000000000000
         C           -2.538243146701     0.234490272871    -0.746382140452    12.000000000000
         C           -0.128924146701    -0.291788727129     0.000000859548    12.000000000000
         C            1.535763453299     1.337447072871     0.000000859548    12.000000000000
         C            2.051405853299    -0.974002727129     0.000002859548    12.000000000000
         C            2.480408853299     0.350084272871     0.000000859548    12.000000000000
         H           -1.745774146701    -1.717144727129     0.000000859548     1.007825032230
         H           -2.114164146701     1.100008272871     1.243834859548     1.007825032230
         H           -3.351750146701    -0.256892727129     1.270160859548     1.007825032230
         H           -3.351751146701    -0.256877727129    -1.270170140452     1.007825032230
         H           -2.114160146701     1.100014272871    -1.243824140452     1.007825032230
         H            1.733175853299     2.386946272871    -0.000007140452     1.007825032230
         H            2.761253853299    -1.799767727129    -0.000010140452     1.007825032230
         H            3.534264853299     0.608880272871    -0.000003140452     1.007825032230

  Basis Set: AUG-CC-PVTZ
    Blend: AUG-CC-PVTZ
  Basis Set: (AUG-CC-PVTZ AUX)
    Blend: AUG-CC-PVTZ-JKFIT
	 Reference Energy          =    -378.7253434480601300 [Eh]
	 Singles Energy            =      -0.0000000000000000 [Eh]
	 Same-Spin Energy          =      -0.4136626932966085 [Eh]
	 Opposite-Spin Energy      =      -1.2919901598660177 [Eh]
	 Correlation Energy        =      -1.7056528531626263 [Eh]
	 Total Energy              =    -380.4309963012227627 [Eh]

	 ================> DF-SCS-MP2 Energies <==================
	-----------------------------------------------------------
	 SCS Same-Spin Scale       =       0.3333333333333333 [-]
	 SCS Opposite-Spin Scale   =       1.2000000000000000 [-]
	 SCS Same-Spin Energy      =      -0.1378875644322028 [Eh]
	 SCS Opposite-Spin Energy  =      -1.5503881918392213 [Eh]
	 SCS Correlation Energy    =      -1.6882757562714241 [Eh]
	 SCS Total Energy          =    -380.4136192043315532 [Eh]
	-----------------------------------------------------------

  Dipole Moment: [D]
     X:     1.5116      Y:     0.6031      Z:    -0.0000     Total:     1.6274

*** Psi4 exiting successfully. Buy a developer a beer!
