                               Psi4 1.3.2 release

  ==> Input File <==

--------------------------------------------------------------------------
#psi4
#
memory 32 gb

molecule  {
0 1
  N        0.2222710     1.0128310     0.0000010
  N        0.7926860    -1.3208380    -0.0000020
  C       -1.5206760    -0.6557300    -0.0000030
  C       -2.4976210     0.2265170     0.7463830
  C       -2.4976210     0.2265190    -0.7463820
  C       -0.0883020    -0.2997600     0.0000010
  C        1.6351581     1.4165760     0.0000004
  C        2.0920280    -0.9819740     0.0000030
  C        2.5210310     0.3421130     0.0000010
  H       -1.7051520    -1.7251160     0.0000010
  H       -2.0735420     1.0920370     1.2438350
  H       -3.3111280    -0.2648640     1.2701610
  H       -3.3111290    -0.2648490    -1.2701700
  H       -2.0735380     1.0920430    -1.2438240
  H        1.7737980     2.3789750    -0.0000070
  H        2.8018760    -1.8077390    -0.0000100
  H        3.5748870     0.6009090    -0.0000030
units angstrom
no_reorient  #important for SAPT in psi4, default
symmetry c1  #important for SAPT in psi4, default
}

set PROPERTIES_ORIGIN ["COM"]
properties('MP2/aug-cc-pvtz', properties = ['dipole'])
--------------------------------------------------------------------------

    Molecular point group: c1
  Charge       = 0
  Multiplicity = 1
  Basis Set: AUG-CC-PVTZ
    Blend: AUG-CC-PVTZ
  Basis Set: (AUG-CC-PVTZ AUX)
    Blend: AUG-CC-PVTZ-JKFIT

    Orbital Energies [Eh]
    ---------------------

    Doubly Occupied:

       1A    -15.569603     2A    -15.569548     3A    -11.315419
       4A    -11.303981     5A    -11.302284     6A    -11.249562
       7A    -11.231772     8A    -11.225629     9A    -11.224941
      10A     -1.289652    11A     -1.166679    12A     -1.141065
      13A     -1.067151    14A     -0.910763    15A     -0.899020
      16A     -0.818237    17A     -0.804236    18A     -0.721737
      19A     -0.692361    20A     -0.655767    21A     -0.630198
      22A     -0.626333    23A     -0.594607    24A     -0.566363
      25A     -0.526583    26A     -0.511292    27A     -0.462448
      28A     -0.439858    29A     -0.423528    30A     -0.407151
      31A     -0.400235    32A     -0.351426

  @DF-RHF Final Energy:  -378.69648684774114

   => Energetics <=

    Nuclear Repulsion Energy =            410.6697060284189433
    One-Electron Energy =               -1326.5335293771881879
    Two-Electron Energy =                 537.1673365010282168
    Total Energy =                       -378.6964868477410846
  Basis Set: (AUG-CC-PVTZ AUX)
    Blend: AUG-CC-PVTZ-RI
    Molecular point group: c1

    Geometry (in Angstrom), charge = 0, multiplicity = 1:

       Center              X                  Y                   Z               Mass
    ------------   -----------------  -----------------  -----------------  -----------------
         N            0.175774968460     1.012097240003     0.000000919514    14.003074004430
         N            0.746189968460    -1.321571759997    -0.000002080486    14.003074004430
         C           -1.567172031540    -0.656463759997    -0.000003080486    12.000000000000
         C           -2.544117031540     0.225783240003     0.746382919514    12.000000000000
         C           -2.544117031540     0.225785240003    -0.746382080486    12.000000000000
         C           -0.134798031540    -0.300493759997     0.000000919514    12.000000000000
         C            1.588662068460     1.415842240003     0.000000319514    12.000000000000
         C            2.045531968460    -0.982707759997     0.000002919514    12.000000000000
         C            2.474534968460     0.341379240003     0.000000919514    12.000000000000
         H           -1.751648031540    -1.725849759997     0.000000919514     1.007825032230
         H           -2.120038031540     1.091303240003     1.243834919514     1.007825032230
         H           -3.357624031540    -0.265597759997     1.270160919514     1.007825032230
         H           -3.357625031540    -0.265582759997    -1.270170080486     1.007825032230
         H           -2.120034031540     1.091309240003    -1.243824080486     1.007825032230
         H            1.727301968460     2.378241240003    -0.000007080486     1.007825032230
         H            2.755379968460    -1.808472759997    -0.000010080486     1.007825032230
         H            3.528390968460     0.600175240003    -0.000003080486     1.007825032230

  Basis Set: AUG-CC-PVTZ
    Blend: AUG-CC-PVTZ
  Basis Set: (AUG-CC-PVTZ AUX)
    Blend: AUG-CC-PVTZ-JKFIT
	 Reference Energy          =    -378.6964868477411414 [Eh]
	 Singles Energy            =      -0.0000000000000000 [Eh]
	 Same-Spin Energy          =      -0.4148588212502903 [Eh]
	 Opposite-Spin Energy      =      -1.2957868594702724 [Eh]
	 Correlation Energy        =      -1.7106456807205626 [Eh]
	 Total Energy              =    -380.4071325284617160 [Eh]

	 ================> DF-SCS-MP2 Energies <==================
	-----------------------------------------------------------
	 SCS Same-Spin Scale       =       0.3333333333333333 [-]
	 SCS Opposite-Spin Scale   =       1.2000000000000000 [-]
	 SCS Same-Spin Energy      =      -0.1382862737500967 [Eh]
	 SCS Opposite-Spin Energy  =      -1.5549442313643269 [Eh]
	 SCS Correlation Energy    =      -1.6932305051144236 [Eh]
	 SCS Total Energy          =    -380.3897173528555413 [Eh]
	-----------------------------------------------------------

  Dipole Moment: [D]
     X:     1.6162      Y:     0.6873      Z:    -0.0000     Total:     1.7563

*** Psi4 exiting successfully. Buy a developer a beer!
