                               Psi4 1.4a3.dev225

  ==> Input File <==

--------------------------------------------------------------------------
#psi4
#
memory 32 gb

molecule  {
0 1
  N        0.2222710     1.0128310     0.0000010
  N        0.7926860    -1.3208380    -0.0000020
  C       -1.5206760    -0.6557300    -0.0000030
  C       -2.4976210     0.2265170     0.7463830
  C       -2.4976210     0.2265190    -0.7463820
  C       -0.0883020    -0.2997600     0.0000010
  C        1.5276990     1.3180910     0.0000010
  C        2.0920280    -0.9819740     0.0000030
  C        2.5067648     0.3561300     0.0000010
  H       -1.7051520    -1.7251160     0.0000010
  H       -2.0735420     1.0920370     1.2438350
  H       -3.3111280    -0.2648640     1.2701610
  H       -3.3111290    -0.2648490    -1.2701700
  H       -2.0735380     1.0920430    -1.2438240
  H        1.7737980     2.3789750    -0.0000070
  H        2.8018760    -1.8077390    -0.0000100
  H        3.5748870     0.6009090    -0.0000030
units angstrom
no_reorient  #important for SAPT in psi4, default
symmetry c1  #important for SAPT in psi4, default
}

set PROPERTIES_ORIGIN ["COM"]
properties('MP2/aug-cc-pvtz', properties = ['dipole'])
--------------------------------------------------------------------------

    Molecular point group: c1
  Charge       = 0
  Multiplicity = 1
  Basis Set: AUG-CC-PVTZ
    Blend: AUG-CC-PVTZ
  Basis Set: (AUG-CC-PVTZ AUX)
    Blend: AUG-CC-PVTZ-JKFIT

    Orbital Energies [Eh]
    ---------------------

    Doubly Occupied:

       1A    -15.567532     2A    -15.565726     3A    -11.319561
       4A    -11.299689     5A    -11.295475     6A    -11.241665
       7A    -11.233893     8A    -11.228409     9A    -11.227725
      10A     -1.305648    11A     -1.186913    12A     -1.149100
      13A     -1.065117    14A     -0.912099    15A     -0.890173
      16A     -0.820944    17A     -0.802790    18A     -0.718107
      19A     -0.699233    20A     -0.654504    21A     -0.634277
      22A     -0.606094    23A     -0.589314    24A     -0.577481
      25A     -0.527105    26A     -0.514026    27A     -0.476045
      28A     -0.441792    29A     -0.427069    30A     -0.417742
      31A     -0.408025    32A     -0.348668

  @DF-RHF Final Energy:  -378.72964631306763

   => Energetics <=

    Nuclear Repulsion Energy =            413.6194925507691096
    One-Electron Energy =               -1332.3943972253007360
    Two-Electron Energy =                 540.0452583614639934
    Total Energy =                       -378.7296463130676329
  Basis Set: (AUG-CC-PVTZ AUX)
    Blend: AUG-CC-PVTZ-RI
    Molecular point group: c1

    Geometry (in Angstrom), charge = 0, multiplicity = 1:

       Center              X                  Y                   Z               Mass
    ------------   -----------------  -----------------  -----------------  -----------------
         N            0.187940528784     1.020539203584     0.000000859548    14.003074004430
         N            0.758355528784    -1.313129796416    -0.000002140452    14.003074004430
         C           -1.555006471216    -0.648021796416    -0.000003140452    12.000000000000
         C           -2.531951471216     0.234225203584     0.746382859548    12.000000000000
         C           -2.531951471216     0.234227203584    -0.746382140452    12.000000000000
         C           -0.122632471216    -0.292051796416     0.000000859548    12.000000000000
         C            1.493368528784     1.325799203584     0.000000859548    12.000000000000
         C            2.057697528784    -0.974265796416     0.000002859548    12.000000000000
         C            2.472434328784     0.363838203584     0.000000859548    12.000000000000
         H           -1.739482471216    -1.717407796416     0.000000859548     1.007825032230
         H           -2.107872471216     1.099745203584     1.243834859548     1.007825032230
         H           -3.345458471216    -0.257155796416     1.270160859548     1.007825032230
         H           -3.345459471216    -0.257140796416    -1.270170140452     1.007825032230
         H           -2.107868471216     1.099751203584    -1.243824140452     1.007825032230
         H            1.739467528784     2.386683203584    -0.000007140452     1.007825032230
         H            2.767545528784    -1.800030796416    -0.000010140452     1.007825032230
         H            3.540556528784     0.608617203584    -0.000003140452     1.007825032230

  Basis Set: AUG-CC-PVTZ
    Blend: AUG-CC-PVTZ
  Basis Set: (AUG-CC-PVTZ AUX)
    Blend: AUG-CC-PVTZ-JKFIT
	 Reference Energy          =    -378.7296463130676329 [Eh]
	 Singles Energy            =      -0.0000000000000000 [Eh]
	 Same-Spin Energy          =      -0.4133146824505135 [Eh]
	 Opposite-Spin Energy      =      -1.2907333155685707 [Eh]
	 Correlation Energy        =      -1.7040479980190844 [Eh]
	 Total Energy              =    -380.4336943110866969 [Eh]

	 ================> DF-SCS-MP2 Energies <==================
	-----------------------------------------------------------
	 SCS Same-Spin Scale       =       0.3333333333333333 [-]
	 SCS Opposite-Spin Scale   =       1.2000000000000000 [-]
	 SCS Same-Spin Energy      =      -0.1377715608168378 [Eh]
	 SCS Opposite-Spin Energy  =      -1.5488799786822849 [Eh]
	 SCS Correlation Energy    =      -1.6866515394991226 [Eh]
	 SCS Total Energy          =    -380.4162978525667427 [Eh]
	-----------------------------------------------------------

  Dipole Moment: [D]
     X:     1.4400      Y:     0.5776      Z:    -0.0000     Total:     1.5515

*** Psi4 exiting successfully. Buy a developer a beer!
