                               Psi4 1.3.2 release

  ==> Input File <==

--------------------------------------------------------------------------
#psi4
#
memory 32 gb

molecule  {
0 1
  N        0.2222710     1.0128310     0.0000010
  N        0.7926860    -1.3208380    -0.0000020
  C       -1.5206760    -0.6557300    -0.0000030
  C       -2.4976210     0.2265170     0.7463830
  C       -2.4976210     0.2265190    -0.7463820
  C       -0.1113273    -0.3970731     0.0000010
  C        1.5276990     1.3180910     0.0000010
  C        2.0920280    -0.9819740     0.0000030
  C        2.5210310     0.3421130     0.0000010
  H       -1.7051520    -1.7251160     0.0000010
  H       -2.0735420     1.0920370     1.2438350
  H       -3.3111280    -0.2648640     1.2701610
  H       -3.3111290    -0.2648490    -1.2701700
  H       -2.0735380     1.0920430    -1.2438240
  H        1.7737980     2.3789750    -0.0000070
  H        2.8018760    -1.8077390    -0.0000100
  H        3.5748870     0.6009090    -0.0000030
units angstrom
no_reorient  #important for SAPT in psi4, default
symmetry c1  #important for SAPT in psi4, default
}

set PROPERTIES_ORIGIN ["COM"]
properties('MP2/aug-cc-pvtz', properties = ['dipole'])
--------------------------------------------------------------------------

    Molecular point group: c1
  Charge       = 0
  Multiplicity = 1
  Basis Set: AUG-CC-PVTZ
    Blend: AUG-CC-PVTZ
  Basis Set: (AUG-CC-PVTZ AUX)
    Blend: AUG-CC-PVTZ-JKFIT

    Orbital Energies [Eh]
    ---------------------

    Doubly Occupied:

       1A    -15.567763     2A    -15.562242     3A    -11.321280
       4A    -11.297023     5A    -11.294200     6A    -11.240472
       7A    -11.234885     8A    -11.232784     9A    -11.232167
      10A     -1.300671    11A     -1.178161    12A     -1.153357
      13A     -1.062406    14A     -0.922466    15A     -0.882347
      16A     -0.824229    17A     -0.806196    18A     -0.714757
      19A     -0.701819    20A     -0.650144    21A     -0.640871
      22A     -0.608178    23A     -0.585757    24A     -0.573769
      25A     -0.528005    26A     -0.516938    27A     -0.476445
      28A     -0.447566    29A     -0.435162    30A     -0.414710
      31A     -0.395104    32A     -0.342879

  @DF-RHF Final Energy:  -378.71756066596981

   => Energetics <=

    Nuclear Repulsion Energy =            412.9647648415318031
    One-Electron Energy =               -1331.0751497556802860
    Two-Electron Energy =                 539.3928242481786128
    Total Energy =                       -378.7175606659698133
  Basis Set: (AUG-CC-PVTZ AUX)
    Blend: AUG-CC-PVTZ-RI
    Molecular point group: c1

    Geometry (in Angstrom), charge = 0, multiplicity = 1:

       Center              X                  Y                   Z               Mass
    ------------   -----------------  -----------------  -----------------  -----------------
         N            0.188815937260     1.031665839110     0.000000859548    14.003074004430
         N            0.759230937260    -1.302003160890    -0.000002140452    14.003074004430
         C           -1.554131062740    -0.636895160890    -0.000003140452    12.000000000000
         C           -2.531076062740     0.245351839110     0.746382859548    12.000000000000
         C           -2.531076062740     0.245353839110    -0.746382140452    12.000000000000
         C           -0.144782362740    -0.378238260890     0.000000859548    12.000000000000
         C            1.494243937260     1.336925839110     0.000000859548    12.000000000000
         C            2.058572937260    -0.963139160890     0.000002859548    12.000000000000
         C            2.487575937260     0.360947839110     0.000000859548    12.000000000000
         H           -1.738607062740    -1.706281160890     0.000000859548     1.007825032230
         H           -2.106997062740     1.110871839110     1.243834859548     1.007825032230
         H           -3.344583062740    -0.246029160890     1.270160859548     1.007825032230
         H           -3.344584062740    -0.246014160890    -1.270170140452     1.007825032230
         H           -2.106993062740     1.110877839110    -1.243824140452     1.007825032230
         H            1.740342937260     2.397809839110    -0.000007140452     1.007825032230
         H            2.768420937260    -1.788904160890    -0.000010140452     1.007825032230
         H            3.541431937260     0.619743839110    -0.000003140452     1.007825032230

  Basis Set: AUG-CC-PVTZ
    Blend: AUG-CC-PVTZ
  Basis Set: (AUG-CC-PVTZ AUX)
    Blend: AUG-CC-PVTZ-JKFIT
	 Reference Energy          =    -378.7175606659698133 [Eh]
	 Singles Energy            =      -0.0000000000000000 [Eh]
	 Same-Spin Energy          =      -0.4137825878538136 [Eh]
	 Opposite-Spin Energy      =      -1.2925319196373271 [Eh]
	 Correlation Energy        =      -1.7063145074911406 [Eh]
	 Total Energy              =    -380.4238751734609423 [Eh]

	 ================> DF-SCS-MP2 Energies <==================
	-----------------------------------------------------------
	 SCS Same-Spin Scale       =       0.3333333333333333 [-]
	 SCS Opposite-Spin Scale   =       1.2000000000000000 [-]
	 SCS Same-Spin Energy      =      -0.1379275292846045 [Eh]
	 SCS Opposite-Spin Energy  =      -1.5510383035647923 [Eh]
	 SCS Correlation Energy    =      -1.6889658328493968 [Eh]
	 SCS Total Energy          =    -380.4065264988192325 [Eh]
	-----------------------------------------------------------

  Dipole Moment: [D]
     X:     1.1358      Y:     0.5354      Z:    -0.0000     Total:     1.2556

*** Psi4 exiting successfully. Buy a developer a beer!
