                               Psi4 1.3.2 release

  ==> Input File <==

--------------------------------------------------------------------------
#psi4
#
memory 32 gb

molecule  {
0 1
  N        0.2613306     0.8780489     0.0000010
  N        0.7926860    -1.3208380    -0.0000020
  C       -1.5206760    -0.6557300    -0.0000030
  C       -2.4976210     0.2265170     0.7463830
  C       -2.4976210     0.2265190    -0.7463820
  C       -0.0883020    -0.2997600     0.0000010
  C        1.5276990     1.3180910     0.0000010
  C        2.0920280    -0.9819740     0.0000030
  C        2.5210310     0.3421130     0.0000010
  H       -1.7051520    -1.7251160     0.0000010
  H       -2.0735420     1.0920370     1.2438350
  H       -3.3111280    -0.2648640     1.2701610
  H       -3.3111290    -0.2648490    -1.2701700
  H       -2.0735380     1.0920430    -1.2438240
  H        1.7737980     2.3789750    -0.0000070
  H        2.8018760    -1.8077390    -0.0000100
  H        3.5748870     0.6009090    -0.0000030
units angstrom
no_reorient  #important for SAPT in psi4, default
symmetry c1  #important for SAPT in psi4, default
}

set PROPERTIES_ORIGIN ["COM"]
properties('MP2/aug-cc-pvtz', properties = ['dipole'])
--------------------------------------------------------------------------

    Molecular point group: c1
  Charge       = 0
  Multiplicity = 1
  Basis Set: AUG-CC-PVTZ
    Blend: AUG-CC-PVTZ
  Basis Set: (AUG-CC-PVTZ AUX)
    Blend: AUG-CC-PVTZ-JKFIT

    Orbital Energies [Eh]
    ---------------------

    Doubly Occupied:

       1A    -15.560730     2A    -15.547672     3A    -11.302468
       4A    -11.300047     5A    -11.294117     6A    -11.243954
       7A    -11.229316     8A    -11.225950     9A    -11.225294
      10A     -1.329510    11A     -1.185877    12A     -1.146556
      13A     -1.074081    14A     -0.908413    15A     -0.902214
      16A     -0.818883    17A     -0.805432    18A     -0.728364
      19A     -0.697463    20A     -0.661894    21A     -0.632690
      22A     -0.613059    23A     -0.590861    24A     -0.588895
      25A     -0.534260    26A     -0.512154    27A     -0.466655
      28A     -0.439743    29A     -0.422788    30A     -0.414472
      31A     -0.392163    32A     -0.354689

  @DF-RHF Final Energy:  -378.71768865956244

   => Energetics <=

    Nuclear Repulsion Energy =            416.5626341757562727
    One-Electron Energy =               -1338.2593149276242457
    Two-Electron Energy =                 542.9789920923054751
    Total Energy =                       -378.7176886595624410
  Basis Set: (AUG-CC-PVTZ AUX)
    Blend: AUG-CC-PVTZ-RI
    Molecular point group: c1

    Geometry (in Angstrom), charge = 0, multiplicity = 1:

       Center              X                  Y                   Z               Mass
    ------------   -----------------  -----------------  -----------------  -----------------
         N            0.221018981485     0.902877026548     0.000000859548    14.003074004430
         N            0.752374381485    -1.296009873452    -0.000002140452    14.003074004430
         C           -1.560987618515    -0.630901873452    -0.000003140452    12.000000000000
         C           -2.537932618515     0.251345126548     0.746382859548    12.000000000000
         C           -2.537932618515     0.251347126548    -0.746382140452    12.000000000000
         C           -0.128613618515    -0.274931873452     0.000000859548    12.000000000000
         C            1.487387381485     1.342919126548     0.000000859548    12.000000000000
         C            2.051716381485    -0.957145873452     0.000002859548    12.000000000000
         C            2.480719381485     0.366941126548     0.000000859548    12.000000000000
         H           -1.745463618515    -1.700287873452     0.000000859548     1.007825032230
         H           -2.113853618515     1.116865126548     1.243834859548     1.007825032230
         H           -3.351439618515    -0.240035873452     1.270160859548     1.007825032230
         H           -3.351440618515    -0.240020873452    -1.270170140452     1.007825032230
         H           -2.113849618515     1.116871126548    -1.243824140452     1.007825032230
         H            1.733486381485     2.403803126548    -0.000007140452     1.007825032230
         H            2.761564381485    -1.782910873452    -0.000010140452     1.007825032230
         H            3.534575381485     0.625737126548    -0.000003140452     1.007825032230

  Basis Set: AUG-CC-PVTZ
    Blend: AUG-CC-PVTZ
  Basis Set: (AUG-CC-PVTZ AUX)
    Blend: AUG-CC-PVTZ-JKFIT
	 Reference Energy          =    -378.7176886595624410 [Eh]
	 Singles Energy            =      -0.0000000000000000 [Eh]
	 Same-Spin Energy          =      -0.4127954735451753 [Eh]
	 Opposite-Spin Energy      =      -1.2885469230632696 [Eh]
	 Correlation Energy        =      -1.7013423966084449 [Eh]
	 Total Energy              =    -380.4190310561708657 [Eh]

	 ================> DF-SCS-MP2 Energies <==================
	-----------------------------------------------------------
	 SCS Same-Spin Scale       =       0.3333333333333333 [-]
	 SCS Opposite-Spin Scale   =       1.2000000000000000 [-]
	 SCS Same-Spin Energy      =      -0.1375984911817251 [Eh]
	 SCS Opposite-Spin Energy  =      -1.5462563076759235 [Eh]
	 SCS Correlation Energy    =      -1.6838547988576487 [Eh]
	 SCS Total Energy          =    -380.4015434584200648 [Eh]
	-----------------------------------------------------------

  Dipole Moment: [D]
     X:     1.5286      Y:     0.9110      Z:    -0.0000     Total:     1.7795

*** Psi4 exiting successfully. Buy a developer a beer!
