                               Psi4 1.3.2 release

  ==> Input File <==

--------------------------------------------------------------------------
#psi4
#
memory 32 gb

molecule  {
0 1
  N        0.2222710     1.0128310     0.0000010
  N        0.7926860    -1.3208380    -0.0000020
  C       -1.5206760    -0.6557300    -0.0000030
  C       -2.4976210     0.2265170     0.7463830
  C       -2.4976210     0.2265190    -0.7463820
  C       -0.0883020    -0.2997600     0.0000010
  C        1.5276990     1.3180910     0.0000010
  C        2.0920280    -0.9819740     0.0000030
  C        2.5923620     0.2720282     0.0000010
  H       -1.7051520    -1.7251160     0.0000010
  H       -2.0735420     1.0920370     1.2438350
  H       -3.3111280    -0.2648640     1.2701610
  H       -3.3111290    -0.2648490    -1.2701700
  H       -2.0735380     1.0920430    -1.2438240
  H        1.7737980     2.3789750    -0.0000070
  H        2.8018760    -1.8077390    -0.0000100
  H        3.5748870     0.6009090    -0.0000030
units angstrom
no_reorient  #important for SAPT in psi4, default
symmetry c1  #important for SAPT in psi4, default
}

set PROPERTIES_ORIGIN ["COM"]
properties('MP2/aug-cc-pvtz', properties = ['dipole'])
--------------------------------------------------------------------------

    Molecular point group: c1
  Charge       = 0
  Multiplicity = 1
  Basis Set: AUG-CC-PVTZ
    Blend: AUG-CC-PVTZ
  Basis Set: (AUG-CC-PVTZ AUX)
    Blend: AUG-CC-PVTZ-JKFIT

    Orbital Energies [Eh]
    ---------------------

    Doubly Occupied:

       1A    -15.571347     2A    -15.563388     3A    -11.321576
       4A    -11.313539     5A    -11.287702     6A    -11.243084
       7A    -11.234990     8A    -11.229624     9A    -11.228941
      10A     -1.303584    11A     -1.186595    12A     -1.149070
      13A     -1.062136    14A     -0.913588    15A     -0.887091
      16A     -0.822159    17A     -0.802006    18A     -0.719057
      19A     -0.693048    20A     -0.670476    21A     -0.638130
      22A     -0.611046    23A     -0.575184    24A     -0.574079
      25A     -0.527572    26A     -0.515095    27A     -0.480588
      28A     -0.440510    29A     -0.427709    30A     -0.419288
      31A     -0.405380    32A     -0.346325

  @DF-RHF Final Energy:  -378.71874105312048

   => Energetics <=

    Nuclear Repulsion Energy =            412.3528270009353491
    One-Electron Energy =               -1329.8153251109033590
    Two-Electron Energy =                 538.7437570568475849
    Total Energy =                       -378.7187410531204250
  Basis Set: (AUG-CC-PVTZ AUX)
    Blend: AUG-CC-PVTZ-RI
    Molecular point group: c1

    Geometry (in Angstrom), charge = 0, multiplicity = 1:

       Center              X                  Y                   Z               Mass
    ------------   -----------------  -----------------  -----------------  -----------------
         N            0.179385709858     1.028944568132     0.000000859548    14.003074004430
         N            0.749800709858    -1.304724431868    -0.000002140452    14.003074004430
         C           -1.563561290142    -0.639616431868    -0.000003140452    12.000000000000
         C           -2.540506290142     0.242630568132     0.746382859548    12.000000000000
         C           -2.540506290142     0.242632568132    -0.746382140452    12.000000000000
         C           -0.131187290142    -0.283646431868     0.000000859548    12.000000000000
         C            1.484813709858     1.334204568132     0.000000859548    12.000000000000
         C            2.049142709858    -0.965860431868     0.000002859548    12.000000000000
         C            2.549476709858     0.288141768132     0.000000859548    12.000000000000
         H           -1.748037290142    -1.709002431868     0.000000859548     1.007825032230
         H           -2.116427290142     1.108150568132     1.243834859548     1.007825032230
         H           -3.354013290142    -0.248750431868     1.270160859548     1.007825032230
         H           -3.354014290142    -0.248735431868    -1.270170140452     1.007825032230
         H           -2.116423290142     1.108156568132    -1.243824140452     1.007825032230
         H            1.730912709858     2.395088568132    -0.000007140452     1.007825032230
         H            2.758990709858    -1.791625431868    -0.000010140452     1.007825032230
         H            3.532001709858     0.617022568132    -0.000003140452     1.007825032230

  Basis Set: AUG-CC-PVTZ
    Blend: AUG-CC-PVTZ
  Basis Set: (AUG-CC-PVTZ AUX)
    Blend: AUG-CC-PVTZ-JKFIT
	 Reference Energy          =    -378.7187410531204819 [Eh]
	 Singles Energy            =      -0.0000000000000000 [Eh]
	 Same-Spin Energy          =      -0.4128590224790352 [Eh]
	 Opposite-Spin Energy      =      -1.2910936444905046 [Eh]
	 Correlation Energy        =      -1.7039526669695397 [Eh]
	 Total Energy              =    -380.4226937200900238 [Eh]

	 ================> DF-SCS-MP2 Energies <==================
	-----------------------------------------------------------
	 SCS Same-Spin Scale       =       0.3333333333333333 [-]
	 SCS Opposite-Spin Scale   =       1.2000000000000000 [-]
	 SCS Same-Spin Energy      =      -0.1376196741596784 [Eh]
	 SCS Opposite-Spin Energy  =      -1.5493123733886054 [Eh]
	 SCS Correlation Energy    =      -1.6869320475482839 [Eh]
	 SCS Total Energy          =    -380.4056731006687642 [Eh]
	-----------------------------------------------------------

  Dipole Moment: [D]
     X:     1.3597      Y:     0.7624      Z:    -0.0000     Total:     1.5589

*** Psi4 exiting successfully. Buy a developer a beer!
