                               Psi4 1.3.2 release

  ==> Input File <==

--------------------------------------------------------------------------
#psi4
#
memory 32 gb

molecule  {
0 1
  N        0.2222710     1.0128310     0.0000010
  N        0.7926860    -1.3208380    -0.0000020
  C       -1.5206760    -0.6557300    -0.0000030
  C       -2.4573411     0.2576715     0.7604110
  C       -2.4976210     0.2265190    -0.7463820
  C       -0.0883020    -0.2997600     0.0000010
  C        1.5276990     1.3180910     0.0000010
  C        2.0920280    -0.9819740     0.0000030
  C        2.5210310     0.3421130     0.0000010
  H       -1.7051520    -1.7251160     0.0000010
  H       -2.0735420     1.0920370     1.2438350
  H       -3.3111280    -0.2648640     1.2701610
  H       -3.3111290    -0.2648490    -1.2701700
  H       -2.0735380     1.0920430    -1.2438240
  H        1.7737980     2.3789750    -0.0000070
  H        2.8018760    -1.8077390    -0.0000100
  H        3.5748870     0.6009090    -0.0000030
units angstrom
no_reorient  #important for SAPT in psi4, default
symmetry c1  #important for SAPT in psi4, default
}

set PROPERTIES_ORIGIN ["COM"]
properties('MP2/aug-cc-pvtz', properties = ['dipole'])
--------------------------------------------------------------------------

    Molecular point group: c1
  Charge       = 0
  Multiplicity = 1
  Basis Set: AUG-CC-PVTZ
    Blend: AUG-CC-PVTZ
  Basis Set: (AUG-CC-PVTZ AUX)
    Blend: AUG-CC-PVTZ-JKFIT

    Orbital Energies [Eh]
    ---------------------

    Doubly Occupied:

       1A    -15.566701     2A    -15.566678     3A    -11.319606
       4A    -11.299048     5A    -11.297620     6A    -11.241886
       7A    -11.235205     8A    -11.228966     9A    -11.228284
      10A     -1.305358    11A     -1.186861    12A     -1.147543
      13A     -1.063673    14A     -0.910971    15A     -0.890404
      16A     -0.823619    17A     -0.803057    18A     -0.719175
      19A     -0.698344    20A     -0.655855    21A     -0.632080
      22A     -0.609405    23A     -0.587200    24A     -0.576772
      25A     -0.528442    26A     -0.515994    27A     -0.476972
      28A     -0.443624    29A     -0.422445    30A     -0.418004
      31A     -0.407787    32A     -0.348406

  @DF-RHF Final Energy:  -378.72681685375721

   => Energetics <=

    Nuclear Repulsion Energy =            413.6065129666972666
    One-Electron Energy =               -1332.3546875076781362
    Two-Electron Energy =                 540.0213576872237127
    Total Energy =                       -378.7268168537572137
  Basis Set: (AUG-CC-PVTZ AUX)
    Blend: AUG-CC-PVTZ-RI
    Molecular point group: c1

    Geometry (in Angstrom), charge = 0, multiplicity = 1:

       Center              X                  Y                   Z               Mass
    ------------   -----------------  -----------------  -----------------  -----------------
         N            0.182489041953     1.018826434833    -0.001401137245    14.003074004430
         N            0.752904041953    -1.314842565167    -0.001404137245    14.003074004430
         C           -1.560457958047    -0.649734565167    -0.001405137245    12.000000000000
         C           -2.497123058047     0.263666934833     0.759008862755    12.000000000000
         C           -2.537402958047     0.232514434833    -0.747784137245    12.000000000000
         C           -0.128083958047    -0.293764565167    -0.001401137245    12.000000000000
         C            1.487917041953     1.324086434833    -0.001401137245    12.000000000000
         C            2.052246041953    -0.975978565167    -0.001399137245    12.000000000000
         C            2.481249041953     0.348108434833    -0.001401137245    12.000000000000
         H           -1.744933958047    -1.719120565167    -0.001401137245     1.007825032230
         H           -2.113323958047     1.098032434833     1.242432862755     1.007825032230
         H           -3.350909958047    -0.258868565167     1.268758862755     1.007825032230
         H           -3.350910958047    -0.258853565167    -1.271572137245     1.007825032230
         H           -2.113319958047     1.098038434833    -1.245226137245     1.007825032230
         H            1.734016041953     2.384970434833    -0.001409137245     1.007825032230
         H            2.762094041953    -1.801743565167    -0.001412137245     1.007825032230
         H            3.535105041953     0.606904434833    -0.001405137245     1.007825032230

  Basis Set: AUG-CC-PVTZ
    Blend: AUG-CC-PVTZ
  Basis Set: (AUG-CC-PVTZ AUX)
    Blend: AUG-CC-PVTZ-JKFIT
	 Reference Energy          =    -378.7268168537572137 [Eh]
	 Singles Energy            =      -0.0000000000000000 [Eh]
	 Same-Spin Energy          =      -0.4132334307954364 [Eh]
	 Opposite-Spin Energy      =      -1.2909287315179272 [Eh]
	 Correlation Energy        =      -1.7041621623133636 [Eh]
	 Total Energy              =    -380.4309790160705802 [Eh]

	 ================> DF-SCS-MP2 Energies <==================
	-----------------------------------------------------------
	 SCS Same-Spin Scale       =       0.3333333333333333 [-]
	 SCS Opposite-Spin Scale   =       1.2000000000000000 [-]
	 SCS Same-Spin Energy      =      -0.1377444769318121 [Eh]
	 SCS Opposite-Spin Energy  =      -1.5491144778215127 [Eh]
	 SCS Correlation Energy    =      -1.6868589547533248 [Eh]
	 SCS Total Energy          =    -380.4136758085105612 [Eh]
	-----------------------------------------------------------

  Dipole Moment: [D]
     X:     1.4477      Y:     0.6108      Z:    -0.0161     Total:     1.5714

*** Psi4 exiting successfully. Buy a developer a beer!
