                               Psi4 1.3.2 release

  ==> Input File <==

--------------------------------------------------------------------------
#psi4
#
memory 32 gb

molecule  {
0 1
  N        0.2222710     1.0128310     0.0000010
  N        0.7926860    -1.3208380    -0.0000020
  C       -1.5206760    -0.6557300    -0.0000030
  C       -2.4976210     0.2265170     0.7463830
  C       -2.4976210     0.2265190    -0.7463820
  C       -0.0883020    -0.2997600     0.0000010
  C        1.4942430     1.2828297     0.0000012
  C        2.0920280    -0.9819740     0.0000030
  C        2.5210310     0.3421130     0.0000010
  H       -1.7051520    -1.7251160     0.0000010
  H       -2.0735420     1.0920370     1.2438350
  H       -3.3111280    -0.2648640     1.2701610
  H       -3.3111290    -0.2648490    -1.2701700
  H       -2.0735380     1.0920430    -1.2438240
  H        1.7737980     2.3789750    -0.0000070
  H        2.8018760    -1.8077390    -0.0000100
  H        3.5748870     0.6009090    -0.0000030
units angstrom
no_reorient  #important for SAPT in psi4, default
symmetry c1  #important for SAPT in psi4, default
}

set PROPERTIES_ORIGIN ["COM"]
properties('MP2/aug-cc-pvtz', properties = ['dipole'])
--------------------------------------------------------------------------

    Molecular point group: c1
  Charge       = 0
  Multiplicity = 1
  Basis Set: AUG-CC-PVTZ
    Blend: AUG-CC-PVTZ
  Basis Set: (AUG-CC-PVTZ AUX)
    Blend: AUG-CC-PVTZ-JKFIT

    Orbital Energies [Eh]
    ---------------------

    Doubly Occupied:

       1A    -15.566375     2A    -15.565617     3A    -11.321675
       4A    -11.297564     5A    -11.296369     6A    -11.240421
       7A    -11.235029     8A    -11.229781     9A    -11.229099
      10A     -1.313566    11A     -1.194798    12A     -1.150983
      13A     -1.063854    14A     -0.915104    15A     -0.886172
      16A     -0.822294    17A     -0.804073    18A     -0.716769
      19A     -0.701527    20A     -0.657020    21A     -0.637283
      22A     -0.603760    23A     -0.582039    24A     -0.579515
      25A     -0.526283    26A     -0.515373    27A     -0.482126
      28A     -0.442727    29A     -0.428408    30A     -0.424015
      31A     -0.406328    32A     -0.347454

  @DF-RHF Final Energy:  -378.72878326327350

   => Energetics <=

    Nuclear Repulsion Energy =            414.3826435947092364
    One-Electron Energy =               -1333.8560476067336822
    Two-Electron Energy =                 540.7446207487510037
    Total Energy =                       -378.7287832632734990
  Basis Set: (AUG-CC-PVTZ AUX)
    Blend: AUG-CC-PVTZ-RI
    Molecular point group: c1

    Geometry (in Angstrom), charge = 0, multiplicity = 1:

       Center              X                  Y                   Z               Mass
    ------------   -----------------  -----------------  -----------------  -----------------
         N            0.189858410025     1.025464212035     0.000000839559    14.003074004430
         N            0.760273410025    -1.308204787965    -0.000002160441    14.003074004430
         C           -1.553088589975    -0.643096787965    -0.000003160441    12.000000000000
         C           -2.530033589975     0.239150212035     0.746382839559    12.000000000000
         C           -2.530033589975     0.239152212035    -0.746382160441    12.000000000000
         C           -0.120714589975    -0.287126787965     0.000000839559    12.000000000000
         C            1.461830410025     1.295462912035     0.000001039559    12.000000000000
         C            2.059615410025    -0.969340787965     0.000002839559    12.000000000000
         C            2.488618410025     0.354746212035     0.000000839559    12.000000000000
         H           -1.737564589975    -1.712482787965     0.000000839559     1.007825032230
         H           -2.105954589975     1.104670212035     1.243834839559     1.007825032230
         H           -3.343540589975    -0.252230787965     1.270160839559     1.007825032230
         H           -3.343541589975    -0.252215787965    -1.270170160441     1.007825032230
         H           -2.105950589975     1.104676212035    -1.243824160441     1.007825032230
         H            1.741385410025     2.391608212035    -0.000007160441     1.007825032230
         H            2.769463410025    -1.795105787965    -0.000010160441     1.007825032230
         H            3.542474410025     0.613542212035    -0.000003160441     1.007825032230

  Basis Set: AUG-CC-PVTZ
    Blend: AUG-CC-PVTZ
  Basis Set: (AUG-CC-PVTZ AUX)
    Blend: AUG-CC-PVTZ-JKFIT
	 Reference Energy          =    -378.7287832632734990 [Eh]
	 Singles Energy            =      -0.0000000000000000 [Eh]
	 Same-Spin Energy          =      -0.4128959588914418 [Eh]
	 Opposite-Spin Energy      =      -1.2897899823288599 [Eh]
	 Correlation Energy        =      -1.7026859412203017 [Eh]
	 Total Energy              =    -380.4314692044937942 [Eh]

	 ================> DF-SCS-MP2 Energies <==================
	-----------------------------------------------------------
	 SCS Same-Spin Scale       =       0.3333333333333333 [-]
	 SCS Opposite-Spin Scale   =       1.2000000000000000 [-]
	 SCS Same-Spin Energy      =      -0.1376319862971473 [Eh]
	 SCS Opposite-Spin Energy  =      -1.5477479787946318 [Eh]
	 SCS Correlation Energy    =      -1.6853799650917791 [Eh]
	 SCS Total Energy          =    -380.4141632283652825 [Eh]
	-----------------------------------------------------------

  Dipole Moment: [D]
     X:     1.3471      Y:     0.5457      Z:    -0.0000     Total:     1.4534

*** Psi4 exiting successfully. Buy a developer a beer!
