                               Psi4 1.3.2 release

  ==> Input File <==

--------------------------------------------------------------------------
#psi4
#
memory 32 gb

molecule  {
0 1
  N        0.2222710     1.0128310     0.0000010
  N        0.7926860    -1.3208380    -0.0000020
  C       -1.5206760    -0.6557300    -0.0000030
  C       -2.4976210     0.2265170     0.7463830
  C       -2.4976210     0.2265190    -0.7463820
  C       -0.0883020    -0.2997600     0.0000010
  C        1.5276990     1.3180910     0.0000010
  C        2.0920280    -0.9819740     0.0000030
  C        2.5038465     0.3249256     0.0000012
  H       -1.7051520    -1.7251160     0.0000010
  H       -2.0735420     1.0920370     1.2438350
  H       -3.3111280    -0.2648640     1.2701610
  H       -3.3111290    -0.2648490    -1.2701700
  H       -2.0735380     1.0920430    -1.2438240
  H        1.7737980     2.3789750    -0.0000070
  H        2.8018760    -1.8077390    -0.0000100
  H        3.5748870     0.6009090    -0.0000030
units angstrom
no_reorient  #important for SAPT in psi4, default
symmetry c1  #important for SAPT in psi4, default
}

set PROPERTIES_ORIGIN ["COM"]
properties('MP2/aug-cc-pvtz', properties = ['dipole'])
--------------------------------------------------------------------------

    Molecular point group: c1
  Charge       = 0
  Multiplicity = 1
  Basis Set: AUG-CC-PVTZ
    Blend: AUG-CC-PVTZ
  Basis Set: (AUG-CC-PVTZ AUX)
    Blend: AUG-CC-PVTZ-JKFIT

    Orbital Energies [Eh]
    ---------------------

    Doubly Occupied:

       1A    -15.567239     2A    -15.565980     3A    -11.319242
       4A    -11.299746     5A    -11.294205     6A    -11.241486
       7A    -11.233817     8A    -11.228372     9A    -11.227689
      10A     -1.306117    11A     -1.187137    12A     -1.149108
      13A     -1.066062    14A     -0.910169    15A     -0.892836
      16A     -0.820968    17A     -0.802429    18A     -0.718981
      19A     -0.698774    20A     -0.655324    21A     -0.631212
      22A     -0.606344    23A     -0.590631    24A     -0.577954
      25A     -0.527083    26A     -0.514131    27A     -0.475162
      28A     -0.441994    29A     -0.426804    30A     -0.417962
      31A     -0.408415    32A     -0.349130

  @DF-RHF Final Energy:  -378.72940046756025

   => Energetics <=

    Nuclear Repulsion Energy =            413.8155490378608761
    One-Electron Energy =               -1332.7848824627828890
    Two-Electron Energy =                 540.2399329573618161
    Total Energy =                       -378.7294004675602537
  Basis Set: (AUG-CC-PVTZ AUX)
    Blend: AUG-CC-PVTZ-RI
    Molecular point group: c1

    Geometry (in Angstrom), charge = 0, multiplicity = 1:

       Center              X                  Y                   Z               Mass
    ------------   -----------------  -----------------  -----------------  -----------------
         N            0.188232191689     1.023657856900     0.000000839559    14.003074004430
         N            0.758647191689    -1.310011143100    -0.000002160441    14.003074004430
         C           -1.554714808311    -0.644903143100    -0.000003160441    12.000000000000
         C           -2.531659808311     0.237343856900     0.746382839559    12.000000000000
         C           -2.531659808311     0.237345856900    -0.746382160441    12.000000000000
         C           -0.122340808311    -0.288933143100     0.000000839559    12.000000000000
         C            1.493660191689     1.328917856900     0.000000839559    12.000000000000
         C            2.057989191689    -0.971147143100     0.000002839559    12.000000000000
         C            2.469807691689     0.335752456900     0.000001039559    12.000000000000
         H           -1.739190808311    -1.714289143100     0.000000839559     1.007825032230
         H           -2.107580808311     1.102863856900     1.243834839559     1.007825032230
         H           -3.345166808311    -0.254037143100     1.270160839559     1.007825032230
         H           -3.345167808311    -0.254022143100    -1.270170160441     1.007825032230
         H           -2.107576808311     1.102869856900    -1.243824160441     1.007825032230
         H            1.739759191689     2.389801856900    -0.000007160441     1.007825032230
         H            2.767837191689    -1.796912143100    -0.000010160441     1.007825032230
         H            3.540848191689     0.611735856900    -0.000003160441     1.007825032230

  Basis Set: AUG-CC-PVTZ
    Blend: AUG-CC-PVTZ
  Basis Set: (AUG-CC-PVTZ AUX)
    Blend: AUG-CC-PVTZ-JKFIT
	 Reference Energy          =    -378.7294004675602537 [Eh]
	 Singles Energy            =      -0.0000000000000000 [Eh]
	 Same-Spin Energy          =      -0.4133601049756128 [Eh]
	 Opposite-Spin Energy      =      -1.2907648419106015 [Eh]
	 Correlation Energy        =      -1.7041249468862143 [Eh]
	 Total Energy              =    -380.4335254144464784 [Eh]

	 ================> DF-SCS-MP2 Energies <==================
	-----------------------------------------------------------
	 SCS Same-Spin Scale       =       0.3333333333333333 [-]
	 SCS Opposite-Spin Scale   =       1.2000000000000000 [-]
	 SCS Same-Spin Energy      =      -0.1377867016585376 [Eh]
	 SCS Opposite-Spin Energy  =      -1.5489178102927217 [Eh]
	 SCS Correlation Energy    =      -1.6867045119512594 [Eh]
	 SCS Total Energy          =    -380.4161049795114877 [Eh]
	-----------------------------------------------------------

  Dipole Moment: [D]
     X:     1.4289      Y:     0.6314      Z:    -0.0000     Total:     1.5622

*** Psi4 exiting successfully. Buy a developer a beer!
