                               Psi4 1.3.2 release

  ==> Input File <==

--------------------------------------------------------------------------
#psi4
#
memory 32 gb

molecule  {
0 1
  N        0.2222710     1.0128310     0.0000010
  N        0.7926860    -1.3208380    -0.0000020
  C       -1.5206760    -0.6557300    -0.0000030
  C       -2.4976210     0.2265170     0.7463830
  C       -2.4976210     0.2265190    -0.7463820
  C       -0.1333577    -0.1519862     0.0000002
  C        1.5276990     1.3180910     0.0000010
  C        2.0920280    -0.9819740     0.0000030
  C        2.5210310     0.3421130     0.0000010
  H       -1.7051520    -1.7251160     0.0000010
  H       -2.0735420     1.0920370     1.2438350
  H       -3.3111280    -0.2648640     1.2701610
  H       -3.3111290    -0.2648490    -1.2701700
  H       -2.0735380     1.0920430    -1.2438240
  H        1.7737980     2.3789750    -0.0000070
  H        2.8018760    -1.8077390    -0.0000100
  H        3.5748870     0.6009090    -0.0000030
units angstrom
no_reorient  #important for SAPT in psi4, default
symmetry c1  #important for SAPT in psi4, default
}

set PROPERTIES_ORIGIN ["COM"]
properties('MP2/aug-cc-pvtz', properties = ['dipole'])
--------------------------------------------------------------------------

    Molecular point group: c1
  Charge       = 0
  Multiplicity = 1
  Basis Set: AUG-CC-PVTZ
    Blend: AUG-CC-PVTZ
  Basis Set: (AUG-CC-PVTZ AUX)
    Blend: AUG-CC-PVTZ-JKFIT

    Orbital Energies [Eh]
    ---------------------

    Doubly Occupied:

       1A    -15.569712     2A    -15.558820     3A    -11.315953
       4A    -11.301117     5A    -11.292366     6A    -11.243271
       7A    -11.235572     8A    -11.228556     9A    -11.227862
      10A     -1.321346    11A     -1.180594    12A     -1.152176
      13A     -1.063380    14A     -0.910954    15A     -0.893048
      16A     -0.822548    17A     -0.797482    18A     -0.725096
      19A     -0.688821    20A     -0.668385    21A     -0.631837
      22A     -0.599809    23A     -0.588225    24A     -0.584240
      25A     -0.536414    26A     -0.515012    27A     -0.480858
      28A     -0.444426    29A     -0.422940    30A     -0.420159
      31A     -0.394040    32A     -0.346008

  @DF-RHF Final Energy:  -378.70255303190885

   => Energetics <=

    Nuclear Repulsion Energy =            413.9677873533925663
    One-Electron Energy =               -1333.0186300820537326
    Two-Electron Energy =                 540.3482896967523175
    Total Energy =                       -378.7025530319087920
  Basis Set: (AUG-CC-PVTZ AUX)
    Blend: AUG-CC-PVTZ-RI
    Molecular point group: c1

    Geometry (in Angstrom), charge = 0, multiplicity = 1:

       Center              X                  Y                   Z               Mass
    ------------   -----------------  -----------------  -----------------  -----------------
         N            0.191017715856     1.007171182153     0.000000939502    14.003074004430
         N            0.761432715856    -1.326497817847    -0.000002060498    14.003074004430
         C           -1.551929284144    -0.661389817847    -0.000003060498    12.000000000000
         C           -2.528874284144     0.220857182153     0.746382939502    12.000000000000
         C           -2.528874284144     0.220859182153    -0.746382060498    12.000000000000
         C           -0.164610984144    -0.157646017847     0.000000139502    12.000000000000
         C            1.496445715856     1.312431182153     0.000000939502    12.000000000000
         C            2.060774715856    -0.987633817847     0.000002939502    12.000000000000
         C            2.489777715856     0.336453182153     0.000000939502    12.000000000000
         H           -1.736405284144    -1.730775817847     0.000000939502     1.007825032230
         H           -2.104795284144     1.086377182153     1.243834939502     1.007825032230
         H           -3.342381284144    -0.270523817847     1.270160939502     1.007825032230
         H           -3.342382284144    -0.270508817847    -1.270170060498     1.007825032230
         H           -2.104791284144     1.086383182153    -1.243824060498     1.007825032230
         H            1.742544715856     2.373315182153    -0.000007060498     1.007825032230
         H            2.770622715856    -1.813398817847    -0.000010060498     1.007825032230
         H            3.543633715856     0.595249182153    -0.000003060498     1.007825032230

  Basis Set: AUG-CC-PVTZ
    Blend: AUG-CC-PVTZ
  Basis Set: (AUG-CC-PVTZ AUX)
    Blend: AUG-CC-PVTZ-JKFIT
	 Reference Energy          =    -378.7025530319088489 [Eh]
	 Singles Energy            =      -0.0000000000000000 [Eh]
	 Same-Spin Energy          =      -0.4132664321037431 [Eh]
	 Opposite-Spin Energy      =      -1.2927460230175942 [Eh]
	 Correlation Energy        =      -1.7060124551213374 [Eh]
	 Total Energy              =    -380.4085654870301596 [Eh]

	 ================> DF-SCS-MP2 Energies <==================
	-----------------------------------------------------------
	 SCS Same-Spin Scale       =       0.3333333333333333 [-]
	 SCS Opposite-Spin Scale   =       1.2000000000000000 [-]
	 SCS Same-Spin Energy      =      -0.1377554773679144 [Eh]
	 SCS Opposite-Spin Energy  =      -1.5512952276211129 [Eh]
	 SCS Correlation Energy    =      -1.6890507049890273 [Eh]
	 SCS Total Energy          =    -380.3916037368978778 [Eh]
	-----------------------------------------------------------

  Dipole Moment: [D]
     X:     1.3014      Y:     0.7053      Z:    -0.0000     Total:     1.4802

*** Psi4 exiting successfully. Buy a developer a beer!
