                               Psi4 1.4a3.dev225

  ==> Input File <==

--------------------------------------------------------------------------
#psi4
#
memory 32 gb

molecule  {
0 1
  N        0.2222710     1.0128310     0.0000010
  N        0.7926860    -1.3208380    -0.0000020
  C       -1.5206760    -0.6557300    -0.0000030
  C       -2.4976210     0.2265170     0.7463830
  C       -2.4976210     0.2265190    -0.7463820
  C       -0.0397780    -0.2877009     0.0000011
  C        1.5276990     1.3180910     0.0000010
  C        2.0920280    -0.9819740     0.0000030
  C        2.5210310     0.3421130     0.0000010
  H       -1.7051520    -1.7251160     0.0000010
  H       -2.0735420     1.0920370     1.2438350
  H       -3.3111280    -0.2648640     1.2701610
  H       -3.3111290    -0.2648490    -1.2701700
  H       -2.0735380     1.0920430    -1.2438240
  H        1.7737980     2.3789750    -0.0000070
  H        2.8018760    -1.8077390    -0.0000100
  H        3.5748870     0.6009090    -0.0000030
units angstrom
no_reorient  #important for SAPT in psi4, default
symmetry c1  #important for SAPT in psi4, default
}

set PROPERTIES_ORIGIN ["COM"]
properties('MP2/aug-cc-pvtz', properties = ['dipole'])
--------------------------------------------------------------------------

    Molecular point group: c1
  Charge       = 0
  Multiplicity = 1
  Basis Set: AUG-CC-PVTZ
    Blend: AUG-CC-PVTZ
  Basis Set: (AUG-CC-PVTZ AUX)
    Blend: AUG-CC-PVTZ-JKFIT

    Orbital Energies [Eh]
    ---------------------

    Doubly Occupied:

       1A    -15.568168     2A    -15.568094     3A    -11.316968
       4A    -11.301523     5A    -11.300213     6A    -11.244407
       7A    -11.232127     8A    -11.224247     9A    -11.223553
      10A     -1.315648    11A     -1.197016    12A     -1.142384
      13A     -1.066832    14A     -0.904934    15A     -0.895863
      16A     -0.817085    17A     -0.799752    18A     -0.718170
      19A     -0.701460    20A     -0.654462    21A     -0.633155
      22A     -0.606375    23A     -0.589694    24A     -0.582931
      25A     -0.522804    26A     -0.510881    27A     -0.473554
      28A     -0.435578    29A     -0.423791    30A     -0.422071
      31A     -0.414872    32A     -0.353711

  @DF-RHF Final Energy:  -378.72905777528717

   => Energetics <=

    Nuclear Repulsion Energy =            413.6847682419730745
    One-Electron Energy =               -1332.5030099036341653
    Two-Electron Energy =                 540.0891838863739167
    Total Energy =                       -378.7290577752871741
  Basis Set: (AUG-CC-PVTZ AUX)
    Blend: AUG-CC-PVTZ-RI
    Molecular point group: c1

    Geometry (in Angstrom), charge = 0, multiplicity = 1:

       Center              X                  Y                   Z               Mass
    ------------   -----------------  -----------------  -----------------  -----------------
         N            0.181665103988     1.020734881479     0.000000849554    14.003074004430
         N            0.752080103988    -1.312934118521    -0.000002150446    14.003074004430
         C           -1.561281896012    -0.647826118521    -0.000003150446    12.000000000000
         C           -2.538226896012     0.234420881479     0.746382849554    12.000000000000
         C           -2.538226896012     0.234422881479    -0.746382150446    12.000000000000
         C           -0.080383896012    -0.279797018521     0.000000949554    12.000000000000
         C            1.487093103988     1.325994881479     0.000000849554    12.000000000000
         C            2.051422103988    -0.974070118521     0.000002849554    12.000000000000
         C            2.480425103988     0.350016881479     0.000000849554    12.000000000000
         H           -1.745757896012    -1.717212118521     0.000000849554     1.007825032230
         H           -2.114147896012     1.099940881479     1.243834849554     1.007825032230
         H           -3.351733896012    -0.256960118521     1.270160849554     1.007825032230
         H           -3.351734896012    -0.256945118521    -1.270170150446     1.007825032230
         H           -2.114143896012     1.099946881479    -1.243824150446     1.007825032230
         H            1.733192103988     2.386878881479    -0.000007150446     1.007825032230
         H            2.761270103988    -1.799835118521    -0.000010150446     1.007825032230
         H            3.534281103988     0.608812881479    -0.000003150446     1.007825032230

  Basis Set: AUG-CC-PVTZ
    Blend: AUG-CC-PVTZ
  Basis Set: (AUG-CC-PVTZ AUX)
    Blend: AUG-CC-PVTZ-JKFIT
	 Reference Energy          =    -378.7290577752871741 [Eh]
	 Singles Energy            =      -0.0000000000000000 [Eh]
	 Same-Spin Energy          =      -0.4125618196016464 [Eh]
	 Opposite-Spin Energy      =      -1.2896583518609896 [Eh]
	 Correlation Energy        =      -1.7022201714626362 [Eh]
	 Total Energy              =    -380.4312779467497876 [Eh]

	 ================> DF-SCS-MP2 Energies <==================
	-----------------------------------------------------------
	 SCS Same-Spin Scale       =       0.3333333333333333 [-]
	 SCS Opposite-Spin Scale   =       1.2000000000000000 [-]
	 SCS Same-Spin Energy      =      -0.1375206065338821 [Eh]
	 SCS Opposite-Spin Energy  =      -1.5475900222331875 [Eh]
	 SCS Correlation Energy    =      -1.6851106287670696 [Eh]
	 SCS Total Energy          =    -380.4141684040542373 [Eh]
	-----------------------------------------------------------

  Dipole Moment: [D]
     X:     1.7683      Y:     0.6315      Z:    -0.0000     Total:     1.8777

*** Psi4 exiting successfully. Buy a developer a beer!
