                               Psi4 1.3.2 release

  ==> Input File <==

--------------------------------------------------------------------------
#psi4
#
memory 32 gb

molecule  {
0 1
  N        0.2222710     1.0128310     0.0000010
  N        0.7926860    -1.3208380    -0.0000020
  C       -1.5206760    -0.6557300    -0.0000030
  C       -2.4976210     0.2265170     0.7463830
  C       -2.4976210     0.2265190    -0.7463820
  C       -0.0883020    -0.2997600     0.0000010
  C        1.5276990     1.3180910     0.0000010
  C        2.0920280    -0.9819740     0.0000030
  C        2.6636931     0.2019433     0.0000010
  H       -1.7051520    -1.7251160     0.0000010
  H       -2.0735420     1.0920370     1.2438350
  H       -3.3111280    -0.2648640     1.2701610
  H       -3.3111290    -0.2648490    -1.2701700
  H       -2.0735380     1.0920430    -1.2438240
  H        1.7737980     2.3789750    -0.0000070
  H        2.8018760    -1.8077390    -0.0000100
  H        3.5748870     0.6009090    -0.0000030
units angstrom
no_reorient  #important for SAPT in psi4, default
symmetry c1  #important for SAPT in psi4, default
}

set PROPERTIES_ORIGIN ["COM"]
properties('MP2/aug-cc-pvtz', properties = ['dipole'])
--------------------------------------------------------------------------

    Molecular point group: c1
  Charge       = 0
  Multiplicity = 1
  Basis Set: AUG-CC-PVTZ
    Blend: AUG-CC-PVTZ
  Basis Set: (AUG-CC-PVTZ AUX)
    Blend: AUG-CC-PVTZ-JKFIT

    Orbital Energies [Eh]
    ---------------------

    Doubly Occupied:

       1A    -15.574689     2A    -15.560422     3A    -11.323468
       4A    -11.323189     5A    -11.279656     6A    -11.244782
       7A    -11.235944     8A    -11.230668     9A    -11.229985
      10A     -1.302141    11A     -1.186576    12A     -1.149401
      13A     -1.062283    14A     -0.918902    15A     -0.881551
      16A     -0.823149    17A     -0.801943    18A     -0.721963
      19A     -0.691075    20A     -0.683739    21A     -0.639879
      22A     -0.611988    23A     -0.573740    24A     -0.559198
      25A     -0.527528    26A     -0.515999    27A     -0.479235
      28A     -0.441261    29A     -0.428171    30A     -0.421636
      31A     -0.399773    32A     -0.345519

  @DF-RHF Final Energy:  -378.68913964135550

   => Energetics <=

    Nuclear Repulsion Energy =            411.3808903709459059
    One-Electron Energy =               -1327.8011536671881458
    Two-Electron Energy =                 537.7311236548866873
    Total Energy =                       -378.6891396413554958
  Basis Set: (AUG-CC-PVTZ AUX)
    Blend: AUG-CC-PVTZ-RI
    Molecular point group: c1

    Geometry (in Angstrom), charge = 0, multiplicity = 1:

       Center              X                  Y                   Z               Mass
    ------------   -----------------  -----------------  -----------------  -----------------
         N            0.172256684093     1.035949045251     0.000000859548    14.003074004430
         N            0.742671684093    -1.297719954749    -0.000002140452    14.003074004430
         C           -1.570690315907    -0.632611954749    -0.000003140452    12.000000000000
         C           -2.547635315907     0.249635045251     0.746382859548    12.000000000000
         C           -2.547635315907     0.249637045251    -0.746382140452    12.000000000000
         C           -0.138316315907    -0.276641954749     0.000000859548    12.000000000000
         C            1.477684684093     1.341209045251     0.000000859548    12.000000000000
         C            2.042013684093    -0.958855954749     0.000002859548    12.000000000000
         C            2.613678784093     0.225061345251     0.000000859548    12.000000000000
         H           -1.755166315907    -1.701997954749     0.000000859548     1.007825032230
         H           -2.123556315907     1.115155045251     1.243834859548     1.007825032230
         H           -3.361142315907    -0.241745954749     1.270160859548     1.007825032230
         H           -3.361143315907    -0.241730954749    -1.270170140452     1.007825032230
         H           -2.123552315907     1.115161045251    -1.243824140452     1.007825032230
         H            1.723783684093     2.402093045251    -0.000007140452     1.007825032230
         H            2.751861684093    -1.784620954749    -0.000010140452     1.007825032230
         H            3.524872684093     0.624027045251    -0.000003140452     1.007825032230

  Basis Set: AUG-CC-PVTZ
    Blend: AUG-CC-PVTZ
  Basis Set: (AUG-CC-PVTZ AUX)
    Blend: AUG-CC-PVTZ-JKFIT
	 Reference Energy          =    -378.6891396413554958 [Eh]
	 Singles Energy            =      -0.0000000000000000 [Eh]
	 Same-Spin Energy          =      -0.4124489540302729 [Eh]
	 Opposite-Spin Energy      =      -1.2922448406694518 [Eh]
	 Correlation Energy        =      -1.7046937946997247 [Eh]
	 Total Energy              =    -380.3938334360552176 [Eh]

	 ================> DF-SCS-MP2 Energies <==================
	-----------------------------------------------------------
	 SCS Same-Spin Scale       =       0.3333333333333333 [-]
	 SCS Opposite-Spin Scale   =       1.2000000000000000 [-]
	 SCS Same-Spin Energy      =      -0.1374829846767576 [Eh]
	 SCS Opposite-Spin Energy  =      -1.5506938088033422 [Eh]
	 SCS Correlation Energy    =      -1.6881767934800997 [Eh]
	 SCS Total Energy          =    -380.3773164348356204 [Eh]
	-----------------------------------------------------------

  Dipole Moment: [D]
     X:     1.2588      Y:     0.9098      Z:    -0.0000     Total:     1.5532

*** Psi4 exiting successfully. Buy a developer a beer!
