                               Psi4 1.3.2 release

  ==> Input File <==

--------------------------------------------------------------------------
#psi4
#
memory 32 gb

molecule  {
0 1
  N        0.2222710     1.0128310     0.0000010
  N        0.7926860    -1.3208380    -0.0000020
  C       -1.5206760    -0.6557300    -0.0000030
  C       -2.4976210     0.2265170     0.7463830
  C       -2.4976210     0.2265190    -0.7463820
  C       -0.0883020    -0.2997600     0.0000010
  C        1.5276990     1.3180910     0.0000010
  C        2.0920280    -0.9819740     0.0000030
  C        2.6176069     0.4512910    -0.0000003
  H       -1.7051520    -1.7251160     0.0000010
  H       -2.0735420     1.0920370     1.2438350
  H       -3.3111280    -0.2648640     1.2701610
  H       -3.3111290    -0.2648490    -1.2701700
  H       -2.0735380     1.0920430    -1.2438240
  H        1.7737980     2.3789750    -0.0000070
  H        2.8018760    -1.8077390    -0.0000100
  H        3.5748870     0.6009090    -0.0000030
units angstrom
no_reorient  #important for SAPT in psi4, default
symmetry c1  #important for SAPT in psi4, default
}

set PROPERTIES_ORIGIN ["COM"]
properties('MP2/aug-cc-pvtz', properties = ['dipole'])
--------------------------------------------------------------------------

    Molecular point group: c1
  Charge       = 0
  Multiplicity = 1
  Basis Set: AUG-CC-PVTZ
    Blend: AUG-CC-PVTZ
  Basis Set: (AUG-CC-PVTZ AUX)
    Blend: AUG-CC-PVTZ-JKFIT

    Orbital Energies [Eh]
    ---------------------

    Doubly Occupied:

       1A    -15.571917     2A    -15.564529     3A    -11.324107
       4A    -11.315541     5A    -11.295924     6A    -11.245264
       7A    -11.235906     8A    -11.230282     9A    -11.229596
      10A     -1.302057    11A     -1.186362    12A     -1.149252
      13A     -1.055741    14A     -0.920539    15A     -0.878590
      16A     -0.822480    17A     -0.805762    18A     -0.713041
      19A     -0.706422    20A     -0.672507    21A     -0.644409
      22A     -0.609853    23A     -0.573292    24A     -0.563836
      25A     -0.527884    26A     -0.514982    27A     -0.484959
      28A     -0.439211    29A     -0.429362    30A     -0.418695
      31A     -0.402397    32A     -0.342923

  @DF-RHF Final Energy:  -378.70166197430370

   => Energetics <=

    Nuclear Repulsion Energy =            411.1091607457071859
    One-Electron Energy =               -1327.2663979614303571
    Two-Electron Energy =                 537.4555752414195240
    Total Energy =                       -378.7016619743036472
  Basis Set: (AUG-CC-PVTZ AUX)
    Blend: AUG-CC-PVTZ-RI
    Molecular point group: c1

    Geometry (in Angstrom), charge = 0, multiplicity = 1:

       Center              X                  Y                   Z               Mass
    ------------   -----------------  -----------------  -----------------  -----------------
         N            0.176862665316     1.011028552257     0.000000989474    14.003074004430
         N            0.747277665316    -1.322640447743    -0.000002010526    14.003074004430
         C           -1.566084334684    -0.657532447743    -0.000003010526    12.000000000000
         C           -2.543029334684     0.224714552257     0.746382989474    12.000000000000
         C           -2.543029334684     0.224716552257    -0.746382010526    12.000000000000
         C           -0.133710334684    -0.301562447743     0.000000989474    12.000000000000
         C            1.482290665316     1.316288552257     0.000000989474    12.000000000000
         C            2.046619665316    -0.983776447743     0.000002989474    12.000000000000
         C            2.572198565316     0.449488552257    -0.000000310526    12.000000000000
         H           -1.750560334684    -1.726918447743     0.000000989474     1.007825032230
         H           -2.118950334684     1.090234552257     1.243834989474     1.007825032230
         H           -3.356536334684    -0.266666447743     1.270160989474     1.007825032230
         H           -3.356537334684    -0.266651447743    -1.270170010526     1.007825032230
         H           -2.118946334684     1.090240552257    -1.243824010526     1.007825032230
         H            1.728389665316     2.377172552257    -0.000007010526     1.007825032230
         H            2.756467665316    -1.809541447743    -0.000010010526     1.007825032230
         H            3.529478665316     0.599106552257    -0.000003010526     1.007825032230

  Basis Set: AUG-CC-PVTZ
    Blend: AUG-CC-PVTZ
  Basis Set: (AUG-CC-PVTZ AUX)
    Blend: AUG-CC-PVTZ-JKFIT
	 Reference Energy          =    -378.7016619743037040 [Eh]
	 Singles Energy            =      -0.0000000000000000 [Eh]
	 Same-Spin Energy          =      -0.4129785360025826 [Eh]
	 Opposite-Spin Energy      =      -1.2920235631541881 [Eh]
	 Correlation Energy        =      -1.7050020991567707 [Eh]
	 Total Energy              =    -380.4066640734604903 [Eh]

	 ================> DF-SCS-MP2 Energies <==================
	-----------------------------------------------------------
	 SCS Same-Spin Scale       =       0.3333333333333333 [-]
	 SCS Opposite-Spin Scale   =       1.2000000000000000 [-]
	 SCS Same-Spin Energy      =      -0.1376595120008609 [Eh]
	 SCS Opposite-Spin Energy  =      -1.5504282757850256 [Eh]
	 SCS Correlation Energy    =      -1.6880877877858864 [Eh]
	 SCS Total Energy          =    -380.3897497620895933 [Eh]
	-----------------------------------------------------------

  Dipole Moment: [D]
     X:     1.3729      Y:     0.4481      Z:    -0.0000     Total:     1.4442

*** Psi4 exiting successfully. Buy a developer a beer!
