                               Psi4 1.3.2 release

  ==> Input File <==

--------------------------------------------------------------------------
#psi4
#
memory 32 gb

molecule  {
0 1
  N        0.2222710     1.0128310     0.0000010
  N        0.7926860    -1.3208380    -0.0000020
  C       -1.5206760    -0.6557300    -0.0000030
  C       -2.6111301     0.1267624     0.6989168
  C       -2.4976210     0.2265190    -0.7463820
  C       -0.0883020    -0.2997600     0.0000010
  C        1.5276990     1.3180910     0.0000010
  C        2.0920280    -0.9819740     0.0000030
  C        2.5210310     0.3421130     0.0000010
  H       -1.7051520    -1.7251160     0.0000010
  H       -2.0735420     1.0920370     1.2438350
  H       -3.3111280    -0.2648640     1.2701610
  H       -3.3111290    -0.2648490    -1.2701700
  H       -2.0735380     1.0920430    -1.2438240
  H        1.7737980     2.3789750    -0.0000070
  H        2.8018760    -1.8077390    -0.0000100
  H        3.5748870     0.6009090    -0.0000030
units angstrom
no_reorient  #important for SAPT in psi4, default
symmetry c1  #important for SAPT in psi4, default
}

set PROPERTIES_ORIGIN ["COM"]
properties('MP2/aug-cc-pvtz', properties = ['dipole'])
--------------------------------------------------------------------------

    Molecular point group: c1
  Charge       = 0
  Multiplicity = 1
  Basis Set: AUG-CC-PVTZ
    Blend: AUG-CC-PVTZ
  Basis Set: (AUG-CC-PVTZ AUX)
    Blend: AUG-CC-PVTZ-JKFIT

    Orbital Energies [Eh]
    ---------------------

    Doubly Occupied:

       1A    -15.567668     2A    -15.567438     3A    -11.321476
       4A    -11.299071     5A    -11.297971     6A    -11.242489
       7A    -11.233431     8A    -11.231492     9A    -11.229404
      10A     -1.305583    11A     -1.187176    12A     -1.155215
      13A     -1.066680    14A     -0.914158    15A     -0.891119
      16A     -0.825622    17A     -0.804294    18A     -0.715149
      19A     -0.701783    20A     -0.659221    21A     -0.645655
      22A     -0.607151    23A     -0.588545    24A     -0.577829
      25A     -0.528797    26A     -0.497325    27A     -0.476972
      28A     -0.436776    29A     -0.430338    30A     -0.416765
      31A     -0.408012    32A     -0.347524

  @DF-RHF Final Energy:  -378.70210051643465

   => Energetics <=

    Nuclear Repulsion Energy =            412.8812105527654239
    One-Electron Energy =               -1330.8103632759657557
    Two-Electron Energy =                 539.2270522067656202
    Total Energy =                       -378.7021005164347116
  Basis Set: (AUG-CC-PVTZ AUX)
    Blend: AUG-CC-PVTZ-RI
    Molecular point group: c1

    Geometry (in Angstrom), charge = 0, multiplicity = 1:

       Center              X                  Y                   Z               Mass
    ------------   -----------------  -----------------  -----------------  -----------------
         N            0.197859136391     1.031909849316     0.004744761756    14.003074004430
         N            0.768274136391    -1.301759150684     0.004741761756    14.003074004430
         C           -1.545087863609    -0.636651150684     0.004740761756    12.000000000000
         C           -2.635541963609     0.145841249316     0.703660561756    12.000000000000
         C           -2.522032863609     0.245597849316    -0.741638238244    12.000000000000
         C           -0.112713863609    -0.280681150684     0.004744761756    12.000000000000
         C            1.503287136391     1.337169849316     0.004744761756    12.000000000000
         C            2.067616136391    -0.962895150684     0.004746761756    12.000000000000
         C            2.496619136391     0.361191849316     0.004744761756    12.000000000000
         H           -1.729563863609    -1.706037150684     0.004744761756     1.007825032230
         H           -2.097953863609     1.111115849316     1.248578761756     1.007825032230
         H           -3.335539863609    -0.245785150684     1.274904761756     1.007825032230
         H           -3.335540863609    -0.245770150684    -1.265426238244     1.007825032230
         H           -2.097949863609     1.111121849316    -1.239080238244     1.007825032230
         H            1.749386136391     2.398053849316     0.004736761756     1.007825032230
         H            2.777464136391    -1.788660150684     0.004733761756     1.007825032230
         H            3.550475136391     0.619987849316     0.004740761756     1.007825032230

  Basis Set: AUG-CC-PVTZ
    Blend: AUG-CC-PVTZ
  Basis Set: (AUG-CC-PVTZ AUX)
    Blend: AUG-CC-PVTZ-JKFIT
	 Reference Energy          =    -378.7021005164346548 [Eh]
	 Singles Energy            =      -0.0000000000000000 [Eh]
	 Same-Spin Energy          =      -0.4139343054212494 [Eh]
	 Opposite-Spin Energy      =      -1.2921172634764344 [Eh]
	 Correlation Energy        =      -1.7060515688976838 [Eh]
	 Total Energy              =    -380.4081520853323468 [Eh]

	 ================> DF-SCS-MP2 Energies <==================
	-----------------------------------------------------------
	 SCS Same-Spin Scale       =       0.3333333333333333 [-]
	 SCS Opposite-Spin Scale   =       1.2000000000000000 [-]
	 SCS Same-Spin Energy      =      -0.1379781018070831 [Eh]
	 SCS Opposite-Spin Energy  =      -1.5505407161717213 [Eh]
	 SCS Correlation Energy    =      -1.6885188179788044 [Eh]
	 SCS Total Energy          =    -380.3906193344134863 [Eh]
	-----------------------------------------------------------

  Dipole Moment: [D]
     X:     1.4177      Y:     0.5735      Z:    -0.0200     Total:     1.5295

*** Psi4 exiting successfully. Buy a developer a beer!
