                               Psi4 1.4a3.dev225

  ==> Input File <==

--------------------------------------------------------------------------
#psi4
#
memory 32 gb

molecule  {
0 1
  N        0.2222710     1.0128310     0.0000010
  N        0.7926860    -1.3208380    -0.0000020
  C       -1.5206760    -0.6557300    -0.0000030
  C       -2.4976210     0.2265170     0.7463830
  C       -2.4976210     0.2265190    -0.7463820
  C       -0.0883020    -0.2997600     0.0000010
  C        1.5276990     1.3180910     0.0000010
  C        2.0920280    -0.9819740     0.0000030
  C        2.5210310     0.3421130     0.0000010
  H       -1.7051520    -1.7251160     0.0000010
  H       -2.0735420     1.0920370     1.2438350
  H       -3.3111280    -0.2648640     1.2701610
  H       -3.3111290    -0.2648490    -1.2701700
  H       -2.0735380     1.0920430    -1.2438240
  H        1.7737980     2.3789750    -0.0000070
  H        2.8018760    -1.8077390    -0.0000100
  H        3.5263297     0.5889848    -0.0000028
units angstrom
no_reorient  #important for SAPT in psi4, default
symmetry c1  #important for SAPT in psi4, default
}

set PROPERTIES_ORIGIN ["COM"]
properties('MP2/aug-cc-pvtz', properties = ['dipole'])
--------------------------------------------------------------------------

    Molecular point group: c1
  Charge       = 0
  Multiplicity = 1
  Basis Set: AUG-CC-PVTZ
    Blend: AUG-CC-PVTZ
  Basis Set: (AUG-CC-PVTZ AUX)
    Blend: AUG-CC-PVTZ-JKFIT

    Orbital Energies [Eh]
    ---------------------

    Doubly Occupied:

       1A    -15.566470     2A    -15.566407     3A    -11.319687
       4A    -11.298564     5A    -11.297228     6A    -11.236159
       7A    -11.233942     8A    -11.228501     9A    -11.227818
      10A     -1.304979    11A     -1.186504    12A     -1.148988
      13A     -1.066055    14A     -0.913336    15A     -0.890346
      16A     -0.821042    17A     -0.803054    18A     -0.719106
      19A     -0.699431    20A     -0.661743    21A     -0.638694
      22A     -0.608411    23A     -0.587155    24A     -0.576758
      25A     -0.527088    26A     -0.514089    27A     -0.478182
      28A     -0.441224    29A     -0.427119    30A     -0.417554
      31A     -0.407572    32A     -0.348054

  @DF-RHF Final Energy:  -378.72935631382563

   => Energetics <=

    Nuclear Repulsion Energy =            413.6601304839184650
    One-Electron Energy =               -1332.4564542499670097
    Two-Electron Energy =                 540.0669674522229116
    Total Energy =                       -378.7293563138256332
  Basis Set: (AUG-CC-PVTZ AUX)
    Blend: AUG-CC-PVTZ-RI
    Molecular point group: c1

    Geometry (in Angstrom), charge = 0, multiplicity = 1:

       Center              X                  Y                   Z               Mass
    ------------   -----------------  -----------------  -----------------  -----------------
         N            0.186922302648     1.022040189559     0.000000857869    14.003074004430
         N            0.757337302648    -1.311628810441    -0.000002142131    14.003074004430
         C           -1.556024697352    -0.646520810441    -0.000003142131    12.000000000000
         C           -2.532969697352     0.235726189559     0.746382857869    12.000000000000
         C           -2.532969697352     0.235728189559    -0.746382142131    12.000000000000
         C           -0.123650697352    -0.290550810441     0.000000857869    12.000000000000
         C            1.492350302648     1.327300189559     0.000000857869    12.000000000000
         C            2.056679302648    -0.972764810441     0.000002857869    12.000000000000
         C            2.485682302648     0.351322189559     0.000000857869    12.000000000000
         H           -1.740500697352    -1.715906810441     0.000000857869     1.007825032230
         H           -2.108890697352     1.101246189559     1.243834857869     1.007825032230
         H           -3.346476697352    -0.255654810441     1.270160857869     1.007825032230
         H           -3.346477697352    -0.255639810441    -1.270170142131     1.007825032230
         H           -2.108886697352     1.101252189559    -1.243824142131     1.007825032230
         H            1.738449302648     2.388184189559    -0.000007142131     1.007825032230
         H            2.766527302648    -1.798529810441    -0.000010142131     1.007825032230
         H            3.490981002648     0.598193989559    -0.000002942131     1.007825032230

  Basis Set: AUG-CC-PVTZ
    Blend: AUG-CC-PVTZ
  Basis Set: (AUG-CC-PVTZ AUX)
    Blend: AUG-CC-PVTZ-JKFIT
	 Reference Energy          =    -378.7293563138256332 [Eh]
	 Singles Energy            =      -0.0000000000000000 [Eh]
	 Same-Spin Energy          =      -0.4131694610190436 [Eh]
	 Opposite-Spin Energy      =      -1.2904338883433311 [Eh]
	 Correlation Energy        =      -1.7036033493623746 [Eh]
	 Total Energy              =    -380.4329596631880008 [Eh]

	 ================> DF-SCS-MP2 Energies <==================
	-----------------------------------------------------------
	 SCS Same-Spin Scale       =       0.3333333333333333 [-]
	 SCS Opposite-Spin Scale   =       1.2000000000000000 [-]
	 SCS Same-Spin Energy      =      -0.1377231536730145 [Eh]
	 SCS Opposite-Spin Energy  =      -1.5485206660119972 [Eh]
	 SCS Correlation Energy    =      -1.6862438196850118 [Eh]
	 SCS Total Energy          =    -380.4156001335106225 [Eh]
	-----------------------------------------------------------

  Dipole Moment: [D]
     X:     1.4408      Y:     0.6115      Z:    -0.0000     Total:     1.5652

*** Psi4 exiting successfully. Buy a developer a beer!
