                               Psi4 1.3.2 release

  ==> Input File <==

--------------------------------------------------------------------------
#psi4
#
memory 32 gb

molecule  {
0 1
  N        0.2041571     1.1046367     0.0000002
  N        0.7926860    -1.3208380    -0.0000020
  C       -1.5206760    -0.6557300    -0.0000030
  C       -2.4976210     0.2265170     0.7463830
  C       -2.4976210     0.2265190    -0.7463820
  C       -0.0883020    -0.2997600     0.0000010
  C        1.5276990     1.3180910     0.0000010
  C        2.0920280    -0.9819740     0.0000030
  C        2.5210310     0.3421130     0.0000010
  H       -1.7051520    -1.7251160     0.0000010
  H       -2.0735420     1.0920370     1.2438350
  H       -3.3111280    -0.2648640     1.2701610
  H       -3.3111290    -0.2648490    -1.2701700
  H       -2.0735380     1.0920430    -1.2438240
  H        1.7737980     2.3789750    -0.0000070
  H        2.8018760    -1.8077390    -0.0000100
  H        3.5748870     0.6009090    -0.0000030
units angstrom
no_reorient  #important for SAPT in psi4, default
symmetry c1  #important for SAPT in psi4, default
}

set PROPERTIES_ORIGIN ["COM"]
properties('MP2/aug-cc-pvtz', properties = ['dipole'])
--------------------------------------------------------------------------

    Molecular point group: c1
  Charge       = 0
  Multiplicity = 1
  Basis Set: AUG-CC-PVTZ
    Blend: AUG-CC-PVTZ
  Basis Set: (AUG-CC-PVTZ AUX)
    Blend: AUG-CC-PVTZ-JKFIT

    Orbital Energies [Eh]
    ---------------------

    Doubly Occupied:

       1A    -15.578345     2A    -15.570245     3A    -11.331332
       4A    -11.299453     5A    -11.296970     6A    -11.240963
       7A    -11.236917     8A    -11.230568     9A    -11.229878
      10A     -1.293829    11A     -1.185761    12A     -1.150814
      13A     -1.059185    14A     -0.915666    15A     -0.880136
      16A     -0.822821    17A     -0.800626    18A     -0.713121
      19A     -0.698504    20A     -0.652353    21A     -0.636482
      22A     -0.604217    23A     -0.583422    24A     -0.570363
      25A     -0.522969    26A     -0.515775    27A     -0.486832
      28A     -0.443560    29A     -0.430244    30A     -0.419744
      31A     -0.410632    32A     -0.344100

  @DF-RHF Final Energy:  -378.71897804404676

   => Energetics <=

    Nuclear Repulsion Energy =            411.3691989222588745
    One-Electron Energy =               -1327.8646989450508045
    Two-Electron Energy =                 537.7765219787451088
    Total Energy =                       -378.7189780440468212
  Basis Set: (AUG-CC-PVTZ AUX)
    Blend: AUG-CC-PVTZ-RI
    Molecular point group: c1

    Geometry (in Angstrom), charge = 0, multiplicity = 1:

       Center              X                  Y                   Z               Mass
    ------------   -----------------  -----------------  -----------------  -----------------
         N            0.170513367701     1.103038918244     0.000000152848    14.003074004430
         N            0.759042267701    -1.322435781756    -0.000002047152    14.003074004430
         C           -1.554319732299    -0.657327781756    -0.000003047152    12.000000000000
         C           -2.531264732299     0.224919218244     0.746382952848    12.000000000000
         C           -2.531264732299     0.224921218244    -0.746382047152    12.000000000000
         C           -0.121945732299    -0.301357781756     0.000000952848    12.000000000000
         C            1.494055267701     1.316493218244     0.000000952848    12.000000000000
         C            2.058384267701    -0.983571781756     0.000002952848    12.000000000000
         C            2.487387267701     0.340515218244     0.000000952848    12.000000000000
         H           -1.738795732299    -1.726713781756     0.000000952848     1.007825032230
         H           -2.107185732299     1.090439218244     1.243834952848     1.007825032230
         H           -3.344771732299    -0.266461781756     1.270160952848     1.007825032230
         H           -3.344772732299    -0.266446781756    -1.270170047152     1.007825032230
         H           -2.107181732299     1.090445218244    -1.243824047152     1.007825032230
         H            1.740154267701     2.377377218244    -0.000007047152     1.007825032230
         H            2.768232267701    -1.809336781756    -0.000010047152     1.007825032230
         H            3.541243267701     0.599311218244    -0.000003047152     1.007825032230

  Basis Set: AUG-CC-PVTZ
    Blend: AUG-CC-PVTZ
  Basis Set: (AUG-CC-PVTZ AUX)
    Blend: AUG-CC-PVTZ-JKFIT
	 Reference Energy          =    -378.7189780440467644 [Eh]
	 Singles Energy            =      -0.0000000000000000 [Eh]
	 Same-Spin Energy          =      -0.4138906341076272 [Eh]
	 Opposite-Spin Energy      =      -1.2934770045222892 [Eh]
	 Correlation Energy        =      -1.7073676386299164 [Eh]
	 Total Energy              =    -380.4263456826766969 [Eh]

	 ================> DF-SCS-MP2 Energies <==================
	-----------------------------------------------------------
	 SCS Same-Spin Scale       =       0.3333333333333333 [-]
	 SCS Opposite-Spin Scale   =       1.2000000000000000 [-]
	 SCS Same-Spin Energy      =      -0.1379635447025424 [Eh]
	 SCS Opposite-Spin Energy  =      -1.5521724054267469 [Eh]
	 SCS Correlation Energy    =      -1.6901359501292894 [Eh]
	 SCS Total Energy          =    -380.4091139941760389 [Eh]
	-----------------------------------------------------------

  Dipole Moment: [D]
     X:     1.3364      Y:     0.4334      Z:    -0.0000     Total:     1.4049

*** Psi4 exiting successfully. Buy a developer a beer!
