                               Psi4 1.3.2 release

  ==> Input File <==

--------------------------------------------------------------------------
#psi4
#
memory 32 gb

molecule  {
0 1
  N        0.2222710     1.0128310     0.0000010
  N        0.7926860    -1.3208380    -0.0000020
  C       -1.5206760    -0.6557300    -0.0000030
  C       -2.4976210     0.2265170     0.7463830
  C       -2.4976210     0.2265190    -0.7463820
  C       -0.1111626    -0.2941398     0.0000010
  C        1.5276990     1.3180910     0.0000010
  C        2.0920280    -0.9819740     0.0000030
  C        2.5210310     0.3421130     0.0000010
  H       -1.7051520    -1.7251160     0.0000010
  H       -2.0735420     1.0920370     1.2438350
  H       -3.3111280    -0.2648640     1.2701610
  H       -3.3111290    -0.2648490    -1.2701700
  H       -2.0735380     1.0920430    -1.2438240
  H        1.7737980     2.3789750    -0.0000070
  H        2.8018760    -1.8077390    -0.0000100
  H        3.5748870     0.6009090    -0.0000030
units angstrom
no_reorient  #important for SAPT in psi4, default
symmetry c1  #important for SAPT in psi4, default
}

set PROPERTIES_ORIGIN ["COM"]
properties('MP2/aug-cc-pvtz', properties = ['dipole'])
--------------------------------------------------------------------------

    Molecular point group: c1
  Charge       = 0
  Multiplicity = 1
  Basis Set: AUG-CC-PVTZ
    Blend: AUG-CC-PVTZ
  Basis Set: (AUG-CC-PVTZ AUX)
    Blend: AUG-CC-PVTZ-JKFIT

    Orbital Energies [Eh]
    ---------------------

    Doubly Occupied:

       1A    -15.566660     2A    -15.565723     3A    -11.321233
       4A    -11.298101     5A    -11.296246     6A    -11.240808
       7A    -11.234804     8A    -11.230504     9A    -11.229830
      10A     -1.301176    11A     -1.182633    12A     -1.152174
      13A     -1.063206    14A     -0.914512    15A     -0.888381
      16A     -0.823002    17A     -0.803325    18A     -0.718811
      19A     -0.696262    20A     -0.657974    21A     -0.635486
      22A     -0.606969    23A     -0.586509    24A     -0.574888
      25A     -0.530535    26A     -0.515655    27A     -0.477748
      28A     -0.443918    29A     -0.428753    30A     -0.416134
      31A     -0.404087    32A     -0.345687

  @DF-RHF Final Energy:  -378.72842329224471

   => Energetics <=

    Nuclear Repulsion Energy =            413.3197362419307410
    One-Electron Energy =               -1331.7928518427597737
    Two-Electron Energy =                 539.7446923085842627
    Total Energy =                       -378.7284232922447700
  Basis Set: (AUG-CC-PVTZ AUX)
    Blend: AUG-CC-PVTZ-RI
    Molecular point group: c1

    Geometry (in Angstrom), charge = 0, multiplicity = 1:

       Center              X                  Y                   Z               Mass
    ------------   -----------------  -----------------  -----------------  -----------------
         N            0.188799476690     1.021378402805     0.000000859548    14.003074004430
         N            0.759214476690    -1.312290597195    -0.000002140452    14.003074004430
         C           -1.554147523310    -0.647182597195    -0.000003140452    12.000000000000
         C           -2.531092523310     0.235064402805     0.746382859548    12.000000000000
         C           -2.531092523310     0.235066402805    -0.746382140452    12.000000000000
         C           -0.144634123310    -0.285592397195     0.000000859548    12.000000000000
         C            1.494227476690     1.326638402805     0.000000859548    12.000000000000
         C            2.058556476690    -0.973426597195     0.000002859548    12.000000000000
         C            2.487559476690     0.350660402805     0.000000859548    12.000000000000
         H           -1.738623523310    -1.716568597195     0.000000859548     1.007825032230
         H           -2.107013523310     1.100584402805     1.243834859548     1.007825032230
         H           -3.344599523310    -0.256316597195     1.270160859548     1.007825032230
         H           -3.344600523310    -0.256301597195    -1.270170140452     1.007825032230
         H           -2.107009523310     1.100590402805    -1.243824140452     1.007825032230
         H            1.740326476690     2.387522402805    -0.000007140452     1.007825032230
         H            2.768404476690    -1.799191597195    -0.000010140452     1.007825032230
         H            3.541415476690     0.609456402805    -0.000003140452     1.007825032230

  Basis Set: AUG-CC-PVTZ
    Blend: AUG-CC-PVTZ
  Basis Set: (AUG-CC-PVTZ AUX)
    Blend: AUG-CC-PVTZ-JKFIT
	 Reference Energy          =    -378.7284232922447131 [Eh]
	 Singles Energy            =      -0.0000000000000000 [Eh]
	 Same-Spin Energy          =      -0.4136566196727468 [Eh]
	 Opposite-Spin Energy      =      -1.2913371901012889 [Eh]
	 Correlation Energy        =      -1.7049938097740356 [Eh]
	 Total Energy              =    -380.4334171020187227 [Eh]

	 ================> DF-SCS-MP2 Energies <==================
	-----------------------------------------------------------
	 SCS Same-Spin Scale       =       0.3333333333333333 [-]
	 SCS Opposite-Spin Scale   =       1.2000000000000000 [-]
	 SCS Same-Spin Energy      =      -0.1378855398909156 [Eh]
	 SCS Opposite-Spin Energy  =      -1.5496046281215465 [Eh]
	 SCS Correlation Energy    =      -1.6874901680124621 [Eh]
	 SCS Total Energy          =    -380.4159134602571726 [Eh]
	-----------------------------------------------------------

  Dipole Moment: [D]
     X:     1.2820      Y:     0.6045      Z:    -0.0000     Total:     1.4173

*** Psi4 exiting successfully. Buy a developer a beer!
