                               Psi4 1.3.2 release

  ==> Input File <==

--------------------------------------------------------------------------
#psi4
#
memory 32 gb

molecule  {
0 1
  N        0.2222710     1.0128310     0.0000010
  N        0.7926860    -1.3208380    -0.0000020
  C       -1.5206760    -0.6557300    -0.0000030
  C       -2.4976210     0.2265170     0.7463830
  C       -2.4976210     0.2265190    -0.7463820
  C       -0.1339216    -0.2881216     0.0000010
  C        1.5276990     1.3180910     0.0000010
  C        2.0920280    -0.9819740     0.0000030
  C        2.5210310     0.3421130     0.0000010
  H       -1.7051520    -1.7251160     0.0000010
  H       -2.0735420     1.0920370     1.2438350
  H       -3.3111280    -0.2648640     1.2701610
  H       -3.3111290    -0.2648490    -1.2701700
  H       -2.0735380     1.0920430    -1.2438240
  H        1.7737980     2.3789750    -0.0000070
  H        2.8018760    -1.8077390    -0.0000100
  H        3.5748870     0.6009090    -0.0000030
units angstrom
no_reorient  #important for SAPT in psi4, default
symmetry c1  #important for SAPT in psi4, default
}

set PROPERTIES_ORIGIN ["COM"]
properties('MP2/aug-cc-pvtz', properties = ['dipole'])
--------------------------------------------------------------------------

    Molecular point group: c1
  Charge       = 0
  Multiplicity = 1
  Basis Set: AUG-CC-PVTZ
    Blend: AUG-CC-PVTZ
  Basis Set: (AUG-CC-PVTZ AUX)
    Blend: AUG-CC-PVTZ-JKFIT

    Orbital Energies [Eh]
    ---------------------

    Doubly Occupied:

       1A    -15.566436     2A    -15.564711     3A    -11.322595
       4A    -11.297254     5A    -11.294861     6A    -11.239647
       7A    -11.235485     8A    -11.232451     9A    -11.231798
      10A     -1.297356    11A     -1.178629    12A     -1.155360
      13A     -1.062036    14A     -0.917880    15A     -0.886210
      16A     -0.824915    17A     -0.803723    18A     -0.719627
      19A     -0.694346    20A     -0.659626    21A     -0.635864
      22A     -0.606519    23A     -0.585504    24A     -0.572975
      25A     -0.534311    26A     -0.517123    27A     -0.477541
      28A     -0.446547    29A     -0.430450    30A     -0.414479
      31A     -0.400053    32A     -0.343083

  @DF-RHF Final Energy:  -378.72522154111687

   => Energetics <=

    Nuclear Repulsion Energy =            413.2532469651671931
    One-Electron Energy =               -1331.6581442427316233
    Two-Electron Energy =                 539.6796757364476207
    Total Energy =                       -378.7252215411168663
  Basis Set: (AUG-CC-PVTZ AUX)
    Blend: AUG-CC-PVTZ-RI
    Molecular point group: c1

    Geometry (in Angstrom), charge = 0, multiplicity = 1:

       Center              X                  Y                   Z               Mass
    ------------   -----------------  -----------------  -----------------  -----------------
         N            0.191074073569     1.020776927391     0.000000859548    14.003074004430
         N            0.761489073569    -1.312892072609    -0.000002140452    14.003074004430
         C           -1.551872926431    -0.647784072609    -0.000003140452    12.000000000000
         C           -2.528817926431     0.234462927391     0.746382859548    12.000000000000
         C           -2.528817926431     0.234464927391    -0.746382140452    12.000000000000
         C           -0.165118526431    -0.280175672609     0.000000859548    12.000000000000
         C            1.496502073569     1.326036927391     0.000000859548    12.000000000000
         C            2.060831073569    -0.974028072609     0.000002859548    12.000000000000
         C            2.489834073569     0.350058927391     0.000000859548    12.000000000000
         H           -1.736348926431    -1.717170072609     0.000000859548     1.007825032230
         H           -2.104738926431     1.099982927391     1.243834859548     1.007825032230
         H           -3.342324926431    -0.256918072609     1.270160859548     1.007825032230
         H           -3.342325926431    -0.256903072609    -1.270170140452     1.007825032230
         H           -2.104734926431     1.099988927391    -1.243824140452     1.007825032230
         H            1.742601073569     2.386920927391    -0.000007140452     1.007825032230
         H            2.770679073569    -1.799793072609    -0.000010140452     1.007825032230
         H            3.543690073569     0.608854927391    -0.000003140452     1.007825032230

  Basis Set: AUG-CC-PVTZ
    Blend: AUG-CC-PVTZ
  Basis Set: (AUG-CC-PVTZ AUX)
    Blend: AUG-CC-PVTZ-JKFIT
	 Reference Energy          =    -378.7252215411168663 [Eh]
	 Singles Energy            =      -0.0000000000000000 [Eh]
	 Same-Spin Energy          =      -0.4141030568764416 [Eh]
	 Opposite-Spin Energy      =      -1.2920792942760786 [Eh]
	 Correlation Energy        =      -1.7061823511525203 [Eh]
	 Total Energy              =    -380.4314038922693726 [Eh]

	 ================> DF-SCS-MP2 Energies <==================
	-----------------------------------------------------------
	 SCS Same-Spin Scale       =       0.3333333333333333 [-]
	 SCS Opposite-Spin Scale   =       1.2000000000000000 [-]
	 SCS Same-Spin Energy      =      -0.1380343522921472 [Eh]
	 SCS Opposite-Spin Energy  =      -1.5504951531312943 [Eh]
	 SCS Correlation Energy    =      -1.6885295054234415 [Eh]
	 SCS Total Energy          =    -380.4137510465403125 [Eh]
	-----------------------------------------------------------

  Dipole Moment: [D]
     X:     1.1311      Y:     0.5999      Z:    -0.0000     Total:     1.2803

*** Psi4 exiting successfully. Buy a developer a beer!
