                               Psi4 1.3.2 release

  ==> Input File <==

--------------------------------------------------------------------------
#psi4
#
memory 32 gb

molecule  {
0 1
  N        0.2222710     1.0128310     0.0000010
  N        0.7926860    -1.3208380    -0.0000020
  C       -1.5206760    -0.6557300    -0.0000030
  C       -2.4976210     0.2265170     0.7463830
  C       -2.4976210     0.2265190    -0.7463820
  C       -0.0883020    -0.2997600     0.0000010
  C        1.5448835     1.3352784     0.0000010
  C        2.0920280    -0.9819740     0.0000030
  C        2.5210310     0.3421130     0.0000010
  H       -1.7051520    -1.7251160     0.0000010
  H       -2.0735420     1.0920370     1.2438350
  H       -3.3111280    -0.2648640     1.2701610
  H       -3.3111290    -0.2648490    -1.2701700
  H       -2.0735380     1.0920430    -1.2438240
  H        1.7737980     2.3789750    -0.0000070
  H        2.8018760    -1.8077390    -0.0000100
  H        3.5748870     0.6009090    -0.0000030
units angstrom
no_reorient  #important for SAPT in psi4, default
symmetry c1  #important for SAPT in psi4, default
}

set PROPERTIES_ORIGIN ["COM"]
properties('MP2/aug-cc-pvtz', properties = ['dipole'])
--------------------------------------------------------------------------

    Molecular point group: c1
  Charge       = 0
  Multiplicity = 1
  Basis Set: AUG-CC-PVTZ
    Blend: AUG-CC-PVTZ
  Basis Set: (AUG-CC-PVTZ AUX)
    Blend: AUG-CC-PVTZ-JKFIT

    Orbital Energies [Eh]
    ---------------------

    Doubly Occupied:

       1A    -15.567309     2A    -15.567120     3A    -11.319049
       4A    -11.299708     5A    -11.298299     6A    -11.242903
       7A    -11.233628     8A    -11.228051     9A    -11.227367
      10A     -1.301773    11A     -1.182918    12A     -1.147994
      13A     -1.064688    14A     -0.909956    15A     -0.892674
      16A     -0.820604    17A     -0.802292    18A     -0.718780
      19A     -0.696803    20A     -0.656083    21A     -0.633760
      22A     -0.610282    23A     -0.590326    24A     -0.574839
      25A     -0.527351    26A     -0.513650    27A     -0.474758
      28A     -0.440914    29A     -0.426570    30A     -0.414717
      31A     -0.408223    32A     -0.348660

  @DF-RHF Final Energy:  -378.72839256558422

   => Energetics <=

    Nuclear Repulsion Energy =            412.9189891646001911
    One-Electron Energy =               -1331.0106624227785233
    Two-Electron Energy =                 539.3632806925941168
    Total Energy =                       -378.7283925655842722
  Basis Set: (AUG-CC-PVTZ AUX)
    Blend: AUG-CC-PVTZ-RI
    Molecular point group: c1

    Geometry (in Angstrom), charge = 0, multiplicity = 1:

       Center              X                  Y                   Z               Mass
    ------------   -----------------  -----------------  -----------------  -----------------
         N            0.184797259570     1.020222345113     0.000000859548    14.003074004430
         N            0.755212259570    -1.313446654887    -0.000002140452    14.003074004430
         C           -1.558149740430    -0.648338654887    -0.000003140452    12.000000000000
         C           -2.535094740430     0.233908345113     0.746382859548    12.000000000000
         C           -2.535094740430     0.233910345113    -0.746382140452    12.000000000000
         C           -0.125775740430    -0.292368654887     0.000000859548    12.000000000000
         C            1.507409759570     1.342669745113     0.000000859548    12.000000000000
         C            2.054554259570    -0.974582654887     0.000002859548    12.000000000000
         C            2.483557259570     0.349504345113     0.000000859548    12.000000000000
         H           -1.742625740430    -1.717724654887     0.000000859548     1.007825032230
         H           -2.111015740430     1.099428345113     1.243834859548     1.007825032230
         H           -3.348601740430    -0.257472654887     1.270160859548     1.007825032230
         H           -3.348602740430    -0.257457654887    -1.270170140452     1.007825032230
         H           -2.111011740430     1.099434345113    -1.243824140452     1.007825032230
         H            1.736324259570     2.386366345113    -0.000007140452     1.007825032230
         H            2.764402259570    -1.800347654887    -0.000010140452     1.007825032230
         H            3.537413259570     0.608300345113    -0.000003140452     1.007825032230

  Basis Set: AUG-CC-PVTZ
    Blend: AUG-CC-PVTZ
  Basis Set: (AUG-CC-PVTZ AUX)
    Blend: AUG-CC-PVTZ-JKFIT
	 Reference Energy          =    -378.7283925655842154 [Eh]
	 Singles Energy            =      -0.0000000000000000 [Eh]
	 Same-Spin Energy          =      -0.4134675665762280 [Eh]
	 Opposite-Spin Energy      =      -1.2913080382959765 [Eh]
	 Correlation Energy        =      -1.7047756048722045 [Eh]
	 Total Energy              =    -380.4331681704564403 [Eh]

	 ================> DF-SCS-MP2 Energies <==================
	-----------------------------------------------------------
	 SCS Same-Spin Scale       =       0.3333333333333333 [-]
	 SCS Opposite-Spin Scale   =       1.2000000000000000 [-]
	 SCS Same-Spin Energy      =      -0.1378225221920760 [Eh]
	 SCS Opposite-Spin Energy  =      -1.5495696459551718 [Eh]
	 SCS Correlation Energy    =      -1.6873921681472477 [Eh]
	 SCS Total Energy          =    -380.4157847337314706 [Eh]
	-----------------------------------------------------------

  Dipole Moment: [D]
     X:     1.4675      Y:     0.6325      Z:    -0.0000     Total:     1.5980

*** Psi4 exiting successfully. Buy a developer a beer!
