                               Psi4 1.3.2 release

  ==> Input File <==

--------------------------------------------------------------------------
#psi4
#
memory 32 gb

molecule  {
0 1
  N        0.2222710     1.0128310     0.0000010
  N        0.7926860    -1.3208380    -0.0000020
  C       -1.5206760    -0.6557300    -0.0000030
  C       -2.4976210     0.2265170     0.7463830
  C       -2.4976210     0.2265190    -0.7463820
  C       -0.0883020    -0.2997600     0.0000010
  C        1.5276990     1.3180910     0.0000010
  C        2.0920280    -0.9819740     0.0000030
  C        2.5210310     0.3421130     0.0000010
  H       -1.7051520    -1.7251160     0.0000010
  H       -2.0735420     1.0920370     1.2438350
  H       -3.3111280    -0.2648640     1.2701610
  H       -3.3111290    -0.2648490    -1.2701700
  H       -2.0735380     1.0920430    -1.2438240
  H        1.7737980     2.3789750    -0.0000070
  H        2.8018760    -1.8077390    -0.0000100
  H        3.7691162     0.6486060    -0.0000037
units angstrom
no_reorient  #important for SAPT in psi4, default
symmetry c1  #important for SAPT in psi4, default
}

set PROPERTIES_ORIGIN ["COM"]
properties('MP2/aug-cc-pvtz', properties = ['dipole'])
--------------------------------------------------------------------------

    Molecular point group: c1
  Charge       = 0
  Multiplicity = 1
  Basis Set: AUG-CC-PVTZ
    Blend: AUG-CC-PVTZ
  Basis Set: (AUG-CC-PVTZ AUX)
    Blend: AUG-CC-PVTZ-JKFIT

    Orbital Energies [Eh]
    ---------------------

    Doubly Occupied:

       1A    -15.568561     2A    -15.568492     3A    -11.321076
       4A    -11.301095     5A    -11.299739     6A    -11.262812
       7A    -11.234842     8A    -11.229250     9A    -11.228565
      10A     -1.306854    11A     -1.188401    12A     -1.149682
      13A     -1.060733    14A     -0.907326    15A     -0.891351
      16A     -0.821774    17A     -0.802388    18A     -0.717145
      19A     -0.696767    20A     -0.649693    21A     -0.618984
      22A     -0.590085    23A     -0.587876    24A     -0.578559
      25A     -0.527852    26A     -0.514862    27A     -0.471584
      28A     -0.442346    29A     -0.427582    30A     -0.419324
      31A     -0.409207    32A     -0.349394

  @DF-RHF Final Energy:  -378.70768782090033

   => Energetics <=

    Nuclear Repulsion Energy =            412.4873010578717754
    One-Electron Energy =               -1330.1015748657200675
    Two-Electron Energy =                 538.9065859869480164
    Total Energy =                       -378.7076878209003326
  Basis Set: (AUG-CC-PVTZ AUX)
    Blend: AUG-CC-PVTZ-RI
    Molecular point group: c1

    Geometry (in Angstrom), charge = 0, multiplicity = 1:

       Center              X                  Y                   Z               Mass
    ------------   -----------------  -----------------  -----------------  -----------------
         N            0.184884417555     1.021539745117     0.000000865424    14.003074004430
         N            0.755299417555    -1.312129254883    -0.000002134576    14.003074004430
         C           -1.558062582445    -0.647021254883    -0.000003134576    12.000000000000
         C           -2.535007582445     0.235225745117     0.746382865424    12.000000000000
         C           -2.535007582445     0.235227745117    -0.746382134576    12.000000000000
         C           -0.125688582445    -0.291051254883     0.000000865424    12.000000000000
         C            1.490312417555     1.326799745117     0.000000865424    12.000000000000
         C            2.054641417555    -0.973265254883     0.000002865424    12.000000000000
         C            2.483644417555     0.350821745117     0.000000865424    12.000000000000
         H           -1.742538582445    -1.716407254883     0.000000865424     1.007825032230
         H           -2.110928582445     1.100745745117     1.243834865424     1.007825032230
         H           -3.348514582445    -0.256155254883     1.270160865424     1.007825032230
         H           -3.348515582445    -0.256140254883    -1.270170134576     1.007825032230
         H           -2.110924582445     1.100751745117    -1.243824134576     1.007825032230
         H            1.736411417555     2.387683745117    -0.000007134576     1.007825032230
         H            2.764489417555    -1.799030254883    -0.000010134576     1.007825032230
         H            3.731729617555     0.657314745117    -0.000003834576     1.007825032230

  Basis Set: AUG-CC-PVTZ
    Blend: AUG-CC-PVTZ
  Basis Set: (AUG-CC-PVTZ AUX)
    Blend: AUG-CC-PVTZ-JKFIT
	 Reference Energy          =    -378.7076878209003326 [Eh]
	 Singles Energy            =      -0.0000000000000000 [Eh]
	 Same-Spin Energy          =      -0.4137308010733369 [Eh]
	 Opposite-Spin Energy      =      -1.2927804075297540 [Eh]
	 Correlation Energy        =      -1.7065112086030909 [Eh]
	 Total Energy              =    -380.4141990295034361 [Eh]

	 ================> DF-SCS-MP2 Energies <==================
	-----------------------------------------------------------
	 SCS Same-Spin Scale       =       0.3333333333333333 [-]
	 SCS Opposite-Spin Scale   =       1.2000000000000000 [-]
	 SCS Same-Spin Energy      =      -0.1379102670244456 [Eh]
	 SCS Opposite-Spin Energy  =      -1.5513364890357046 [Eh]
	 SCS Correlation Energy    =      -1.6892467560601503 [Eh]
	 SCS Total Energy          =    -380.3969345769604615 [Eh]
	-----------------------------------------------------------

  Dipole Moment: [D]
     X:     1.3494      Y:     0.5909      Z:    -0.0000     Total:     1.4732

*** Psi4 exiting successfully. Buy a developer a beer!
