                               Psi4 1.3.2 release

  ==> Input File <==

--------------------------------------------------------------------------
#psi4
#
memory 32 gb

molecule  {
0 1
  N        0.2222710     1.0128310     0.0000010
  N        0.7926860    -1.3208380    -0.0000020
  C       -1.5206760    -0.6557300    -0.0000030
  C       -2.4976210     0.2265170     0.7463830
  C       -2.4976210     0.2265190    -0.7463820
  C       -0.0883020    -0.2997600     0.0000010
  C        1.5276990     1.3180910     0.0000010
  C        2.0920280    -0.9819740     0.0000030
  C        2.5866921     0.4137818     0.0000002
  H       -1.7051520    -1.7251160     0.0000010
  H       -2.0735420     1.0920370     1.2438350
  H       -3.3111280    -0.2648640     1.2701610
  H       -3.3111290    -0.2648490    -1.2701700
  H       -2.0735380     1.0920430    -1.2438240
  H        1.7737980     2.3789750    -0.0000070
  H        2.8018760    -1.8077390    -0.0000100
  H        3.5748870     0.6009090    -0.0000030
units angstrom
no_reorient  #important for SAPT in psi4, default
symmetry c1  #important for SAPT in psi4, default
}

set PROPERTIES_ORIGIN ["COM"]
properties('MP2/aug-cc-pvtz', properties = ['dipole'])
--------------------------------------------------------------------------

    Molecular point group: c1
  Charge       = 0
  Multiplicity = 1
  Basis Set: AUG-CC-PVTZ
    Blend: AUG-CC-PVTZ
  Basis Set: (AUG-CC-PVTZ AUX)
    Blend: AUG-CC-PVTZ-JKFIT

    Orbital Energies [Eh]
    ---------------------

    Doubly Occupied:

       1A    -15.570241     2A    -15.565136     3A    -11.322627
       4A    -11.310143     5A    -11.296562     6A    -11.244007
       7A    -11.235240     8A    -11.229674     9A    -11.228989
      10A     -1.302813    11A     -1.186285    12A     -1.149081
      13A     -1.058234    14A     -0.917390    15A     -0.881902
      16A     -0.821988    17A     -0.804404    18A     -0.714562
      19A     -0.700837    20A     -0.667332    21A     -0.643633
      22A     -0.609360    23A     -0.574253    24A     -0.571898
      25A     -0.527704    26A     -0.514655    27A     -0.483321
      28A     -0.439670    29A     -0.428644    30A     -0.418140
      31A     -0.404644    32A     -0.344568

  @DF-RHF Final Energy:  -378.71719271093843

   => Energetics <=

    Nuclear Repulsion Energy =            411.8310673715299686
    One-Electron Energy =               -1328.7606467808159323
    Two-Electron Energy =                 538.2123866983474727
    Total Energy =                       -378.7171927109384342
  Basis Set: (AUG-CC-PVTZ AUX)
    Blend: AUG-CC-PVTZ-RI
    Molecular point group: c1

    Geometry (in Angstrom), charge = 0, multiplicity = 1:

       Center              X                  Y                   Z               Mass
    ------------   -----------------  -----------------  -----------------  -----------------
         N            0.179952375215     1.014777324577     0.000000939502    14.003074004430
         N            0.750367375215    -1.318891675423    -0.000002060498    14.003074004430
         C           -1.562994624785    -0.653783675423    -0.000003060498    12.000000000000
         C           -2.539939624785     0.228463324577     0.746382939502    12.000000000000
         C           -2.539939624785     0.228465324577    -0.746382060498    12.000000000000
         C           -0.130620624785    -0.297813675423     0.000000939502    12.000000000000
         C            1.485380375215     1.320037324577     0.000000939502    12.000000000000
         C            2.049709375215    -0.980027675423     0.000002939502    12.000000000000
         C            2.544373475215     0.415728124577     0.000000139502    12.000000000000
         H           -1.747470624785    -1.723169675423     0.000000939502     1.007825032230
         H           -2.115860624785     1.093983324577     1.243834939502     1.007825032230
         H           -3.353446624785    -0.262917675423     1.270160939502     1.007825032230
         H           -3.353447624785    -0.262902675423    -1.270170060498     1.007825032230
         H           -2.115856624785     1.093989324577    -1.243824060498     1.007825032230
         H            1.731479375215     2.380921324577    -0.000007060498     1.007825032230
         H            2.759557375215    -1.805792675423    -0.000010060498     1.007825032230
         H            3.532568375215     0.602855324577    -0.000003060498     1.007825032230

  Basis Set: AUG-CC-PVTZ
    Blend: AUG-CC-PVTZ
  Basis Set: (AUG-CC-PVTZ AUX)
    Blend: AUG-CC-PVTZ-JKFIT
	 Reference Energy          =    -378.7171927109384342 [Eh]
	 Singles Energy            =      -0.0000000000000000 [Eh]
	 Same-Spin Energy          =      -0.4130036020999063 [Eh]
	 Opposite-Spin Energy      =      -1.2912759754157057 [Eh]
	 Correlation Energy        =      -1.7042795775156121 [Eh]
	 Total Energy              =    -380.4214722884540265 [Eh]

	 ================> DF-SCS-MP2 Energies <==================
	-----------------------------------------------------------
	 SCS Same-Spin Scale       =       0.3333333333333333 [-]
	 SCS Opposite-Spin Scale   =       1.2000000000000000 [-]
	 SCS Same-Spin Energy      =      -0.1376678673666354 [Eh]
	 SCS Opposite-Spin Energy  =      -1.5495311704988468 [Eh]
	 SCS Correlation Energy    =      -1.6871990378654822 [Eh]
	 SCS Total Energy          =    -380.4043917488039028 [Eh]
	-----------------------------------------------------------

  Dipole Moment: [D]
     X:     1.4033      Y:     0.5064      Z:    -0.0000     Total:     1.4918

*** Psi4 exiting successfully. Buy a developer a beer!
