                               Psi4 1.3.2 release

  ==> Input File <==

--------------------------------------------------------------------------
#psi4
#
memory 32 gb

molecule  {
0 1
  N        0.2222710     1.0128310     0.0000010
  N        0.7926860    -1.3208380    -0.0000020
  C       -1.5206760    -0.6557300    -0.0000030
  C       -2.4976210     0.2265170     0.7463830
  C       -2.4976210     0.2265190    -0.7463820
  C       -0.2238038    -0.2601058     0.0000010
  C        1.5276990     1.3180910     0.0000010
  C        2.0920280    -0.9819740     0.0000030
  C        2.5210310     0.3421130     0.0000010
  H       -1.7051520    -1.7251160     0.0000010
  H       -2.0735420     1.0920370     1.2438350
  H       -3.3111280    -0.2648640     1.2701610
  H       -3.3111290    -0.2648490    -1.2701700
  H       -2.0735380     1.0920430    -1.2438240
  H        1.7737980     2.3789750    -0.0000070
  H        2.8018760    -1.8077390    -0.0000100
  H        3.5748870     0.6009090    -0.0000030
units angstrom
no_reorient  #important for SAPT in psi4, default
symmetry c1  #important for SAPT in psi4, default
}

set PROPERTIES_ORIGIN ["COM"]
properties('MP2/aug-cc-pvtz', properties = ['dipole'])
--------------------------------------------------------------------------

    Molecular point group: c1
  Charge       = 0
  Multiplicity = 1
  Basis Set: AUG-CC-PVTZ
    Blend: AUG-CC-PVTZ
  Basis Set: (AUG-CC-PVTZ AUX)
    Blend: AUG-CC-PVTZ-JKFIT

    Orbital Energies [Eh]
    ---------------------

    Doubly Occupied:

       1A    -15.564488     2A    -15.560633     3A    -11.327808
       4A    -11.293792     5A    -11.288927     6A    -11.241113
       7A    -11.240320     8A    -11.237619     9A    -11.234616
      10A     -1.284631    11A     -1.172213    12A     -1.160777
      13A     -1.057159    14A     -0.933158    15A     -0.878223
      16A     -0.833204    17A     -0.802538    18A     -0.724379
      19A     -0.688360    20A     -0.666244    21A     -0.635309
      22A     -0.602780    23A     -0.581169    24A     -0.567910
      25A     -0.551038    26A     -0.523013    27A     -0.472644
      28A     -0.457442    29A     -0.437363    30A     -0.408359
      31A     -0.382220    32A     -0.332032

  @DF-RHF Final Energy:  -378.69823509436185

   => Energetics <=

    Nuclear Repulsion Energy =            413.1013124696257250
    One-Electron Energy =               -1331.3161370248810726
    Two-Electron Energy =                 539.5165894608934423
    Total Energy =                       -378.6982350943618485
  Basis Set: (AUG-CC-PVTZ AUX)
    Blend: AUG-CC-PVTZ-RI
    Molecular point group: c1

    Geometry (in Angstrom), charge = 0, multiplicity = 1:

       Center              X                  Y                   Z               Mass
    ------------   -----------------  -----------------  -----------------  -----------------
         N            0.200057147146     1.017976951504     0.000000859548    14.003074004430
         N            0.770472147146    -1.315692048496    -0.000002140452    14.003074004430
         C           -1.542889852854    -0.650584048496    -0.000003140452    12.000000000000
         C           -2.519834852854     0.231662951504     0.746382859548    12.000000000000
         C           -2.519834852854     0.231664951504    -0.746382140452    12.000000000000
         C           -0.246017652854    -0.254959848496     0.000000859548    12.000000000000
         C            1.505485147146     1.323236951504     0.000000859548    12.000000000000
         C            2.069814147146    -0.976828048496     0.000002859548    12.000000000000
         C            2.498817147146     0.347258951504     0.000000859548    12.000000000000
         H           -1.727365852854    -1.719970048496     0.000000859548     1.007825032230
         H           -2.095755852854     1.097182951504     1.243834859548     1.007825032230
         H           -3.333341852854    -0.259718048496     1.270160859548     1.007825032230
         H           -3.333342852854    -0.259703048496    -1.270170140452     1.007825032230
         H           -2.095751852854     1.097188951504    -1.243824140452     1.007825032230
         H            1.751584147146     2.384120951504    -0.000007140452     1.007825032230
         H            2.779662147146    -1.802593048496    -0.000010140452     1.007825032230
         H            3.552673147146     0.606054951504    -0.000003140452     1.007825032230

  Basis Set: AUG-CC-PVTZ
    Blend: AUG-CC-PVTZ
  Basis Set: (AUG-CC-PVTZ AUX)
    Blend: AUG-CC-PVTZ-JKFIT
	 Reference Energy          =    -378.6982350943618485 [Eh]
	 Singles Energy            =      -0.0000000000000000 [Eh]
	 Same-Spin Energy          =      -0.4163002198645022 [Eh]
	 Opposite-Spin Energy      =      -1.2960937523412921 [Eh]
	 Correlation Energy        =      -1.7123939722057941 [Eh]
	 Total Energy              =    -380.4106290665676511 [Eh]

	 ================> DF-SCS-MP2 Energies <==================
	-----------------------------------------------------------
	 SCS Same-Spin Scale       =       0.3333333333333333 [-]
	 SCS Opposite-Spin Scale   =       1.2000000000000000 [-]
	 SCS Same-Spin Energy      =      -0.1387667399548340 [Eh]
	 SCS Opposite-Spin Energy  =      -1.5553125028095505 [Eh]
	 SCS Correlation Energy    =      -1.6940792427643845 [Eh]
	 SCS Total Energy          =    -380.3923143371262086 [Eh]
	-----------------------------------------------------------

  Dipole Moment: [D]
     X:     0.4992      Y:     0.5829      Z:    -0.0000     Total:     0.7675

*** Psi4 exiting successfully. Buy a developer a beer!
