                               Psi4 1.4a3.dev225

  ==> Input File <==

--------------------------------------------------------------------------
#psi4
#
memory 32 gb

molecule  {
0 1
  N        0.2222710     1.0128310     0.0000010
  N        0.7926860    -1.3208380    -0.0000020
  C       -1.5206760    -0.6557300    -0.0000030
  C       -2.4976210     0.2265170     0.7463830
  C       -2.4976210     0.2265190    -0.7463820
  C       -0.0767893    -0.2511035     0.0000010
  C        1.5276990     1.3180910     0.0000010
  C        2.0920280    -0.9819740     0.0000030
  C        2.5210310     0.3421130     0.0000010
  H       -1.7051520    -1.7251160     0.0000010
  H       -2.0735420     1.0920370     1.2438350
  H       -3.3111280    -0.2648640     1.2701610
  H       -3.3111290    -0.2648490    -1.2701700
  H       -2.0735380     1.0920430    -1.2438240
  H        1.7737980     2.3789750    -0.0000070
  H        2.8018760    -1.8077390    -0.0000100
  H        3.5748870     0.6009090    -0.0000030
units angstrom
no_reorient  #important for SAPT in psi4, default
symmetry c1  #important for SAPT in psi4, default
}

set PROPERTIES_ORIGIN ["COM"]
properties('MP2/aug-cc-pvtz', properties = ['dipole'])
--------------------------------------------------------------------------

    Molecular point group: c1
  Charge       = 0
  Multiplicity = 1
  Basis Set: AUG-CC-PVTZ
    Blend: AUG-CC-PVTZ
  Basis Set: (AUG-CC-PVTZ AUX)
    Blend: AUG-CC-PVTZ-JKFIT

    Orbital Energies [Eh]
    ---------------------

    Doubly Occupied:

       1A    -15.569072     2A    -15.565263     3A    -11.318089
       4A    -11.301034     5A    -11.297690     6A    -11.243183
       7A    -11.233517     8A    -11.226432     9A    -11.225740
      10A     -1.311878    11A     -1.190580    12A     -1.146583
      13A     -1.065353    14A     -0.906093    15A     -0.895502
      16A     -0.819503    17A     -0.800166    18A     -0.720206
      19A     -0.696644    20A     -0.658909    21A     -0.633098
      22A     -0.605363    23A     -0.588639    24A     -0.580529
      25A     -0.526846    26A     -0.512781    27A     -0.477377
      28A     -0.438740    29A     -0.422328    30A     -0.420243
      31A     -0.411636    32A     -0.350563

  @DF-RHF Final Energy:  -378.72805455429204

   => Energetics <=

    Nuclear Repulsion Energy =            413.6622608484584589
    One-Electron Energy =               -1332.4614726910122045
    Two-Electron Energy =                 540.0711572882617020
    Total Energy =                       -378.7280545542920436
  Basis Set: (AUG-CC-PVTZ AUX)
    Blend: AUG-CC-PVTZ-RI
    Molecular point group: c1

    Geometry (in Angstrom), charge = 0, multiplicity = 1:

       Center              X                  Y                   Z               Mass
    ------------   -----------------  -----------------  -----------------  -----------------
         N            0.185364114817     1.017077236952     0.000000859548    14.003074004430
         N            0.755779114817    -1.316591763048    -0.000002140452    14.003074004430
         C           -1.557582885183    -0.651483763048    -0.000003140452    12.000000000000
         C           -2.534527885183     0.230763236952     0.746382859548    12.000000000000
         C           -2.534527885183     0.230765236952    -0.746382140452    12.000000000000
         C           -0.113696185183    -0.246857263048     0.000000859548    12.000000000000
         C            1.490792114817     1.322337236952     0.000000859548    12.000000000000
         C            2.055121114817    -0.977727763048     0.000002859548    12.000000000000
         C            2.484124114817     0.346359236952     0.000000859548    12.000000000000
         H           -1.742058885183    -1.720869763048     0.000000859548     1.007825032230
         H           -2.110448885183     1.096283236952     1.243834859548     1.007825032230
         H           -3.348034885183    -0.260617763048     1.270160859548     1.007825032230
         H           -3.348035885183    -0.260602763048    -1.270170140452     1.007825032230
         H           -2.110444885183     1.096289236952    -1.243824140452     1.007825032230
         H            1.736891114817     2.383221236952    -0.000007140452     1.007825032230
         H            2.764969114817    -1.803492763048    -0.000010140452     1.007825032230
         H            3.537980114817     0.605155236952    -0.000003140452     1.007825032230

  Basis Set: AUG-CC-PVTZ
    Blend: AUG-CC-PVTZ
  Basis Set: (AUG-CC-PVTZ AUX)
    Blend: AUG-CC-PVTZ-JKFIT
	 Reference Energy          =    -378.7280545542920436 [Eh]
	 Singles Energy            =      -0.0000000000000000 [Eh]
	 Same-Spin Energy          =      -0.4129432196005823 [Eh]
	 Opposite-Spin Energy      =      -1.2903628913208536 [Eh]
	 Correlation Energy        =      -1.7033061109214360 [Eh]
	 Total Energy              =    -380.4313606652135036 [Eh]

	 ================> DF-SCS-MP2 Energies <==================
	-----------------------------------------------------------
	 SCS Same-Spin Scale       =       0.3333333333333333 [-]
	 SCS Opposite-Spin Scale   =       1.2000000000000000 [-]
	 SCS Same-Spin Energy      =      -0.1376477398668608 [Eh]
	 SCS Opposite-Spin Energy  =      -1.5484354695850242 [Eh]
	 SCS Correlation Energy    =      -1.6860832094518849 [Eh]
	 SCS Total Energy          =    -380.4141377637439518 [Eh]
	-----------------------------------------------------------

  Dipole Moment: [D]
     X:     1.5726      Y:     0.6394      Z:    -0.0000     Total:     1.6976

*** Psi4 exiting successfully. Buy a developer a beer!
