                               Psi4 1.4a3.dev225

  ==> Input File <==

--------------------------------------------------------------------------
#psi4
#
memory 32 gb

molecule  {
0 1
  N        0.2222710     1.0128310     0.0000010
  N        0.7926860    -1.3208380    -0.0000020
  C       -1.5206760    -0.6557300    -0.0000030
  C       -2.4976210     0.2265170     0.7463830
  C       -2.4976210     0.2265190    -0.7463820
  C       -0.0883020    -0.2997600     0.0000010
  C        1.5471736     1.3226449     0.0000010
  C        2.0920280    -0.9819740     0.0000030
  C        2.5210310     0.3421130     0.0000010
  H       -1.7051520    -1.7251160     0.0000010
  H       -2.0735420     1.0920370     1.2438350
  H       -3.3111280    -0.2648640     1.2701610
  H       -3.3111290    -0.2648490    -1.2701700
  H       -2.0735380     1.0920430    -1.2438240
  H        1.7737980     2.3789750    -0.0000070
  H        2.8018760    -1.8077390    -0.0000100
  H        3.5748870     0.6009090    -0.0000030
units angstrom
no_reorient  #important for SAPT in psi4, default
symmetry c1  #important for SAPT in psi4, default
}

set PROPERTIES_ORIGIN ["COM"]
properties('MP2/aug-cc-pvtz', properties = ['dipole'])
--------------------------------------------------------------------------

    Molecular point group: c1
  Charge       = 0
  Multiplicity = 1
  Basis Set: AUG-CC-PVTZ
    Blend: AUG-CC-PVTZ
  Basis Set: (AUG-CC-PVTZ AUX)
    Blend: AUG-CC-PVTZ-JKFIT

    Orbital Energies [Eh]
    ---------------------

    Doubly Occupied:

       1A    -15.567239     2A    -15.567068     3A    -11.318994
       4A    -11.298821     5A    -11.298736     6A    -11.241861
       7A    -11.233623     8A    -11.228124     9A    -11.227440
      10A     -1.302522    11A     -1.183068    12A     -1.148230
      13A     -1.066370    14A     -0.910856    15A     -0.891541
      16A     -0.820663    17A     -0.802002    18A     -0.717886
      19A     -0.697954    20A     -0.656383    21A     -0.634183
      22A     -0.607837    23A     -0.589151    24A     -0.575518
      25A     -0.527074    26A     -0.513754    27A     -0.475639
      28A     -0.441420    29A     -0.426743    30A     -0.414819
      31A     -0.408614    32A     -0.349677

  @DF-RHF Final Energy:  -378.72890526149962

   => Energetics <=

    Nuclear Repulsion Energy =            413.1210814154565583
    One-Electron Energy =               -1331.4123485272725702
    Two-Electron Energy =                 539.5623618503165062
    Total Energy =                       -378.7289052614995626
  Basis Set: (AUG-CC-PVTZ AUX)
    Blend: AUG-CC-PVTZ-RI
    Molecular point group: c1

    Geometry (in Angstrom), charge = 0, multiplicity = 1:

       Center              X                  Y                   Z               Mass
    ------------   -----------------  -----------------  -----------------  -----------------
         N            0.184568380695     1.021484971751     0.000000859548    14.003074004430
         N            0.754983380695    -1.312184028249    -0.000002140452    14.003074004430
         C           -1.558378619305    -0.647076028249    -0.000003140452    12.000000000000
         C           -2.535323619305     0.235170971751     0.746382859548    12.000000000000
         C           -2.535323619305     0.235172971751    -0.746382140452    12.000000000000
         C           -0.126004619305    -0.291106028249     0.000000859548    12.000000000000
         C            1.509470980695     1.331298871751     0.000000859548    12.000000000000
         C            2.054325380695    -0.973320028249     0.000002859548    12.000000000000
         C            2.483328380695     0.350766971751     0.000000859548    12.000000000000
         H           -1.742854619305    -1.716462028249     0.000000859548     1.007825032230
         H           -2.111244619305     1.100690971751     1.243834859548     1.007825032230
         H           -3.348830619305    -0.256210028249     1.270160859548     1.007825032230
         H           -3.348831619305    -0.256195028249    -1.270170140452     1.007825032230
         H           -2.111240619305     1.100696971751    -1.243824140452     1.007825032230
         H            1.736095380695     2.387628971751    -0.000007140452     1.007825032230
         H            2.764173380695    -1.799085028249    -0.000010140452     1.007825032230
         H            3.537184380695     0.609562971751    -0.000003140452     1.007825032230

  Basis Set: AUG-CC-PVTZ
    Blend: AUG-CC-PVTZ
  Basis Set: (AUG-CC-PVTZ AUX)
    Blend: AUG-CC-PVTZ-JKFIT
	 Reference Energy          =    -378.7289052614996194 [Eh]
	 Singles Energy            =      -0.0000000000000000 [Eh]
	 Same-Spin Energy          =      -0.4134239618807052 [Eh]
	 Opposite-Spin Energy      =      -1.2911855331763935 [Eh]
	 Correlation Energy        =      -1.7046094950570987 [Eh]
	 Total Energy              =    -380.4335147565566899 [Eh]

	 ================> DF-SCS-MP2 Energies <==================
	-----------------------------------------------------------
	 SCS Same-Spin Scale       =       0.3333333333333333 [-]
	 SCS Opposite-Spin Scale   =       1.2000000000000000 [-]
	 SCS Same-Spin Energy      =      -0.1378079872935684 [Eh]
	 SCS Opposite-Spin Energy  =      -1.5494226398116722 [Eh]
	 SCS Correlation Energy    =      -1.6872306271052406 [Eh]
	 SCS Total Energy          =    -380.4161358886048561 [Eh]
	-----------------------------------------------------------

  Dipole Moment: [D]
     X:     1.4646      Y:     0.6070      Z:    -0.0000     Total:     1.5854

*** Psi4 exiting successfully. Buy a developer a beer!
