                               Psi4 1.3.2 release

  ==> Input File <==

--------------------------------------------------------------------------
#psi4
#
memory 32 gb

molecule  {
0 1
  N        0.2222710     1.0128310     0.0000010
  N        0.7926860    -1.3208380    -0.0000020
  C       -1.5206760    -0.6557300    -0.0000030
  C       -2.4976210     0.2265170     0.7463830
  C       -2.4976210     0.2265190    -0.7463820
  C       -0.0883020    -0.2997600     0.0000010
  C        1.5276990     1.3180910     0.0000010
  C        2.0920280    -0.9819740     0.0000030
  C        2.5210310     0.3421130     0.0000010
  H       -1.7051520    -1.7251160     0.0000010
  H       -2.0735420     1.0920370     1.2438350
  H       -3.3111280    -0.2648640     1.2701610
  H       -3.3111290    -0.2648490    -1.2701700
  H       -2.0735380     1.0920430    -1.2438240
  H        1.7737980     2.3789750    -0.0000070
  H        2.8018760    -1.8077390    -0.0000100
  H        3.4777724     0.5770605    -0.0000026
units angstrom
no_reorient  #important for SAPT in psi4, default
symmetry c1  #important for SAPT in psi4, default
}

set PROPERTIES_ORIGIN ["COM"]
properties('MP2/aug-cc-pvtz', properties = ['dipole'])
--------------------------------------------------------------------------

    Molecular point group: c1
  Charge       = 0
  Multiplicity = 1
  Basis Set: AUG-CC-PVTZ
    Blend: AUG-CC-PVTZ
  Basis Set: (AUG-CC-PVTZ AUX)
    Blend: AUG-CC-PVTZ-JKFIT

    Orbital Energies [Eh]
    ---------------------

    Doubly Occupied:

       1A    -15.566174     2A    -15.566113     3A    -11.319546
       4A    -11.298252     5A    -11.296921     6A    -11.233845
       7A    -11.230254     8A    -11.228424     9A    -11.227741
      10A     -1.304743    11A     -1.186250    12A     -1.148979
      13A     -1.068207    14A     -0.915608    15A     -0.890271
      16A     -0.820964    17A     -0.803600    18A     -0.720803
      19A     -0.701114    20A     -0.668186    21A     -0.640854
      22A     -0.609137    23A     -0.586862    24A     -0.576524
      25A     -0.526985    26A     -0.514005    27A     -0.478959
      28A     -0.441110    29A     -0.427070    30A     -0.417319
      31A     -0.407369    32A     -0.347966

  @DF-RHF Final Energy:  -378.72421066571411

   => Energetics <=

    Nuclear Repulsion Energy =            413.9401045956238931
    One-Electron Energy =               -1332.9883251704643499
    Two-Electron Energy =                 540.3240099091264028
    Total Energy =                       -378.7242106657140539
  Basis Set: (AUG-CC-PVTZ AUX)
    Blend: AUG-CC-PVTZ-RI
    Molecular point group: c1

    Geometry (in Angstrom), charge = 0, multiplicity = 1:

       Center              X                  Y                   Z               Mass
    ------------   -----------------  -----------------  -----------------  -----------------
         N            0.187329879667     1.022140278951     0.000000856190    14.003074004430
         N            0.757744879667    -1.311528721049    -0.000002143810    14.003074004430
         C           -1.555617120333    -0.646420721049    -0.000003143810    12.000000000000
         C           -2.532562120333     0.235826278951     0.746382856190    12.000000000000
         C           -2.532562120333     0.235828278951    -0.746382143810    12.000000000000
         C           -0.123243120333    -0.290450721049     0.000000856190    12.000000000000
         C            1.492757879667     1.327400278951     0.000000856190    12.000000000000
         C            2.057086879667    -0.972664721049     0.000002856190    12.000000000000
         C            2.486089879667     0.351422278951     0.000000856190    12.000000000000
         H           -1.740093120333    -1.715806721049     0.000000856190     1.007825032230
         H           -2.108483120333     1.101346278951     1.243834856190     1.007825032230
         H           -3.346069120333    -0.255554721049     1.270160856190     1.007825032230
         H           -3.346070120333    -0.255539721049    -1.270170143810     1.007825032230
         H           -2.108479120333     1.101352278951    -1.243824143810     1.007825032230
         H            1.738856879667     2.388284278951    -0.000007143810     1.007825032230
         H            2.766934879667    -1.798429721049    -0.000010143810     1.007825032230
         H            3.442831279667     0.586369778951    -0.000002743810     1.007825032230

  Basis Set: AUG-CC-PVTZ
    Blend: AUG-CC-PVTZ
  Basis Set: (AUG-CC-PVTZ AUX)
    Blend: AUG-CC-PVTZ-JKFIT
	 Reference Energy          =    -378.7242106657141107 [Eh]
	 Singles Energy            =      -0.0000000000000000 [Eh]
	 Same-Spin Energy          =      -0.4131062217322556 [Eh]
	 Opposite-Spin Energy      =      -1.2902786659250216 [Eh]
	 Correlation Energy        =      -1.7033848876572772 [Eh]
	 Total Energy              =    -380.4275955533713613 [Eh]

	 ================> DF-SCS-MP2 Energies <==================
	-----------------------------------------------------------
	 SCS Same-Spin Scale       =       0.3333333333333333 [-]
	 SCS Opposite-Spin Scale   =       1.2000000000000000 [-]
	 SCS Same-Spin Energy      =      -0.1377020739107519 [Eh]
	 SCS Opposite-Spin Energy  =      -1.5483343991100258 [Eh]
	 SCS Correlation Energy    =      -1.6860364730207777 [Eh]
	 SCS Total Energy          =    -380.4102471387349169 [Eh]
	-----------------------------------------------------------

  Dipole Moment: [D]
     X:     1.4472      Y:     0.6130      Z:    -0.0000     Total:     1.5716

*** Psi4 exiting successfully. Buy a developer a beer!
