                               Psi4 1.3.2 release

  ==> Input File <==

--------------------------------------------------------------------------
#psi4
#
memory 32 gb

molecule  {
0 1
  N        0.2222710     1.0128310     0.0000010
  N        0.7926860    -1.3208380    -0.0000020
  C       -1.5206760    -0.6557300    -0.0000030
  C       -2.4976210     0.2265170     0.7463830
  C       -2.4976210     0.2265190    -0.7463820
  C       -0.1853500    -0.3238781     0.0000007
  C        1.5276990     1.3180910     0.0000010
  C        2.0920280    -0.9819740     0.0000030
  C        2.5210310     0.3421130     0.0000010
  H       -1.7051520    -1.7251160     0.0000010
  H       -2.0735420     1.0920370     1.2438350
  H       -3.3111280    -0.2648640     1.2701610
  H       -3.3111290    -0.2648490    -1.2701700
  H       -2.0735380     1.0920430    -1.2438240
  H        1.7737980     2.3789750    -0.0000070
  H        2.8018760    -1.8077390    -0.0000100
  H        3.5748870     0.6009090    -0.0000030
units angstrom
no_reorient  #important for SAPT in psi4, default
symmetry c1  #important for SAPT in psi4, default
}

set PROPERTIES_ORIGIN ["COM"]
properties('MP2/aug-cc-pvtz', properties = ['dipole'])
--------------------------------------------------------------------------

    Molecular point group: c1
  Charge       = 0
  Multiplicity = 1
  Basis Set: AUG-CC-PVTZ
    Blend: AUG-CC-PVTZ
  Basis Set: (AUG-CC-PVTZ AUX)
    Blend: AUG-CC-PVTZ-JKFIT

    Orbital Energies [Eh]
    ---------------------

    Doubly Occupied:

       1A    -15.564043     2A    -15.563729     3A    -11.326755
       4A    -11.293619     5A    -11.292185     6A    -11.238820
       7A    -11.238000     8A    -11.236382     9A    -11.236046
      10A     -1.285580    11A     -1.170743    12A     -1.161653
      13A     -1.058957    14A     -0.930830    15A     -0.877278
      16A     -0.830317    17A     -0.805609    18A     -0.720590
      19A     -0.693206    20A     -0.658690    21A     -0.638691
      22A     -0.606301    23A     -0.582470    24A     -0.567650
      25A     -0.542412    26A     -0.521294    27A     -0.474002
      28A     -0.454253    29A     -0.437469    30A     -0.409391
      31A     -0.388758    32A     -0.335403

  @DF-RHF Final Energy:  -378.71061752609614

   => Energetics <=

    Nuclear Repulsion Energy =            412.9382123827141413
    One-Electron Energy =               -1331.0154147397881843
    Two-Electron Energy =                 539.3665848309778994
    Total Energy =                       -378.7106175260961436
  Basis Set: (AUG-CC-PVTZ AUX)
    Blend: AUG-CC-PVTZ-RI
    Molecular point group: c1

    Geometry (in Angstrom), charge = 0, multiplicity = 1:

       Center              X                  Y                   Z               Mass
    ------------   -----------------  -----------------  -----------------  -----------------
         N            0.196213968911     1.024350530066     0.000000889531    14.003074004430
         N            0.766628968911    -1.309318469934    -0.000002110469    14.003074004430
         C           -1.546733031089    -0.644210469934    -0.000003110469    12.000000000000
         C           -2.523678031089     0.238036530066     0.746382889531    12.000000000000
         C           -2.523678031089     0.238038530066    -0.746382110469    12.000000000000
         C           -0.211407031089    -0.312358569934     0.000000589531    12.000000000000
         C            1.501641968911     1.329610530066     0.000000889531    12.000000000000
         C            2.065970968911    -0.970454469934     0.000002889531    12.000000000000
         C            2.494973968911     0.353632530066     0.000000889531    12.000000000000
         H           -1.731209031089    -1.713596469934     0.000000889531     1.007825032230
         H           -2.099599031089     1.103556530066     1.243834889531     1.007825032230
         H           -3.337185031089    -0.253344469934     1.270160889531     1.007825032230
         H           -3.337186031089    -0.253329469934    -1.270170110469     1.007825032230
         H           -2.099595031089     1.103562530066    -1.243824110469     1.007825032230
         H            1.747740968911     2.390494530066    -0.000007110469     1.007825032230
         H            2.775818968911    -1.796219469934    -0.000010110469     1.007825032230
         H            3.548829968911     0.612428530066    -0.000003110469     1.007825032230

  Basis Set: AUG-CC-PVTZ
    Blend: AUG-CC-PVTZ
  Basis Set: (AUG-CC-PVTZ AUX)
    Blend: AUG-CC-PVTZ-JKFIT
	 Reference Energy          =    -378.7106175260961436 [Eh]
	 Singles Energy            =      -0.0000000000000000 [Eh]
	 Same-Spin Energy          =      -0.4155568313039837 [Eh]
	 Opposite-Spin Energy      =      -1.2945313233607578 [Eh]
	 Correlation Energy        =      -1.7100881546647415 [Eh]
	 Total Energy              =    -380.4207056807608751 [Eh]

	 ================> DF-SCS-MP2 Energies <==================
	-----------------------------------------------------------
	 SCS Same-Spin Scale       =       0.3333333333333333 [-]
	 SCS Opposite-Spin Scale   =       1.2000000000000000 [-]
	 SCS Same-Spin Energy      =      -0.1385189437679946 [Eh]
	 SCS Opposite-Spin Energy  =      -1.5534375880329094 [Eh]
	 SCS Correlation Energy    =      -1.6919565318009040 [Eh]
	 SCS Total Energy          =    -380.4025740578970272 [Eh]
	-----------------------------------------------------------

  Dipole Moment: [D]
     X:     0.7067      Y:     0.5632      Z:    -0.0000     Total:     0.9037

*** Psi4 exiting successfully. Buy a developer a beer!
