                               Psi4 1.3.2 release

  ==> Input File <==

--------------------------------------------------------------------------
#psi4
#
memory 32 gb

molecule  {
0 1
  N        0.2222710     1.0128310     0.0000010
  N        0.7926860    -1.3208380    -0.0000020
  C       -1.5206760    -0.6557300    -0.0000030
  C       -2.4976210     0.2265170     0.7463830
  C       -2.4976210     0.2265190    -0.7463820
  C       -0.0883020    -0.2997600     0.0000010
  C        1.5276990     1.3180910     0.0000010
  C        2.0920280    -0.9819740     0.0000030
  C        2.5210310     0.3421130     0.0000010
  H       -1.7051520    -1.7251160     0.0000010
  H       -2.0735420     1.0920370     1.2438350
  H       -3.3111280    -0.2648640     1.2701610
  H       -3.3111290    -0.2648490    -1.2701700
  H       -2.0735380     1.0920430    -1.2438240
  H        1.7512005     2.2815617    -0.0000063
  H        2.8018760    -1.8077390    -0.0000100
  H        3.5748870     0.6009090    -0.0000030
units angstrom
no_reorient  #important for SAPT in psi4, default
symmetry c1  #important for SAPT in psi4, default
}

set PROPERTIES_ORIGIN ["COM"]
properties('MP2/aug-cc-pvtz', properties = ['dipole'])
--------------------------------------------------------------------------

    Molecular point group: c1
  Charge       = 0
  Multiplicity = 1
  Basis Set: AUG-CC-PVTZ
    Blend: AUG-CC-PVTZ
  Basis Set: (AUG-CC-PVTZ AUX)
    Blend: AUG-CC-PVTZ-JKFIT

    Orbital Energies [Eh]
    ---------------------

    Doubly Occupied:

       1A    -15.566613     2A    -15.565977     3A    -11.319141
       4A    -11.297082     5A    -11.287307     6A    -11.241206
       7A    -11.233751     8A    -11.228384     9A    -11.227702
      10A     -1.304940    11A     -1.187158    12A     -1.149104
      13A     -1.065351    14A     -0.911084    15A     -0.900086
      16A     -0.820935    17A     -0.805605    18A     -0.726098
      19A     -0.698209    20A     -0.656132    21A     -0.635412
      22A     -0.615805    23A     -0.591825    24A     -0.576540
      25A     -0.527747    26A     -0.513989    27A     -0.476770
      28A     -0.441086    29A     -0.426971    30A     -0.417416
      31A     -0.408503    32A     -0.347808

  @DF-RHF Final Energy:  -378.72442499682006

   => Energetics <=

    Nuclear Repulsion Energy =            413.9485676371822933
    One-Electron Energy =               -1333.0025100433367697
    Two-Electron Energy =                 540.3295174093343576
    Total Energy =                       -378.7244249968200620
  Basis Set: (AUG-CC-PVTZ AUX)
    Blend: AUG-CC-PVTZ-RI
    Molecular point group: c1

    Geometry (in Angstrom), charge = 0, multiplicity = 1:

       Center              X                  Y                   Z               Mass
    ------------   -----------------  -----------------  -----------------  -----------------
         N            0.186704403014     1.022757762252     0.000000853672    14.003074004430
         N            0.757119403014    -1.310911237748    -0.000002146328    14.003074004430
         C           -1.556242596986    -0.645803237748    -0.000003146328    12.000000000000
         C           -2.533187596986     0.236443762252     0.746382853672    12.000000000000
         C           -2.533187596986     0.236445762252    -0.746382146328    12.000000000000
         C           -0.123868596986    -0.289833237748     0.000000853672    12.000000000000
         C            1.492132403014     1.328017762252     0.000000853672    12.000000000000
         C            2.056461403014    -0.972047237748     0.000002853672    12.000000000000
         C            2.485464403014     0.352039762252     0.000000853672    12.000000000000
         H           -1.740718596986    -1.715189237748     0.000000853672     1.007825032230
         H           -2.109108596986     1.101963762252     1.243834853672     1.007825032230
         H           -3.346694596986    -0.254937237748     1.270160853672     1.007825032230
         H           -3.346695596986    -0.254922237748    -1.270170146328     1.007825032230
         H           -2.109104596986     1.101969762252    -1.243824146328     1.007825032230
         H            1.715633903014     2.291488462252    -0.000006446328     1.007825032230
         H            2.766309403014    -1.797812237748    -0.000010146328     1.007825032230
         H            3.539320403014     0.610835762252    -0.000003146328     1.007825032230

  Basis Set: AUG-CC-PVTZ
    Blend: AUG-CC-PVTZ
  Basis Set: (AUG-CC-PVTZ AUX)
    Blend: AUG-CC-PVTZ-JKFIT
	 Reference Energy          =    -378.7244249968200620 [Eh]
	 Singles Energy            =      -0.0000000000000000 [Eh]
	 Same-Spin Energy          =      -0.4130834537423618 [Eh]
	 Opposite-Spin Energy      =      -1.2901721349935227 [Eh]
	 Correlation Energy        =      -1.7032555887358845 [Eh]
	 Total Energy              =    -380.4276805855559473 [Eh]

	 ================> DF-SCS-MP2 Energies <==================
	-----------------------------------------------------------
	 SCS Same-Spin Scale       =       0.3333333333333333 [-]
	 SCS Opposite-Spin Scale   =       1.2000000000000000 [-]
	 SCS Same-Spin Energy      =      -0.1376944845807873 [Eh]
	 SCS Opposite-Spin Energy  =      -1.5482065619922272 [Eh]
	 SCS Correlation Energy    =      -1.6859010465730144 [Eh]
	 SCS Total Energy          =    -380.4103260433930700 [Eh]
	-----------------------------------------------------------

  Dipole Moment: [D]
     X:     1.4565      Y:     0.6319      Z:    -0.0000     Total:     1.5877

*** Psi4 exiting successfully. Buy a developer a beer!
