                               Psi4 1.4a3.dev225

  ==> Input File <==

--------------------------------------------------------------------------
#psi4
#
memory 32 gb

molecule  {
0 1
  N        0.2222710     1.0128310     0.0000010
  N        0.7926860    -1.3208380    -0.0000020
  C       -1.5206760    -0.6557300    -0.0000030
  C       -2.4976210     0.2265170     0.7463830
  C       -2.4976210     0.2265190    -0.7463820
  C       -0.0688924    -0.2949364     0.0000011
  C        1.5276990     1.3180910     0.0000010
  C        2.0920280    -0.9819740     0.0000030
  C        2.5210310     0.3421130     0.0000010
  H       -1.7051520    -1.7251160     0.0000010
  H       -2.0735420     1.0920370     1.2438350
  H       -3.3111280    -0.2648640     1.2701610
  H       -3.3111290    -0.2648490    -1.2701700
  H       -2.0735380     1.0920430    -1.2438240
  H        1.7737980     2.3789750    -0.0000070
  H        2.8018760    -1.8077390    -0.0000100
  H        3.5748870     0.6009090    -0.0000030
units angstrom
no_reorient  #important for SAPT in psi4, default
symmetry c1  #important for SAPT in psi4, default
}

set PROPERTIES_ORIGIN ["COM"]
properties('MP2/aug-cc-pvtz', properties = ['dipole'])
--------------------------------------------------------------------------

    Molecular point group: c1
  Charge       = 0
  Multiplicity = 1
  Basis Set: AUG-CC-PVTZ
    Blend: AUG-CC-PVTZ
  Basis Set: (AUG-CC-PVTZ AUX)
    Blend: AUG-CC-PVTZ-JKFIT

    Orbital Energies [Eh]
    ---------------------

    Doubly Occupied:

       1A    -15.567320     2A    -15.567296     3A    -11.318640
       4A    -11.299976     5A    -11.298649     6A    -11.242952
       7A    -11.233357     8A    -11.226819     9A    -11.226130
      10A     -1.309384    11A     -1.190803    12A     -1.146317
      13A     -1.065360    14A     -0.908508    15A     -0.892822
      16A     -0.819487    17A     -0.801599    18A     -0.718050
      19A     -0.699518    20A     -0.655659    21A     -0.634198
      22A     -0.606984    23A     -0.588392    24A     -0.579313
      25A     -0.525062    26A     -0.512854    27A     -0.476317
      28A     -0.438998    29A     -0.425351    30A     -0.419522
      31A     -0.411201    32A     -0.350477

  @DF-RHF Final Energy:  -378.73053273457026

   => Energetics <=

    Nuclear Repulsion Energy =            413.5085842049139728
    One-Electron Energy =               -1332.1636108440995940
    Two-Electron Energy =                 539.9244939046153604
    Total Energy =                       -378.7305327345702608
  Basis Set: (AUG-CC-PVTZ AUX)
    Blend: AUG-CC-PVTZ-RI
    Molecular point group: c1

    Geometry (in Angstrom), charge = 0, multiplicity = 1:

       Center              X                  Y                   Z               Mass
    ------------   -----------------  -----------------  -----------------  -----------------
         N            0.184574876973     1.021458017193     0.000000849554    14.003074004430
         N            0.754989876973    -1.312210982807    -0.000002150446    14.003074004430
         C           -1.558372123027    -0.647102982807    -0.000003150446    12.000000000000
         C           -2.535317123027     0.235144017193     0.746382849554    12.000000000000
         C           -2.535317123027     0.235146017193    -0.746382150446    12.000000000000
         C           -0.106588523027    -0.286309382807     0.000000949554    12.000000000000
         C            1.490002876973     1.326718017193     0.000000849554    12.000000000000
         C            2.054331876973    -0.973346982807     0.000002849554    12.000000000000
         C            2.483334876973     0.350740017193     0.000000849554    12.000000000000
         H           -1.742848123027    -1.716488982807     0.000000849554     1.007825032230
         H           -2.111238123027     1.100664017193     1.243834849554     1.007825032230
         H           -3.348824123027    -0.256236982807     1.270160849554     1.007825032230
         H           -3.348825123027    -0.256221982807    -1.270170150446     1.007825032230
         H           -2.111234123027     1.100670017193    -1.243824150446     1.007825032230
         H            1.736101876973     2.387602017193    -0.000007150446     1.007825032230
         H            2.764179876973    -1.799111982807    -0.000010150446     1.007825032230
         H            3.537190876973     0.609536017193    -0.000003150446     1.007825032230

  Basis Set: AUG-CC-PVTZ
    Blend: AUG-CC-PVTZ
  Basis Set: (AUG-CC-PVTZ AUX)
    Blend: AUG-CC-PVTZ-JKFIT
	 Reference Energy          =    -378.7305327345702608 [Eh]
	 Singles Energy            =      -0.0000000000000000 [Eh]
	 Same-Spin Energy          =      -0.4129398950767321 [Eh]
	 Opposite-Spin Energy      =      -1.2902166997306335 [Eh]
	 Correlation Energy        =      -1.7031565948073655 [Eh]
	 Total Energy              =    -380.4336893293776143 [Eh]

	 ================> DF-SCS-MP2 Energies <==================
	-----------------------------------------------------------
	 SCS Same-Spin Scale       =       0.3333333333333333 [-]
	 SCS Opposite-Spin Scale   =       1.2000000000000000 [-]
	 SCS Same-Spin Energy      =      -0.1376466316922440 [Eh]
	 SCS Opposite-Spin Energy  =      -1.5482600396767601 [Eh]
	 SCS Correlation Energy    =      -1.6859066713690041 [Eh]
	 SCS Total Energy          =    -380.4164394059392862 [Eh]
	-----------------------------------------------------------

  Dipole Moment: [D]
     X:     1.5670      Y:     0.6181      Z:    -0.0000     Total:     1.6845

*** Psi4 exiting successfully. Buy a developer a beer!
