                               Psi4 1.4a3.dev225

  ==> Input File <==

--------------------------------------------------------------------------
#psi4
#
memory 32 gb

molecule  {
0 1
  N        0.2222710     1.0128310     0.0000010
  N        0.7926860    -1.3208380    -0.0000020
  C       -1.5206760    -0.6557300    -0.0000030
  C       -2.4976210     0.2265170     0.7463830
  C       -2.4976210     0.2265190    -0.7463820
  C       -0.0883020    -0.2997600     0.0000010
  C        1.5276990     1.3180910     0.0000010
  C        2.0920280    -0.9819740     0.0000030
  C        2.4853655     0.3771554     0.0000010
  H       -1.7051520    -1.7251160     0.0000010
  H       -2.0735420     1.0920370     1.2438350
  H       -3.3111280    -0.2648640     1.2701610
  H       -3.3111290    -0.2648490    -1.2701700
  H       -2.0735380     1.0920430    -1.2438240
  H        1.7737980     2.3789750    -0.0000070
  H        2.8018760    -1.8077390    -0.0000100
  H        3.5748870     0.6009090    -0.0000030
units angstrom
no_reorient  #important for SAPT in psi4, default
symmetry c1  #important for SAPT in psi4, default
}

set PROPERTIES_ORIGIN ["COM"]
properties('MP2/aug-cc-pvtz', properties = ['dipole'])
--------------------------------------------------------------------------

    Molecular point group: c1
  Charge       = 0
  Multiplicity = 1
  Basis Set: AUG-CC-PVTZ
    Blend: AUG-CC-PVTZ
  Basis Set: (AUG-CC-PVTZ AUX)
    Blend: AUG-CC-PVTZ-JKFIT

    Orbital Energies [Eh]
    ---------------------

    Doubly Occupied:

       1A    -15.568645     2A    -15.564163     3A    -11.319113
       4A    -11.302828     5A    -11.289959     6A    -11.241192
       7A    -11.233644     8A    -11.228128     9A    -11.227444
      10A     -1.306271    11A     -1.187159    12A     -1.149233
      13A     -1.066499    14A     -0.913735    15A     -0.889024
      16A     -0.820655    17A     -0.802916    18A     -0.718209
      19A     -0.700569    20A     -0.652394    21A     -0.633317
      22A     -0.604733    23A     -0.590787    24A     -0.578218
      25A     -0.526933    26A     -0.513782    27A     -0.473843
      28A     -0.442615    29A     -0.426888    30A     -0.417766
      31A     -0.408191    32A     -0.349398

  @DF-RHF Final Energy:  -378.72682491015905

   => Energetics <=

    Nuclear Repulsion Energy =            413.9622158041533453
    One-Electron Energy =               -1333.0815769150772212
    Two-Electron Energy =                 540.3925362007647664
    Total Energy =                       -378.7268249101590527
  Basis Set: (AUG-CC-PVTZ AUX)
    Blend: AUG-CC-PVTZ-RI
    Molecular point group: c1

    Geometry (in Angstrom), charge = 0, multiplicity = 1:

       Center              X                  Y                   Z               Mass
    ------------   -----------------  -----------------  -----------------  -----------------
         N            0.190079233515     1.018437867444     0.000000859548    14.003074004430
         N            0.760494233515    -1.315231132556    -0.000002140452    14.003074004430
         C           -1.552867766485    -0.650123132556    -0.000003140452    12.000000000000
         C           -2.529812766485     0.232123867444     0.746382859548    12.000000000000
         C           -2.529812766485     0.232125867444    -0.746382140452    12.000000000000
         C           -0.120493766485    -0.294153132556     0.000000859548    12.000000000000
         C            1.495507233515     1.323697867444     0.000000859548    12.000000000000
         C            2.059836233515    -0.976367132556     0.000002859548    12.000000000000
         C            2.453173733515     0.382762267444     0.000000859548    12.000000000000
         H           -1.737343766485    -1.719509132556     0.000000859548     1.007825032230
         H           -2.105733766485     1.097643867444     1.243834859548     1.007825032230
         H           -3.343319766485    -0.259257132556     1.270160859548     1.007825032230
         H           -3.343320766485    -0.259242132556    -1.270170140452     1.007825032230
         H           -2.105729766485     1.097649867444    -1.243824140452     1.007825032230
         H            1.741606233515     2.384581867444    -0.000007140452     1.007825032230
         H            2.769684233515    -1.802132132556    -0.000010140452     1.007825032230
         H            3.542695233515     0.606515867444    -0.000003140452     1.007825032230

  Basis Set: AUG-CC-PVTZ
    Blend: AUG-CC-PVTZ
  Basis Set: (AUG-CC-PVTZ AUX)
    Blend: AUG-CC-PVTZ-JKFIT
	 Reference Energy          =    -378.7268249101590527 [Eh]
	 Singles Energy            =      -0.0000000000000000 [Eh]
	 Same-Spin Energy          =      -0.4133889129673740 [Eh]
	 Opposite-Spin Energy      =      -1.2908466503575076 [Eh]
	 Correlation Energy        =      -1.7042355633248816 [Eh]
	 Total Energy              =    -380.4310604734839103 [Eh]

	 ================> DF-SCS-MP2 Energies <==================
	-----------------------------------------------------------
	 SCS Same-Spin Scale       =       0.3333333333333333 [-]
	 SCS Opposite-Spin Scale   =       1.2000000000000000 [-]
	 SCS Same-Spin Energy      =      -0.1377963043224580 [Eh]
	 SCS Opposite-Spin Energy  =      -1.5490159804290091 [Eh]
	 SCS Correlation Energy    =      -1.6868122847514671 [Eh]
	 SCS Total Energy          =    -380.4136371949105069 [Eh]
	-----------------------------------------------------------

  Dipole Moment: [D]
     X:     1.4511      Y:     0.5296      Z:    -0.0000     Total:     1.5447

*** Psi4 exiting successfully. Buy a developer a beer!
