                               Psi4 1.3.2 release

  ==> Input File <==

--------------------------------------------------------------------------
#psi4
#
memory 32 gb

molecule  {
0 1
  N        0.2337197     0.9674582     0.0000010
  N        0.7926860    -1.3208380    -0.0000020
  C       -1.5206760    -0.6557300    -0.0000030
  C       -2.4976210     0.2265170     0.7463830
  C       -2.4976210     0.2265190    -0.7463820
  C       -0.0883020    -0.2997600     0.0000010
  C        1.5276990     1.3180910     0.0000010
  C        2.0920280    -0.9819740     0.0000030
  C        2.5210310     0.3421130     0.0000010
  H       -1.7051520    -1.7251160     0.0000010
  H       -2.0735420     1.0920370     1.2438350
  H       -3.3111280    -0.2648640     1.2701610
  H       -3.3111290    -0.2648490    -1.2701700
  H       -2.0735380     1.0920430    -1.2438240
  H        1.7737980     2.3789750    -0.0000070
  H        2.8018760    -1.8077390    -0.0000100
  H        3.5748870     0.6009090    -0.0000030
units angstrom
no_reorient  #important for SAPT in psi4, default
symmetry c1  #important for SAPT in psi4, default
}

set PROPERTIES_ORIGIN ["COM"]
properties('MP2/aug-cc-pvtz', properties = ['dipole'])
--------------------------------------------------------------------------

    Molecular point group: c1
  Charge       = 0
  Multiplicity = 1
  Basis Set: AUG-CC-PVTZ
    Blend: AUG-CC-PVTZ
  Basis Set: (AUG-CC-PVTZ AUX)
    Blend: AUG-CC-PVTZ-JKFIT

    Orbital Energies [Eh]
    ---------------------

    Doubly Occupied:

       1A    -15.564904     2A    -15.560558     3A    -11.313505
       4A    -11.300065     5A    -11.296566     6A    -11.242540
       7A    -11.232542     8A    -11.227657     9A    -11.226979
      10A     -1.312420    11A     -1.186869    12A     -1.148176
      13A     -1.067340    14A     -0.909492    15A     -0.895558
      16A     -0.820333    17A     -0.803599    18A     -0.721205
      19A     -0.698062    20A     -0.658353    21A     -0.634199
      22A     -0.609148    23A     -0.588443    24A     -0.581091
      25A     -0.529493    26A     -0.513449    27A     -0.473140
      28A     -0.440600    29A     -0.425552    30A     -0.416771
      31A     -0.404215    32A     -0.350372

  @DF-RHF Final Energy:  -378.73052032139890

   => Energetics <=

    Nuclear Repulsion Energy =            414.4380554940033790
    One-Electron Energy =               -1334.0307659700438307
    Two-Electron Energy =                 540.8621901546415529
    Total Energy =                       -378.7305203213988989
  Basis Set: (AUG-CC-PVTZ AUX)
    Blend: AUG-CC-PVTZ-RI
    Molecular point group: c1

    Geometry (in Angstrom), charge = 0, multiplicity = 1:

       Center              X                  Y                   Z               Mass
    ------------   -----------------  -----------------  -----------------  -----------------
         N            0.196628215630     0.981858925058     0.000000859548    14.003074004430
         N            0.755594515630    -1.306437274942    -0.000002140452    14.003074004430
         C           -1.557767484370    -0.641329274942    -0.000003140452    12.000000000000
         C           -2.534712484370     0.240917725058     0.746382859548    12.000000000000
         C           -2.534712484370     0.240919725058    -0.746382140452    12.000000000000
         C           -0.125393484370    -0.285359274942     0.000000859548    12.000000000000
         C            1.490607515630     1.332491725058     0.000000859548    12.000000000000
         C            2.054936515630    -0.967573274942     0.000002859548    12.000000000000
         C            2.483939515630     0.356513725058     0.000000859548    12.000000000000
         H           -1.742243484370    -1.710715274942     0.000000859548     1.007825032230
         H           -2.110633484370     1.106437725058     1.243834859548     1.007825032230
         H           -3.348219484370    -0.250463274942     1.270160859548     1.007825032230
         H           -3.348220484370    -0.250448274942    -1.270170140452     1.007825032230
         H           -2.110629484370     1.106443725058    -1.243824140452     1.007825032230
         H            1.736706515630     2.393375725058    -0.000007140452     1.007825032230
         H            2.764784515630    -1.793338274942    -0.000010140452     1.007825032230
         H            3.537795515630     0.615309725058    -0.000003140452     1.007825032230

  Basis Set: AUG-CC-PVTZ
    Blend: AUG-CC-PVTZ
  Basis Set: (AUG-CC-PVTZ AUX)
    Blend: AUG-CC-PVTZ-JKFIT
	 Reference Energy          =    -378.7305203213988989 [Eh]
	 Singles Energy            =      -0.0000000000000000 [Eh]
	 Same-Spin Energy          =      -0.4130317281657802 [Eh]
	 Opposite-Spin Energy      =      -1.2897079558424753 [Eh]
	 Correlation Energy        =      -1.7027396840082556 [Eh]
	 Total Energy              =    -380.4332600054071349 [Eh]

	 ================> DF-SCS-MP2 Energies <==================
	-----------------------------------------------------------
	 SCS Same-Spin Scale       =       0.3333333333333333 [-]
	 SCS Opposite-Spin Scale   =       1.2000000000000000 [-]
	 SCS Same-Spin Energy      =      -0.1376772427219267 [Eh]
	 SCS Opposite-Spin Energy  =      -1.5476495470109704 [Eh]
	 SCS Correlation Energy    =      -1.6853267897328972 [Eh]
	 SCS Total Energy          =    -380.4158471111317681 [Eh]
	-----------------------------------------------------------

  Dipole Moment: [D]
     X:     1.4694      Y:     0.7035      Z:    -0.0000     Total:     1.6291

*** Psi4 exiting successfully. Buy a developer a beer!
