                               Psi4 1.3.2 release

  ==> Input File <==

--------------------------------------------------------------------------
#psi4
#
memory 32 gb

molecule  {
0 1
  N        0.2222710     1.0128310     0.0000010
  N        0.7926860    -1.3208380    -0.0000020
  C       -1.5206760    -0.6557300    -0.0000030
  C       -2.4976210     0.2265170     0.7463830
  C       -2.4976210     0.2265190    -0.7463820
  C       -0.1791072    -0.2748981     0.0000010
  C        1.5276990     1.3180910     0.0000010
  C        2.0920280    -0.9819740     0.0000030
  C        2.5210310     0.3421130     0.0000010
  H       -1.7051520    -1.7251160     0.0000010
  H       -2.0735420     1.0920370     1.2438350
  H       -3.3111280    -0.2648640     1.2701610
  H       -3.3111290    -0.2648490    -1.2701700
  H       -2.0735380     1.0920430    -1.2438240
  H        1.7737980     2.3789750    -0.0000070
  H        2.8018760    -1.8077390    -0.0000100
  H        3.5748870     0.6009090    -0.0000030
units angstrom
no_reorient  #important for SAPT in psi4, default
symmetry c1  #important for SAPT in psi4, default
}

set PROPERTIES_ORIGIN ["COM"]
properties('MP2/aug-cc-pvtz', properties = ['dipole'])
--------------------------------------------------------------------------

    Molecular point group: c1
  Charge       = 0
  Multiplicity = 1
  Basis Set: AUG-CC-PVTZ
    Blend: AUG-CC-PVTZ
  Basis Set: (AUG-CC-PVTZ AUX)
    Blend: AUG-CC-PVTZ-JKFIT

    Orbital Energies [Eh]
    ---------------------

    Doubly Occupied:

       1A    -15.565695     2A    -15.562687     3A    -11.325265
       4A    -11.295541     5A    -11.291984     6A    -11.237213
       7A    -11.237086     8A    -11.236155     9A    -11.235922
      10A     -1.290484    11A     -1.171729    12A     -1.161309
      13A     -1.059622    14A     -0.925272    15A     -0.881980
      16A     -0.828924    17A     -0.803701    18A     -0.721676
      19A     -0.690933    20A     -0.662989    21A     -0.636077
      22A     -0.605020    23A     -0.583404    24A     -0.569893
      25A     -0.542585    26A     -0.520074    27A     -0.475679
      28A     -0.451962    29A     -0.433929    30A     -0.411320
      31A     -0.391423    32A     -0.337660

  @DF-RHF Final Energy:  -378.71451155654222

   => Energetics <=

    Nuclear Repulsion Energy =            413.1546365521281814
    One-Electron Energy =               -1331.4479099104887609
    Two-Electron Energy =                 539.5787618018183593
    Total Energy =                       -378.7145115565422202
  Basis Set: (AUG-CC-PVTZ AUX)
    Blend: AUG-CC-PVTZ-RI
    Molecular point group: c1

    Geometry (in Angstrom), charge = 0, multiplicity = 1:

       Center              X                  Y                   Z               Mass
    ------------   -----------------  -----------------  -----------------  -----------------
         N            0.195590046358     1.019455334535     0.000000859548    14.003074004430
         N            0.766005046358    -1.314213665465    -0.000002140452    14.003074004430
         C           -1.547356953642    -0.649105665465    -0.000003140452    12.000000000000
         C           -2.524301953642     0.233141334535     0.746382859548    12.000000000000
         C           -2.524301953642     0.233143334535    -0.746382140452    12.000000000000
         C           -0.205788153642    -0.268273765465     0.000000859548    12.000000000000
         C            1.501018046358     1.324715334535     0.000000859548    12.000000000000
         C            2.065347046358    -0.975349665465     0.000002859548    12.000000000000
         C            2.494350046358     0.348737334535     0.000000859548    12.000000000000
         H           -1.731832953642    -1.718491665465     0.000000859548     1.007825032230
         H           -2.100222953642     1.098661334535     1.243834859548     1.007825032230
         H           -3.337808953642    -0.258239665465     1.270160859548     1.007825032230
         H           -3.337809953642    -0.258224665465    -1.270170140452     1.007825032230
         H           -2.100218953642     1.098667334535    -1.243824140452     1.007825032230
         H            1.747117046358     2.385599334535    -0.000007140452     1.007825032230
         H            2.775195046358    -1.801114665465    -0.000010140452     1.007825032230
         H            3.548206046358     0.607533334535    -0.000003140452     1.007825032230

  Basis Set: AUG-CC-PVTZ
    Blend: AUG-CC-PVTZ
  Basis Set: (AUG-CC-PVTZ AUX)
    Blend: AUG-CC-PVTZ-JKFIT
	 Reference Energy          =    -378.7145115565422202 [Eh]
	 Singles Energy            =      -0.0000000000000000 [Eh]
	 Same-Spin Energy          =      -0.4151217037062148 [Eh]
	 Opposite-Spin Energy      =      -1.2938823852723780 [Eh]
	 Correlation Energy        =      -1.7090040889785927 [Eh]
	 Total Energy              =    -380.4235156455208084 [Eh]

	 ================> DF-SCS-MP2 Energies <==================
	-----------------------------------------------------------
	 SCS Same-Spin Scale       =       0.3333333333333333 [-]
	 SCS Opposite-Spin Scale   =       1.2000000000000000 [-]
	 SCS Same-Spin Energy      =      -0.1383739012354049 [Eh]
	 SCS Opposite-Spin Energy  =      -1.5526588623268536 [Eh]
	 SCS Correlation Energy    =      -1.6910327635622586 [Eh]
	 SCS Total Energy          =    -380.4055443201044682 [Eh]
	-----------------------------------------------------------

  Dipole Moment: [D]
     X:     0.8211      Y:     0.5909      Z:    -0.0000     Total:     1.0116

*** Psi4 exiting successfully. Buy a developer a beer!
