                               Psi4 1.3.2 release

  ==> Input File <==

--------------------------------------------------------------------------
#psi4
#
memory 32 gb

molecule  {
0 1
  N        0.2222710     1.0128310     0.0000010
  N        0.7926860    -1.3208380    -0.0000020
  C       -1.5206760    -0.6557300    -0.0000030
  C       -2.4976210     0.2265170     0.7463830
  C       -2.4976210     0.2265190    -0.7463820
  C       -0.0947327    -0.2748158     0.0000009
  C        1.5276990     1.3180910     0.0000010
  C        2.0920280    -0.9819740     0.0000030
  C        2.5210310     0.3421130     0.0000010
  H       -1.7051520    -1.7251160     0.0000010
  H       -2.0735420     1.0920370     1.2438350
  H       -3.3111280    -0.2648640     1.2701610
  H       -3.3111290    -0.2648490    -1.2701700
  H       -2.0735380     1.0920430    -1.2438240
  H        1.7737980     2.3789750    -0.0000070
  H        2.8018760    -1.8077390    -0.0000100
  H        3.5748870     0.6009090    -0.0000030
units angstrom
no_reorient  #important for SAPT in psi4, default
symmetry c1  #important for SAPT in psi4, default
}

set PROPERTIES_ORIGIN ["COM"]
properties('MP2/aug-cc-pvtz', properties = ['dipole'])
--------------------------------------------------------------------------

    Molecular point group: c1
  Charge       = 0
  Multiplicity = 1
  Basis Set: AUG-CC-PVTZ
    Blend: AUG-CC-PVTZ
  Basis Set: (AUG-CC-PVTZ AUX)
    Blend: AUG-CC-PVTZ-JKFIT

    Orbital Energies [Eh]
    ---------------------

    Doubly Occupied:

       1A    -15.567743     2A    -15.565616     3A    -11.319795
       4A    -11.299473     5A    -11.296964     6A    -11.241918
       7A    -11.234251     8A    -11.228561     9A    -11.227876
      10A     -1.305883    11A     -1.186391    12A     -1.149514
      13A     -1.064229    14A     -0.910393    15A     -0.891762
      16A     -0.821331    17A     -0.801940    18A     -0.719309
      19A     -0.696470    20A     -0.658485    21A     -0.634264
      22A     -0.606372    23A     -0.587500    24A     -0.577360
      25A     -0.528572    26A     -0.514288    27A     -0.477827
      28A     -0.441388    29A     -0.425864    30A     -0.418030
      31A     -0.407816    32A     -0.348060

  @DF-RHF Final Energy:  -378.72936639392225

   => Energetics <=

    Nuclear Repulsion Energy =            413.4725006713650259
    One-Electron Energy =               -1332.0932387032207771
    Two-Electron Energy =                 539.8913716379336165
    Total Energy =                       -378.7293663939221915
  Basis Set: (AUG-CC-PVTZ AUX)
    Blend: AUG-CC-PVTZ-RI
    Molecular point group: c1

    Geometry (in Angstrom), charge = 0, multiplicity = 1:

       Center              X                  Y                   Z               Mass
    ------------   -----------------  -----------------  -----------------  -----------------
         N            0.187157427424     1.019447109247     0.000000869542    14.003074004430
         N            0.757572427424    -1.314221890753    -0.000002130458    14.003074004430
         C           -1.555789572576    -0.649113890753    -0.000003130458    12.000000000000
         C           -2.532734572576     0.233133109247     0.746382869542    12.000000000000
         C           -2.532734572576     0.233135109247    -0.746382130458    12.000000000000
         C           -0.129846272576    -0.268199690753     0.000000769542    12.000000000000
         C            1.492585427424     1.324707109247     0.000000869542    12.000000000000
         C            2.056914427424    -0.975357890753     0.000002869542    12.000000000000
         C            2.485917427424     0.348729109247     0.000000869542    12.000000000000
         H           -1.740265572576    -1.718499890753     0.000000869542     1.007825032230
         H           -2.108655572576     1.098653109247     1.243834869542     1.007825032230
         H           -3.346241572576    -0.258247890753     1.270160869542     1.007825032230
         H           -3.346242572576    -0.258232890753    -1.270170130458     1.007825032230
         H           -2.108651572576     1.098659109247    -1.243824130458     1.007825032230
         H            1.738684427424     2.385591109247    -0.000007130458     1.007825032230
         H            2.766762427424    -1.801122890753    -0.000010130458     1.007825032230
         H            3.539773427424     0.607525109247    -0.000003130458     1.007825032230

  Basis Set: AUG-CC-PVTZ
    Blend: AUG-CC-PVTZ
  Basis Set: (AUG-CC-PVTZ AUX)
    Blend: AUG-CC-PVTZ-JKFIT
	 Reference Energy          =    -378.7293663939222483 [Eh]
	 Singles Energy            =      -0.0000000000000000 [Eh]
	 Same-Spin Energy          =      -0.4132994700648807 [Eh]
	 Opposite-Spin Energy      =      -1.2907989506484541 [Eh]
	 Correlation Energy        =      -1.7040984207133347 [Eh]
	 Total Energy              =    -380.4334648146355562 [Eh]

	 ================> DF-SCS-MP2 Energies <==================
	-----------------------------------------------------------
	 SCS Same-Spin Scale       =       0.3333333333333333 [-]
	 SCS Opposite-Spin Scale   =       1.2000000000000000 [-]
	 SCS Same-Spin Energy      =      -0.1377664900216269 [Eh]
	 SCS Opposite-Spin Energy  =      -1.5489587407781449 [Eh]
	 SCS Correlation Energy    =      -1.6867252307997718 [Eh]
	 SCS Total Energy          =    -380.4160916247220143 [Eh]
	-----------------------------------------------------------

  Dipole Moment: [D]
     X:     1.4204      Y:     0.6203      Z:    -0.0000     Total:     1.5499

*** Psi4 exiting successfully. Buy a developer a beer!
