                               Psi4 1.4a3.dev225

  ==> Input File <==

--------------------------------------------------------------------------
#psi4
#
memory 32 gb

molecule  {
0 1
  N        0.2222710     1.0128310     0.0000010
  N        0.7926860    -1.3208380    -0.0000020
  C       -1.5206760    -0.6557300    -0.0000030
  C       -2.4976210     0.2265170     0.7463830
  C       -2.4976210     0.2265190    -0.7463820
  C       -0.0998147    -0.3484165     0.0000010
  C        1.5276990     1.3180910     0.0000010
  C        2.0920280    -0.9819740     0.0000030
  C        2.5210310     0.3421130     0.0000010
  H       -1.7051520    -1.7251160     0.0000010
  H       -2.0735420     1.0920370     1.2438350
  H       -3.3111280    -0.2648640     1.2701610
  H       -3.3111290    -0.2648490    -1.2701700
  H       -2.0735380     1.0920430    -1.2438240
  H        1.7737980     2.3789750    -0.0000070
  H        2.8018760    -1.8077390    -0.0000100
  H        3.5748870     0.6009090    -0.0000030
units angstrom
no_reorient  #important for SAPT in psi4, default
symmetry c1  #important for SAPT in psi4, default
}

set PROPERTIES_ORIGIN ["COM"]
properties('MP2/aug-cc-pvtz', properties = ['dipole'])
--------------------------------------------------------------------------

    Molecular point group: c1
  Charge       = 0
  Multiplicity = 1
  Basis Set: AUG-CC-PVTZ
    Blend: AUG-CC-PVTZ
  Basis Set: (AUG-CC-PVTZ AUX)
    Blend: AUG-CC-PVTZ-JKFIT

    Orbital Energies [Eh]
    ---------------------

    Doubly Occupied:

       1A    -15.567616     2A    -15.564482     3A    -11.320865
       4A    -11.297376     5A    -11.296689     6A    -11.241039
       7A    -11.234477     8A    -11.230727     9A    -11.230061
      10A     -1.301735    11A     -1.182543    12A     -1.151310
      13A     -1.063353    14A     -0.917106    15A     -0.885747
      16A     -0.822716    17A     -0.804777    18A     -0.716320
      19A     -0.700028    20A     -0.653314    21A     -0.637646
      22A     -0.608184    23A     -0.586550    24A     -0.574835
      25A     -0.527689    26A     -0.515580    27A     -0.476952
      28A     -0.444436    29A     -0.431469    30A     -0.415946
      31A     -0.402209    32A     -0.345603

  @DF-RHF Final Energy:  -378.72637918951318

   => Energetics <=

    Nuclear Repulsion Energy =            413.1678620219121285
    One-Electron Energy =               -1331.4897190946840055
    Two-Electron Energy =                 539.5954778832586953
    Total Energy =                       -378.7263791895131817
  Basis Set: (AUG-CC-PVTZ AUX)
    Blend: AUG-CC-PVTZ-RI
    Molecular point group: c1

    Geometry (in Angstrom), charge = 0, multiplicity = 1:

       Center              X                  Y                   Z               Mass
    ------------   -----------------  -----------------  -----------------  -----------------
         N            0.187665336442     1.026802965061     0.000000859548    14.003074004430
         N            0.758080336442    -1.306866034939    -0.000002140452    14.003074004430
         C           -1.555281663558    -0.641758034939    -0.000003140452    12.000000000000
         C           -2.532226663558     0.240488965061     0.746382859548    12.000000000000
         C           -2.532226663558     0.240490965061    -0.746382140452    12.000000000000
         C           -0.134420363558    -0.334444534939     0.000000859548    12.000000000000
         C            1.493093336442     1.332062965061     0.000000859548    12.000000000000
         C            2.057422336442    -0.968002034939     0.000002859548    12.000000000000
         C            2.486425336442     0.356084965061     0.000000859548    12.000000000000
         H           -1.739757663558    -1.711144034939     0.000000859548     1.007825032230
         H           -2.108147663558     1.106008965061     1.243834859548     1.007825032230
         H           -3.345733663558    -0.250892034939     1.270160859548     1.007825032230
         H           -3.345734663558    -0.250877034939    -1.270170140452     1.007825032230
         H           -2.108143663558     1.106014965061    -1.243824140452     1.007825032230
         H            1.739192336442     2.392946965061    -0.000007140452     1.007825032230
         H            2.767270336442    -1.793767034939    -0.000010140452     1.007825032230
         H            3.540281336442     0.614880965061    -0.000003140452     1.007825032230

  Basis Set: AUG-CC-PVTZ
    Blend: AUG-CC-PVTZ
  Basis Set: (AUG-CC-PVTZ AUX)
    Blend: AUG-CC-PVTZ-JKFIT
	 Reference Energy          =    -378.7263791895131817 [Eh]
	 Singles Energy            =      -0.0000000000000000 [Eh]
	 Same-Spin Energy          =      -0.4135213129264439 [Eh]
	 Opposite-Spin Energy      =      -1.2914264649979217 [Eh]
	 Correlation Energy        =      -1.7049477779243656 [Eh]
	 Total Energy              =    -380.4313269674375420 [Eh]

	 ================> DF-SCS-MP2 Energies <==================
	-----------------------------------------------------------
	 SCS Same-Spin Scale       =       0.3333333333333333 [-]
	 SCS Opposite-Spin Scale   =       1.2000000000000000 [-]
	 SCS Same-Spin Energy      =      -0.1378404376421480 [Eh]
	 SCS Opposite-Spin Energy  =      -1.5497117579975059 [Eh]
	 SCS Correlation Energy    =      -1.6875521956396540 [Eh]
	 SCS Total Energy          =    -380.4139313851528641 [Eh]
	-----------------------------------------------------------

  Dipole Moment: [D]
     X:     1.2848      Y:     0.5767      Z:    -0.0000     Total:     1.4083

*** Psi4 exiting successfully. Buy a developer a beer!
