                               Psi4 1.3.2 release

  ==> Input File <==

--------------------------------------------------------------------------
#psi4
#
memory 32 gb

molecule  {
0 1
  N        0.2222710     1.0128310     0.0000010
  N        0.7926860    -1.3208380    -0.0000020
  C       -1.5206760    -0.6557300    -0.0000030
  C       -2.4976210     0.2265170     0.7463830
  C       -2.4976210     0.2265190    -0.7463820
  C       -0.0883020    -0.2997600     0.0000010
  C        1.3329526     1.2725517     0.0000010
  C        2.0920280    -0.9819740     0.0000030
  C        2.5210310     0.3421130     0.0000010
  H       -1.7051520    -1.7251160     0.0000010
  H       -2.0735420     1.0920370     1.2438350
  H       -3.3111280    -0.2648640     1.2701610
  H       -3.3111290    -0.2648490    -1.2701700
  H       -2.0735380     1.0920430    -1.2438240
  H        1.7737980     2.3789750    -0.0000070
  H        2.8018760    -1.8077390    -0.0000100
  H        3.5748870     0.6009090    -0.0000030
units angstrom
no_reorient  #important for SAPT in psi4, default
symmetry c1  #important for SAPT in psi4, default
}

set PROPERTIES_ORIGIN ["COM"]
properties('MP2/aug-cc-pvtz', properties = ['dipole'])
--------------------------------------------------------------------------

    Molecular point group: c1
  Charge       = 0
  Multiplicity = 1
  Basis Set: AUG-CC-PVTZ
    Blend: AUG-CC-PVTZ
  Basis Set: (AUG-CC-PVTZ AUX)
    Blend: AUG-CC-PVTZ-JKFIT

    Orbital Energies [Eh]
    ---------------------

    Doubly Occupied:

       1A    -15.565622     2A    -15.559654     3A    -11.330495
       4A    -11.295697     5A    -11.285391     6A    -11.242628
       7A    -11.239739     8A    -11.234442     9A    -11.233759
      10A     -1.358485    11A     -1.223776    12A     -1.156304
      13A     -1.044850    14A     -0.927802    15A     -0.872064
      16A     -0.827027    17A     -0.813604    18A     -0.717830
      19A     -0.705300    20A     -0.656810    21A     -0.640912
      22A     -0.604824    23A     -0.602795    24A     -0.581842
      25A     -0.527363    26A     -0.519946    27A     -0.478605
      28A     -0.461630    29A     -0.437075    30A     -0.431734
      31A     -0.388992    32A     -0.334099

  @DF-RHF Final Energy:  -378.67262084833214

   => Energetics <=

    Nuclear Repulsion Energy =            416.6629463855350650
    One-Electron Energy =               -1338.0689408932646529
    Two-Electron Energy =                 542.7333736593974436
    Total Energy =                       -378.6726208483321443
  Basis Set: (AUG-CC-PVTZ AUX)
    Blend: AUG-CC-PVTZ-RI
    Molecular point group: c1

    Geometry (in Angstrom), charge = 0, multiplicity = 1:

       Center              X                  Y                   Z               Mass
    ------------   -----------------  -----------------  -----------------  -----------------
         N            0.205978214953     1.026491423544     0.000000859548    14.003074004430
         N            0.776393214953    -1.307177576456    -0.000002140452    14.003074004430
         C           -1.536968785047    -0.642069576456    -0.000003140452    12.000000000000
         C           -2.513913785047     0.240177423544     0.746382859548    12.000000000000
         C           -2.513913785047     0.240179423544    -0.746382140452    12.000000000000
         C           -0.104594785047    -0.286099576456     0.000000859548    12.000000000000
         C            1.316659814953     1.286212123544     0.000000859548    12.000000000000
         C            2.075735214953    -0.968313576456     0.000002859548    12.000000000000
         C            2.504738214953     0.355773423544     0.000000859548    12.000000000000
         H           -1.721444785047    -1.711455576456     0.000000859548     1.007825032230
         H           -2.089834785047     1.105697423544     1.243834859548     1.007825032230
         H           -3.327420785047    -0.251203576456     1.270160859548     1.007825032230
         H           -3.327421785047    -0.251188576456    -1.270170140452     1.007825032230
         H           -2.089830785047     1.105703423544    -1.243824140452     1.007825032230
         H            1.757505214953     2.392635423544    -0.000007140452     1.007825032230
         H            2.785583214953    -1.794078576456    -0.000010140452     1.007825032230
         H            3.558594214953     0.614569423544    -0.000003140452     1.007825032230

  Basis Set: AUG-CC-PVTZ
    Blend: AUG-CC-PVTZ
  Basis Set: (AUG-CC-PVTZ AUX)
    Blend: AUG-CC-PVTZ-JKFIT
	 Reference Energy          =    -378.6726208483321443 [Eh]
	 Singles Energy            =      -0.0000000000000000 [Eh]
	 Same-Spin Energy          =      -0.4112813241014174 [Eh]
	 Opposite-Spin Energy      =      -1.2885587200997388 [Eh]
	 Correlation Energy        =      -1.6998400442011561 [Eh]
	 Total Energy              =    -380.3724608925332973 [Eh]

	 ================> DF-SCS-MP2 Energies <==================
	-----------------------------------------------------------
	 SCS Same-Spin Scale       =       0.3333333333333333 [-]
	 SCS Opposite-Spin Scale   =       1.2000000000000000 [-]
	 SCS Same-Spin Energy      =      -0.1370937747004725 [Eh]
	 SCS Opposite-Spin Energy  =      -1.5462704641196865 [Eh]
	 SCS Correlation Energy    =      -1.6833642388201588 [Eh]
	 SCS Total Energy          =    -380.3559850871523054 [Eh]
	-----------------------------------------------------------

  Dipole Moment: [D]
     X:     0.8885      Y:     0.5527      Z:    -0.0000     Total:     1.0463

*** Psi4 exiting successfully. Buy a developer a beer!
