                               Psi4 1.3.2 release

  ==> Input File <==

--------------------------------------------------------------------------
#psi4
#
memory 32 gb

molecule  {
0 1
  N        0.2222710     1.0128310     0.0000010
  N        0.7926860    -1.3208380    -0.0000020
  C       -1.5206760    -0.6557300    -0.0000030
  C       -2.5367106     0.1942876     0.7314457
  C       -2.4976210     0.2265190    -0.7463820
  C       -0.0883020    -0.2997600     0.0000010
  C        1.5276990     1.3180910     0.0000010
  C        2.0920280    -0.9819740     0.0000030
  C        2.5210310     0.3421130     0.0000010
  H       -1.7051520    -1.7251160     0.0000010
  H       -2.0735420     1.0920370     1.2438350
  H       -3.3111280    -0.2648640     1.2701610
  H       -3.3111290    -0.2648490    -1.2701700
  H       -2.0735380     1.0920430    -1.2438240
  H        1.7737980     2.3789750    -0.0000070
  H        2.8018760    -1.8077390    -0.0000100
  H        3.5748870     0.6009090    -0.0000030
units angstrom
no_reorient  #important for SAPT in psi4, default
symmetry c1  #important for SAPT in psi4, default
}

set PROPERTIES_ORIGIN ["COM"]
properties('MP2/aug-cc-pvtz', properties = ['dipole'])
--------------------------------------------------------------------------

    Molecular point group: c1
  Charge       = 0
  Multiplicity = 1
  Basis Set: AUG-CC-PVTZ
    Blend: AUG-CC-PVTZ
  Basis Set: (AUG-CC-PVTZ AUX)
    Blend: AUG-CC-PVTZ-JKFIT

    Orbital Energies [Eh]
    ---------------------

    Doubly Occupied:

       1A    -15.567010     2A    -15.566892     3A    -11.320282
       4A    -11.298919     5A    -11.297663     6A    -11.242057
       7A    -11.233398     8A    -11.228847     9A    -11.228009
      10A     -1.305274    11A     -1.186838    12A     -1.150829
      13A     -1.065075    14A     -0.912207    15A     -0.890603
      16A     -0.820817    17A     -0.802751    18A     -0.717000
      19A     -0.698808    20A     -0.657050    21A     -0.638670
      22A     -0.606080    23A     -0.587897    24A     -0.577332
      25A     -0.526526    26A     -0.509962    27A     -0.477528
      28A     -0.438469    29A     -0.431257    30A     -0.417636
      31A     -0.407875    32A     -0.347985

  @DF-RHF Final Energy:  -378.72678768187933

   => Energetics <=

    Nuclear Repulsion Energy =            413.2089487466850528
    One-Electron Energy =               -1331.5563813825517627
    Two-Electron Energy =                 539.6206449539872665
    Total Energy =                       -378.7267876818793866
  Basis Set: (AUG-CC-PVTZ AUX)
    Blend: AUG-CC-PVTZ-RI
    Molecular point group: c1

    Geometry (in Angstrom), charge = 0, multiplicity = 1:

       Center              X                  Y                   Z               Mass
    ------------   -----------------  -----------------  -----------------  -----------------
         N            0.190421447460     1.025161195634     0.001493734277    14.003074004430
         N            0.760836447460    -1.308507804366     0.001490734277    14.003074004430
         C           -1.552525552540    -0.643399804366     0.001489734277    12.000000000000
         C           -2.568560152540     0.206617795634     0.732938434277    12.000000000000
         C           -2.529470552540     0.238849195634    -0.744889265723    12.000000000000
         C           -0.120151552540    -0.287429804366     0.001493734277    12.000000000000
         C            1.495849447460     1.330421195634     0.001493734277    12.000000000000
         C            2.060178447460    -0.969643804366     0.001495734277    12.000000000000
         C            2.489181447460     0.354443195634     0.001493734277    12.000000000000
         H           -1.737001552540    -1.712785804366     0.001493734277     1.007825032230
         H           -2.105391552540     1.104367195634     1.245327734277     1.007825032230
         H           -3.342977552540    -0.252533804366     1.271653734277     1.007825032230
         H           -3.342978552540    -0.252518804366    -1.268677265723     1.007825032230
         H           -2.105387552540     1.104373195634    -1.242331265723     1.007825032230
         H            1.741948447460     2.391305195634     0.001485734277     1.007825032230
         H            2.770026447460    -1.795408804366     0.001482734277     1.007825032230
         H            3.543037447460     0.613239195634     0.001489734277     1.007825032230

  Basis Set: AUG-CC-PVTZ
    Blend: AUG-CC-PVTZ
  Basis Set: (AUG-CC-PVTZ AUX)
    Blend: AUG-CC-PVTZ-JKFIT
	 Reference Energy          =    -378.7267876818793297 [Eh]
	 Singles Energy            =      -0.0000000000000000 [Eh]
	 Same-Spin Energy          =      -0.4133800652935753 [Eh]
	 Opposite-Spin Energy      =      -1.2908418279526579 [Eh]
	 Correlation Energy        =      -1.7042218932462332 [Eh]
	 Total Energy              =    -380.4310095751255858 [Eh]

	 ================> DF-SCS-MP2 Energies <==================
	-----------------------------------------------------------
	 SCS Same-Spin Scale       =       0.3333333333333333 [-]
	 SCS Opposite-Spin Scale   =       1.2000000000000000 [-]
	 SCS Same-Spin Energy      =      -0.1377933550978584 [Eh]
	 SCS Opposite-Spin Energy  =      -1.5490101935431895 [Eh]
	 SCS Correlation Energy    =      -1.6868035486410480 [Eh]
	 SCS Total Energy          =    -380.4135912305203533 [Eh]
	-----------------------------------------------------------

  Dipole Moment: [D]
     X:     1.4203      Y:     0.6023      Z:     0.0044     Total:     1.5427

*** Psi4 exiting successfully. Buy a developer a beer!
