                               Psi4 1.3.2 release

  ==> Input File <==

--------------------------------------------------------------------------
#psi4
#
memory 32 gb

molecule  {
0 1
  N        0.2222710     1.0128310     0.0000010
  N        0.7926860    -1.3208380    -0.0000020
  C       -1.5206760    -0.6557300    -0.0000030
  C       -2.4976210     0.2265170     0.7463830
  C       -2.4976210     0.2265190    -0.7463820
  C       -0.1166224    -0.2007098     0.0000005
  C        1.5276990     1.3180910     0.0000010
  C        2.0920280    -0.9819740     0.0000030
  C        2.5210310     0.3421130     0.0000010
  H       -1.7051520    -1.7251160     0.0000010
  H       -2.0735420     1.0920370     1.2438350
  H       -3.3111280    -0.2648640     1.2701610
  H       -3.3111290    -0.2648490    -1.2701700
  H       -2.0735380     1.0920430    -1.2438240
  H        1.7737980     2.3789750    -0.0000070
  H        2.8018760    -1.8077390    -0.0000100
  H        3.5748870     0.6009090    -0.0000030
units angstrom
no_reorient  #important for SAPT in psi4, default
symmetry c1  #important for SAPT in psi4, default
}

set PROPERTIES_ORIGIN ["COM"]
properties('MP2/aug-cc-pvtz', properties = ['dipole'])
--------------------------------------------------------------------------

    Molecular point group: c1
  Charge       = 0
  Multiplicity = 1
  Basis Set: AUG-CC-PVTZ
    Blend: AUG-CC-PVTZ
  Basis Set: (AUG-CC-PVTZ AUX)
    Blend: AUG-CC-PVTZ-JKFIT

    Orbital Energies [Eh]
    ---------------------

    Doubly Occupied:

       1A    -15.569575     2A    -15.561651     3A    -11.318058
       4A    -11.300648     5A    -11.294530     6A    -11.242454
       7A    -11.234922     8A    -11.228492     9A    -11.227802
      10A     -1.312954    11A     -1.183525    12A     -1.151015
      13A     -1.063757    14A     -0.909275    15A     -0.893902
      16A     -0.821979    17A     -0.799347    18A     -0.722794
      19A     -0.691399    20A     -0.664790    21A     -0.632600
      22A     -0.602765    23A     -0.587811    24A     -0.580407
      25A     -0.533140    26A     -0.514645    27A     -0.479637
      28A     -0.442680    29A     -0.423450    30A     -0.419158
      31A     -0.402070    32A     -0.347077

  @DF-RHF Final Energy:  -378.71792105113269

   => Energetics <=

    Nuclear Repulsion Energy =            413.7465251964080721
    One-Electron Energy =               -1332.6122768199718394
    Two-Electron Energy =                 540.1478305724310758
    Total Energy =                       -378.7179210511326346
  Basis Set: (AUG-CC-PVTZ AUX)
    Blend: AUG-CC-PVTZ-RI
    Molecular point group: c1

    Geometry (in Angstrom), charge = 0, multiplicity = 1:

       Center              X                  Y                   Z               Mass
    ------------   -----------------  -----------------  -----------------  -----------------
         N            0.189345144076     1.012040752365     0.000000909519    14.003074004430
         N            0.759760144076    -1.321628247635    -0.000002090481    14.003074004430
         C           -1.553601855924    -0.656520247635    -0.000003090481    12.000000000000
         C           -2.530546855924     0.225726752365     0.746382909519    12.000000000000
         C           -2.530546855924     0.225728752365    -0.746382090481    12.000000000000
         C           -0.149548255924    -0.201500047635     0.000000409519    12.000000000000
         C            1.494773144076     1.317300752365     0.000000909519    12.000000000000
         C            2.059102144076    -0.982764247635     0.000002909519    12.000000000000
         C            2.488105144076     0.341322752365     0.000000909519    12.000000000000
         H           -1.738077855924    -1.725906247635     0.000000909519     1.007825032230
         H           -2.106467855924     1.091246752365     1.243834909519     1.007825032230
         H           -3.344053855924    -0.265654247635     1.270160909519     1.007825032230
         H           -3.344054855924    -0.265639247635    -1.270170090481     1.007825032230
         H           -2.106463855924     1.091252752365    -1.243824090481     1.007825032230
         H            1.740872144076     2.378184752365    -0.000007090481     1.007825032230
         H            2.768950144076    -1.808529247635    -0.000010090481     1.007825032230
         H            3.541961144076     0.600118752365    -0.000003090481     1.007825032230

  Basis Set: AUG-CC-PVTZ
    Blend: AUG-CC-PVTZ
  Basis Set: (AUG-CC-PVTZ AUX)
    Blend: AUG-CC-PVTZ-JKFIT
	 Reference Energy          =    -378.7179210511326914 [Eh]
	 Singles Energy            =      -0.0000000000000000 [Eh]
	 Same-Spin Energy          =      -0.4132959636298650 [Eh]
	 Opposite-Spin Energy      =      -1.2916700535010439 [Eh]
	 Correlation Energy        =      -1.7049660171309089 [Eh]
	 Total Energy              =    -380.4228870682636057 [Eh]

	 ================> DF-SCS-MP2 Energies <==================
	-----------------------------------------------------------
	 SCS Same-Spin Scale       =       0.3333333333333333 [-]
	 SCS Opposite-Spin Scale   =       1.2000000000000000 [-]
	 SCS Same-Spin Energy      =      -0.1377653212099550 [Eh]
	 SCS Opposite-Spin Energy  =      -1.5500040642012527 [Eh]
	 SCS Correlation Energy    =      -1.6877693854112077 [Eh]
	 SCS Total Energy          =    -380.4056904365439209 [Eh]
	-----------------------------------------------------------

  Dipole Moment: [D]
     X:     1.3636      Y:     0.6606      Z:    -0.0000     Total:     1.5152

*** Psi4 exiting successfully. Buy a developer a beer!
