                               Psi4 1.3.2 release

  ==> Input File <==

--------------------------------------------------------------------------
#psi4
#
memory 32 gb

molecule  {
0 1
  N        0.2222710     1.0128310     0.0000010
  N        0.7926860    -1.3208380    -0.0000020
  C       -1.5206760    -0.6557300    -0.0000030
  C       -2.4976210     0.2265170     0.7463830
  C       -2.4976210     0.2265190    -0.7463820
  C       -0.0883020    -0.2997600     0.0000010
  C        1.5276990     1.3180910     0.0000010
  C        2.0920280    -0.9819740     0.0000030
  C        2.5379129     0.3595977     0.0000008
  H       -1.7051520    -1.7251160     0.0000010
  H       -2.0735420     1.0920370     1.2438350
  H       -3.3111280    -0.2648640     1.2701610
  H       -3.3111290    -0.2648490    -1.2701700
  H       -2.0735380     1.0920430    -1.2438240
  H        1.7737980     2.3789750    -0.0000070
  H        2.8018760    -1.8077390    -0.0000100
  H        3.5748870     0.6009090    -0.0000030
units angstrom
no_reorient  #important for SAPT in psi4, default
symmetry c1  #important for SAPT in psi4, default
}

set PROPERTIES_ORIGIN ["COM"]
properties('MP2/aug-cc-pvtz', properties = ['dipole'])
--------------------------------------------------------------------------

    Molecular point group: c1
  Charge       = 0
  Multiplicity = 1
  Basis Set: AUG-CC-PVTZ
    Blend: AUG-CC-PVTZ
  Basis Set: (AUG-CC-PVTZ AUX)
    Blend: AUG-CC-PVTZ-JKFIT

    Orbital Energies [Eh]
    ---------------------

    Doubly Occupied:

       1A    -15.567651     2A    -15.566289     3A    -11.320530
       4A    -11.300916     5A    -11.298221     6A    -11.242412
       7A    -11.234335     8A    -11.228849     9A    -11.228165
      10A     -1.304512    11A     -1.186560    12A     -1.149011
      13A     -1.062692    14A     -0.912888    15A     -0.888140
      16A     -0.821333    17A     -0.802995    18A     -0.717235
      19A     -0.698099    20A     -0.658167    21A     -0.638383
      22A     -0.607967    23A     -0.583856    24A     -0.576212
      25A     -0.527341    26A     -0.514283    27A     -0.479136
      28A     -0.440840    29A     -0.427556    30A     -0.417785
      31A     -0.407154    32A     -0.347273

  @DF-RHF Final Energy:  -378.72928035453276

   => Energetics <=

    Nuclear Repulsion Energy =            412.9902924545432938
    One-Electron Energy =               -1331.1255741729305555
    Two-Electron Energy =                 539.4060013638544433
    Total Energy =                       -378.7292803545327615
  Basis Set: (AUG-CC-PVTZ AUX)
    Blend: AUG-CC-PVTZ-RI
    Molecular point group: c1

    Geometry (in Angstrom), charge = 0, multiplicity = 1:

       Center              X                  Y                   Z               Mass
    ------------   -----------------  -----------------  -----------------  -----------------
         N            0.184827502243     1.020192632135     0.000000879537    14.003074004430
         N            0.755242502243    -1.313476367865    -0.000002120463    14.003074004430
         C           -1.558119497757    -0.648368367865    -0.000003120463    12.000000000000
         C           -2.535064497757     0.233878632135     0.746382879537    12.000000000000
         C           -2.535064497757     0.233880632135    -0.746382120463    12.000000000000
         C           -0.125745497757    -0.292398367865     0.000000879537    12.000000000000
         C            1.490255502243     1.325452632135     0.000000879537    12.000000000000
         C            2.054584502243    -0.974612367865     0.000002879537    12.000000000000
         C            2.500469402243     0.366959332135     0.000000679537    12.000000000000
         H           -1.742595497757    -1.717754367865     0.000000879537     1.007825032230
         H           -2.110985497757     1.099398632135     1.243834879537     1.007825032230
         H           -3.348571497757    -0.257502367865     1.270160879537     1.007825032230
         H           -3.348572497757    -0.257487367865    -1.270170120463     1.007825032230
         H           -2.110981497757     1.099404632135    -1.243824120463     1.007825032230
         H            1.736354502243     2.386336632135    -0.000007120463     1.007825032230
         H            2.764432502243    -1.800377367865    -0.000010120463     1.007825032230
         H            3.537443502243     0.608270632135    -0.000003120463     1.007825032230

  Basis Set: AUG-CC-PVTZ
    Blend: AUG-CC-PVTZ
  Basis Set: (AUG-CC-PVTZ AUX)
    Blend: AUG-CC-PVTZ-JKFIT
	 Reference Energy          =    -378.7292803545327615 [Eh]
	 Singles Energy            =      -0.0000000000000000 [Eh]
	 Same-Spin Energy          =      -0.4131658234587902 [Eh]
	 Opposite-Spin Energy      =      -1.2907253513166155 [Eh]
	 Correlation Energy        =      -1.7038911747754057 [Eh]
	 Total Energy              =    -380.4331715293081402 [Eh]

	 ================> DF-SCS-MP2 Energies <==================
	-----------------------------------------------------------
	 SCS Same-Spin Scale       =       0.3333333333333333 [-]
	 SCS Opposite-Spin Scale   =       1.2000000000000000 [-]
	 SCS Same-Spin Energy      =      -0.1377219411529300 [Eh]
	 SCS Opposite-Spin Energy  =      -1.5488704215799385 [Eh]
	 SCS Correlation Energy    =      -1.6865923627328685 [Eh]
	 SCS Total Energy          =    -380.4158727172656427 [Eh]
	-----------------------------------------------------------

  Dipole Moment: [D]
     X:     1.4284      Y:     0.5853      Z:    -0.0000     Total:     1.5437

*** Psi4 exiting successfully. Buy a developer a beer!
