                               Psi4 1.4a3.dev225

  ==> Input File <==

--------------------------------------------------------------------------
#psi4
#
memory 32 gb

molecule  {
0 1
  N        0.2222710     1.0128310     0.0000010
  N        0.7926860    -1.3208380    -0.0000020
  C       -1.5206760    -0.6557300    -0.0000030
  C       -2.4976210     0.2265170     0.7463830
  C       -2.4976210     0.2265190    -0.7463820
  C       -0.0836969    -0.2802974     0.0000010
  C        1.5276990     1.3180910     0.0000010
  C        2.0920280    -0.9819740     0.0000030
  C        2.5210310     0.3421130     0.0000010
  H       -1.7051520    -1.7251160     0.0000010
  H       -2.0735420     1.0920370     1.2438350
  H       -3.3111280    -0.2648640     1.2701610
  H       -3.3111290    -0.2648490    -1.2701700
  H       -2.0735380     1.0920430    -1.2438240
  H        1.7737980     2.3789750    -0.0000070
  H        2.8018760    -1.8077390    -0.0000100
  H        3.5748870     0.6009090    -0.0000030
units angstrom
no_reorient  #important for SAPT in psi4, default
symmetry c1  #important for SAPT in psi4, default
}

set PROPERTIES_ORIGIN ["COM"]
properties('MP2/aug-cc-pvtz', properties = ['dipole'])
--------------------------------------------------------------------------

    Molecular point group: c1
  Charge       = 0
  Multiplicity = 1
  Basis Set: AUG-CC-PVTZ
    Blend: AUG-CC-PVTZ
  Basis Set: (AUG-CC-PVTZ AUX)
    Blend: AUG-CC-PVTZ-JKFIT

    Orbital Energies [Eh]
    ---------------------

    Doubly Occupied:

       1A    -15.567724     2A    -15.566220     3A    -11.319263
       4A    -11.299796     5A    -11.297657     6A    -11.242392
       7A    -11.233870     8A    -11.227739     9A    -11.227051
      10A     -1.307504    11A     -1.188389    12A     -1.148082
      13A     -1.064746    14A     -0.909224    15A     -0.892541
      16A     -0.820495    17A     -0.801707    18A     -0.718912
      19A     -0.697597    20A     -0.657462    21A     -0.634144
      22A     -0.606567    23A     -0.587919    24A     -0.578265
      25A     -0.527034    26A     -0.513634    27A     -0.477341
      28A     -0.440240    29A     -0.425289    30A     -0.418750
      31A     -0.409597    32A     -0.349182

  @DF-RHF Final Energy:  -378.73007737753585

   => Energetics <=

    Nuclear Repulsion Energy =            413.4988348442530537
    One-Electron Energy =               -1332.1451599481267749
    Two-Electron Energy =                 539.9162477263379287
    Total Energy =                       -378.7300773775358493
  Basis Set: (AUG-CC-PVTZ AUX)
    Blend: AUG-CC-PVTZ-RI
    Molecular point group: c1

    Geometry (in Angstrom), charge = 0, multiplicity = 1:

       Center              X                  Y                   Z               Mass
    ------------   -----------------  -----------------  -----------------  -----------------
         N            0.186054479306     1.019994955385     0.000000859548    14.003074004430
         N            0.756469479306    -1.313674044615    -0.000002140452    14.003074004430
         C           -1.556892520694    -0.648566044615    -0.000003140452    12.000000000000
         C           -2.533837520694     0.233680955385     0.746382859548    12.000000000000
         C           -2.533837520694     0.233682955385    -0.746382140452    12.000000000000
         C           -0.119913420694    -0.273133444615     0.000000859548    12.000000000000
         C            1.491482479306     1.325254955385     0.000000859548    12.000000000000
         C            2.055811479306    -0.974810044615     0.000002859548    12.000000000000
         C            2.484814479306     0.349276955385     0.000000859548    12.000000000000
         H           -1.741368520694    -1.717952044615     0.000000859548     1.007825032230
         H           -2.109758520694     1.099200955385     1.243834859548     1.007825032230
         H           -3.347344520694    -0.257700044615     1.270160859548     1.007825032230
         H           -3.347345520694    -0.257685044615    -1.270170140452     1.007825032230
         H           -2.109754520694     1.099206955385    -1.243824140452     1.007825032230
         H            1.737581479306     2.386138955385    -0.000007140452     1.007825032230
         H            2.765659479306    -1.800575044615    -0.000010140452     1.007825032230
         H            3.538670479306     0.608072955385    -0.000003140452     1.007825032230

  Basis Set: AUG-CC-PVTZ
    Blend: AUG-CC-PVTZ
  Basis Set: (AUG-CC-PVTZ AUX)
    Blend: AUG-CC-PVTZ-JKFIT
	 Reference Energy          =    -378.7300773775358493 [Eh]
	 Singles Energy            =      -0.0000000000000000 [Eh]
	 Same-Spin Energy          =      -0.4131361399363612 [Eh]
	 Opposite-Spin Energy      =      -1.2905219863711257 [Eh]
	 Correlation Energy        =      -1.7036581263074870 [Eh]
	 Total Energy              =    -380.4337355038433088 [Eh]

	 ================> DF-SCS-MP2 Energies <==================
	-----------------------------------------------------------
	 SCS Same-Spin Scale       =       0.3333333333333333 [-]
	 SCS Opposite-Spin Scale   =       1.2000000000000000 [-]
	 SCS Same-Spin Energy      =      -0.1377120466454537 [Eh]
	 SCS Opposite-Spin Energy  =      -1.5486263836453509 [Eh]
	 SCS Correlation Energy    =      -1.6863384302908047 [Eh]
	 SCS Total Energy          =    -380.4164158078266382 [Eh]
	-----------------------------------------------------------

  Dipole Moment: [D]
     X:     1.4877      Y:     0.6211      Z:    -0.0000     Total:     1.6121

*** Psi4 exiting successfully. Buy a developer a beer!
