                               Psi4 1.3.2 release

  ==> Input File <==

--------------------------------------------------------------------------
#psi4
#
memory 32 gb

molecule  {
0 1
  N        0.2222710     1.0128310     0.0000010
  N        0.7926860    -1.3208380    -0.0000020
  C       -1.5206760    -0.6557300    -0.0000030
  C       -2.4976210     0.2265170     0.7463830
  C       -2.4976210     0.2265190    -0.7463820
  C       -0.0883020    -0.2997600     0.0000010
  C        1.6250722     1.3408607     0.0000010
  C        2.0920280    -0.9819740     0.0000030
  C        2.5210310     0.3421130     0.0000010
  H       -1.7051520    -1.7251160     0.0000010
  H       -2.0735420     1.0920370     1.2438350
  H       -3.3111280    -0.2648640     1.2701610
  H       -3.3111290    -0.2648490    -1.2701700
  H       -2.0735380     1.0920430    -1.2438240
  H        1.7737980     2.3789750    -0.0000070
  H        2.8018760    -1.8077390    -0.0000100
  H        3.5748870     0.6009090    -0.0000030
units angstrom
no_reorient  #important for SAPT in psi4, default
symmetry c1  #important for SAPT in psi4, default
}

set PROPERTIES_ORIGIN ["COM"]
properties('MP2/aug-cc-pvtz', properties = ['dipole'])
--------------------------------------------------------------------------

    Molecular point group: c1
  Charge       = 0
  Multiplicity = 1
  Basis Set: AUG-CC-PVTZ
    Blend: AUG-CC-PVTZ
  Basis Set: (AUG-CC-PVTZ AUX)
    Blend: AUG-CC-PVTZ-JKFIT

    Orbital Energies [Eh]
    ---------------------

    Doubly Occupied:

       1A    -15.569294     2A    -15.567644     3A    -11.315698
       4A    -11.303439     5A    -11.297300     6A    -11.241622
       7A    -11.232027     8A    -11.226380     9A    -11.225695
      10A     -1.294463    11A     -1.170088    12A     -1.144404
      13A     -1.074139    14A     -0.911911    15A     -0.892578
      16A     -0.818919    17A     -0.800378    18A     -0.717066
      19A     -0.697787    20A     -0.656777    21A     -0.631728
      22A     -0.609538    23A     -0.594554    24A     -0.570734
      25A     -0.526117    26A     -0.512182    27A     -0.467184
      28A     -0.442426    29A     -0.424851    30A     -0.410494
      31A     -0.404514    32A     -0.355007

  @DF-RHF Final Energy:  -378.71543194306736

   => Energetics <=

    Nuclear Repulsion Energy =            412.0802501371472886
    One-Electron Energy =               -1329.3774882636964776
    Two-Electron Energy =                 538.5818061834818309
    Total Energy =                       -378.7154319430674150
  Basis Set: (AUG-CC-PVTZ AUX)
    Blend: AUG-CC-PVTZ-RI
    Molecular point group: c1

    Geometry (in Angstrom), charge = 0, multiplicity = 1:

       Center              X                  Y                   Z               Mass
    ------------   -----------------  -----------------  -----------------  -----------------
         N            0.176782980968     1.019664434741     0.000000859548    14.003074004430
         N            0.747197980968    -1.314004565259    -0.000002140452    14.003074004430
         C           -1.566164019032    -0.648896565259    -0.000003140452    12.000000000000
         C           -2.543109019032     0.233350434741     0.746382859548    12.000000000000
         C           -2.543109019032     0.233352434741    -0.746382140452    12.000000000000
         C           -0.133790019032    -0.292926565259     0.000000859548    12.000000000000
         C            1.579584180968     1.347694134741     0.000000859548    12.000000000000
         C            2.046539980968    -0.975140565259     0.000002859548    12.000000000000
         C            2.475542980968     0.348946434741     0.000000859548    12.000000000000
         H           -1.750640019032    -1.718282565259     0.000000859548     1.007825032230
         H           -2.119030019032     1.098870434741     1.243834859548     1.007825032230
         H           -3.356616019032    -0.258030565259     1.270160859548     1.007825032230
         H           -3.356617019032    -0.258015565259    -1.270170140452     1.007825032230
         H           -2.119026019032     1.098876434741    -1.243824140452     1.007825032230
         H            1.728309980968     2.385808434741    -0.000007140452     1.007825032230
         H            2.756387980968    -1.800905565259    -0.000010140452     1.007825032230
         H            3.529398980968     0.607742434741    -0.000003140452     1.007825032230

  Basis Set: AUG-CC-PVTZ
    Blend: AUG-CC-PVTZ
  Basis Set: (AUG-CC-PVTZ AUX)
    Blend: AUG-CC-PVTZ-JKFIT
	 Reference Energy          =    -378.7154319430673581 [Eh]
	 Singles Energy            =      -0.0000000000000000 [Eh]
	 Same-Spin Energy          =      -0.4140318866153195 [Eh]
	 Opposite-Spin Energy      =      -1.2935430868453510 [Eh]
	 Correlation Energy        =      -1.7075749734606704 [Eh]
	 Total Energy              =    -380.4230069165280383 [Eh]

	 ================> DF-SCS-MP2 Energies <==================
	-----------------------------------------------------------
	 SCS Same-Spin Scale       =       0.3333333333333333 [-]
	 SCS Opposite-Spin Scale   =       1.2000000000000000 [-]
	 SCS Same-Spin Energy      =      -0.1380106288717731 [Eh]
	 SCS Opposite-Spin Energy  =      -1.5522517042144213 [Eh]
	 SCS Correlation Energy    =      -1.6902623330861943 [Eh]
	 SCS Total Energy          =    -380.4056942761535538 [Eh]
	-----------------------------------------------------------

  Dipole Moment: [D]
     X:     1.5809      Y:     0.5960      Z:    -0.0000     Total:     1.6895

*** Psi4 exiting successfully. Buy a developer a beer!
