                               Psi4 1.4a3.dev225

  ==> Input File <==

--------------------------------------------------------------------------
#psi4
#
memory 32 gb

molecule  {
0 1
  N        0.2222710     1.0128310     0.0000010
  N        0.7926860    -1.3208380    -0.0000020
  C       -1.5206760    -0.6557300    -0.0000030
  C       -2.4976210     0.2265170     0.7463830
  C       -2.4976210     0.2265190    -0.7463820
  C       -0.0883020    -0.2997600     0.0000010
  C        1.5276990     1.3180910     0.0000010
  C        2.0920280    -0.9819740     0.0000030
  C        2.5210310     0.3421130     0.0000010
  H       -1.7051520    -1.7251160     0.0000010
  H       -2.0735420     1.0920370     1.2438350
  H       -3.3111280    -0.2648640     1.2701610
  H       -3.3111290    -0.2648490    -1.2701700
  H       -2.0735380     1.0920430    -1.2438240
  H        1.7624993     2.3302683    -0.0000066
  H        2.8018760    -1.8077390    -0.0000100
  H        3.5748870     0.6009090    -0.0000030
units angstrom
no_reorient  #important for SAPT in psi4, default
symmetry c1  #important for SAPT in psi4, default
}

set PROPERTIES_ORIGIN ["COM"]
properties('MP2/aug-cc-pvtz', properties = ['dipole'])
--------------------------------------------------------------------------

    Molecular point group: c1
  Charge       = 0
  Multiplicity = 1
  Basis Set: AUG-CC-PVTZ
    Blend: AUG-CC-PVTZ
  Basis Set: (AUG-CC-PVTZ AUX)
    Blend: AUG-CC-PVTZ-JKFIT

    Orbital Energies [Eh]
    ---------------------

    Doubly Occupied:

       1A    -15.566682     2A    -15.566314     3A    -11.319479
       4A    -11.297317     5A    -11.293183     6A    -11.241527
       7A    -11.233895     8A    -11.228483     9A    -11.227800
      10A     -1.305060    11A     -1.186906    12A     -1.149043
      13A     -1.064747    14A     -0.911261    15A     -0.894773
      16A     -0.821029    17A     -0.804028    18A     -0.721920
      19A     -0.698234    20A     -0.656234    21A     -0.635112
      22A     -0.611263    23A     -0.590245    24A     -0.576760
      25A     -0.527514    26A     -0.514082    27A     -0.476995
      28A     -0.441212    29A     -0.427066    30A     -0.417593
      31A     -0.408163    32A     -0.347984

  @DF-RHF Final Energy:  -378.72942052637524

   => Energetics <=

    Nuclear Repulsion Energy =            413.6644412297070517
    One-Electron Energy =               -1332.4639135712802727
    Two-Electron Energy =                 540.0700518151978713
    Total Energy =                       -378.7294205263752929
  Basis Set: (AUG-CC-PVTZ AUX)
    Blend: AUG-CC-PVTZ-RI
    Molecular point group: c1

    Geometry (in Angstrom), charge = 0, multiplicity = 1:

       Center              X                  Y                   Z               Mass
    ------------   -----------------  -----------------  -----------------  -----------------
         N            0.186609563902     1.022348932049     0.000000856190    14.003074004430
         N            0.757024563902    -1.311320067951    -0.000002143810    14.003074004430
         C           -1.556337436098    -0.646212067951    -0.000003143810    12.000000000000
         C           -2.533282436098     0.236034932049     0.746382856190    12.000000000000
         C           -2.533282436098     0.236036932049    -0.746382143810    12.000000000000
         C           -0.123963436098    -0.290242067951     0.000000856190    12.000000000000
         C            1.492037563902     1.327608932049     0.000000856190    12.000000000000
         C            2.056366563902    -0.972456067951     0.000002856190    12.000000000000
         C            2.485369563902     0.351630932049     0.000000856190    12.000000000000
         H           -1.740813436098    -1.715598067951     0.000000856190     1.007825032230
         H           -2.109203436098     1.101554932049     1.243834856190     1.007825032230
         H           -3.346789436098    -0.255346067951     1.270160856190     1.007825032230
         H           -3.346790436098    -0.255331067951    -1.270170143810     1.007825032230
         H           -2.109199436098     1.101560932049    -1.243824143810     1.007825032230
         H            1.726837863902     2.339786232049    -0.000006743810     1.007825032230
         H            2.766214563902    -1.798221067951    -0.000010143810     1.007825032230
         H            3.539225563902     0.610426932049    -0.000003143810     1.007825032230

  Basis Set: AUG-CC-PVTZ
    Blend: AUG-CC-PVTZ
  Basis Set: (AUG-CC-PVTZ AUX)
    Blend: AUG-CC-PVTZ-JKFIT
	 Reference Energy          =    -378.7294205263752360 [Eh]
	 Singles Energy            =      -0.0000000000000000 [Eh]
	 Same-Spin Energy          =      -0.4131532322201253 [Eh]
	 Opposite-Spin Energy      =      -1.2903769664362450 [Eh]
	 Correlation Energy        =      -1.7035301986563702 [Eh]
	 Total Energy              =    -380.4329507250316169 [Eh]

	 ================> DF-SCS-MP2 Energies <==================
	-----------------------------------------------------------
	 SCS Same-Spin Scale       =       0.3333333333333333 [-]
	 SCS Opposite-Spin Scale   =       1.2000000000000000 [-]
	 SCS Same-Spin Energy      =      -0.1377177440733751 [Eh]
	 SCS Opposite-Spin Energy  =      -1.5484523597234940 [Eh]
	 SCS Correlation Energy    =      -1.6861701037968690 [Eh]
	 SCS Total Energy          =    -380.4155906301721188 [Eh]
	-----------------------------------------------------------

  Dipole Moment: [D]
     X:     1.4446      Y:     0.6231      Z:    -0.0000     Total:     1.5733

*** Psi4 exiting successfully. Buy a developer a beer!
