                               Psi4 1.4a3.dev225

  ==> Input File <==

--------------------------------------------------------------------------
#psi4
#
memory 32 gb

molecule  {
0 1
  N        0.2222710     1.0128310     0.0000010
  N        0.7926860    -1.3208380    -0.0000020
  C       -1.5206760    -0.6557300    -0.0000030
  C       -2.4976210     0.2265170     0.7463830
  C       -2.4976210     0.2265190    -0.7463820
  C       -0.0929071    -0.3192226     0.0000010
  C        1.5276990     1.3180910     0.0000010
  C        2.0920280    -0.9819740     0.0000030
  C        2.5210310     0.3421130     0.0000010
  H       -1.7051520    -1.7251160     0.0000010
  H       -2.0735420     1.0920370     1.2438350
  H       -3.3111280    -0.2648640     1.2701610
  H       -3.3111290    -0.2648490    -1.2701700
  H       -2.0735380     1.0920430    -1.2438240
  H        1.7737980     2.3789750    -0.0000070
  H        2.8018760    -1.8077390    -0.0000100
  H        3.5748870     0.6009090    -0.0000030
units angstrom
no_reorient  #important for SAPT in psi4, default
symmetry c1  #important for SAPT in psi4, default
}

set PROPERTIES_ORIGIN ["COM"]
properties('MP2/aug-cc-pvtz', properties = ['dipole'])
--------------------------------------------------------------------------

    Molecular point group: c1
  Charge       = 0
  Multiplicity = 1
  Basis Set: AUG-CC-PVTZ
    Blend: AUG-CC-PVTZ
  Basis Set: (AUG-CC-PVTZ AUX)
    Blend: AUG-CC-PVTZ-JKFIT

    Orbital Energies [Eh]
    ---------------------

    Doubly Occupied:

       1A    -15.567172     2A    -15.565874     3A    -11.320355
       4A    -11.298066     5A    -11.297529     6A    -11.241537
       7A    -11.234241     8A    -11.229459     9A    -11.228780
      10A     -1.303515    11A     -1.185134    12A     -1.149975
      13A     -1.063944    14A     -0.913756    15A     -0.888458
      16A     -0.821780    17A     -0.803581    18A     -0.717366
      19A     -0.698961    20A     -0.655192    21A     -0.635963
      22A     -0.607717    23A     -0.587091    24A     -0.576010
      25A     -0.527406    26A     -0.514753    27A     -0.477169
      28A     -0.442575    29A     -0.428977    30A     -0.416997
      31A     -0.405762    32A     -0.347184

  @DF-RHF Final Energy:  -378.72929985090622

   => Energetics <=

    Nuclear Repulsion Energy =            413.3020095950055861
    One-Electron Energy =               -1331.7580571680871344
    Two-Electron Energy =                 539.7267477221754461
    Total Energy =                       -378.7292998509061590
  Basis Set: (AUG-CC-PVTZ AUX)
    Blend: AUG-CC-PVTZ-RI
    Molecular point group: c1

    Geometry (in Angstrom), charge = 0, multiplicity = 1:

       Center              X                  Y                   Z               Mass
    ------------   -----------------  -----------------  -----------------  -----------------
         N            0.186974971953     1.023885246628     0.000000859548    14.003074004430
         N            0.757389971953    -1.309783753372    -0.000002140452    14.003074004430
         C           -1.555972028047    -0.644675753372    -0.000003140452    12.000000000000
         C           -2.532917028047     0.237571246628     0.746382859548    12.000000000000
         C           -2.532917028047     0.237573246628    -0.746382140452    12.000000000000
         C           -0.128203128047    -0.308168353372     0.000000859548    12.000000000000
         C            1.492402971953     1.329145246628     0.000000859548    12.000000000000
         C            2.056731971953    -0.970919753372     0.000002859548    12.000000000000
         C            2.485734971953     0.353167246628     0.000000859548    12.000000000000
         H           -1.740448028047    -1.714061753372     0.000000859548     1.007825032230
         H           -2.108838028047     1.103091246628     1.243834859548     1.007825032230
         H           -3.346424028047    -0.253809753372     1.270160859548     1.007825032230
         H           -3.346425028047    -0.253794753372    -1.270170140452     1.007825032230
         H           -2.108834028047     1.103097246628    -1.243824140452     1.007825032230
         H            1.738501971953     2.390029246628    -0.000007140452     1.007825032230
         H            2.766579971953    -1.796684753372    -0.000010140452     1.007825032230
         H            3.539590971953     0.611963246628    -0.000003140452     1.007825032230

  Basis Set: AUG-CC-PVTZ
    Blend: AUG-CC-PVTZ
  Basis Set: (AUG-CC-PVTZ AUX)
    Blend: AUG-CC-PVTZ-JKFIT
	 Reference Energy          =    -378.7292998509062159 [Eh]
	 Singles Energy            =      -0.0000000000000000 [Eh]
	 Same-Spin Energy          =      -0.4133648352938109 [Eh]
	 Opposite-Spin Energy      =      -1.2909472886308480 [Eh]
	 Correlation Energy        =      -1.7043121239246588 [Eh]
	 Total Energy              =    -380.4336119748308533 [Eh]

	 ================> DF-SCS-MP2 Energies <==================
	-----------------------------------------------------------
	 SCS Same-Spin Scale       =       0.3333333333333333 [-]
	 SCS Opposite-Spin Scale   =       1.2000000000000000 [-]
	 SCS Same-Spin Energy      =      -0.1377882784312703 [Eh]
	 SCS Opposite-Spin Energy  =      -1.5491367463570176 [Eh]
	 SCS Correlation Energy    =      -1.6869250247882879 [Eh]
	 SCS Total Energy          =    -380.4162248756945246 [Eh]
	-----------------------------------------------------------

  Dipole Moment: [D]
     X:     1.3726      Y:     0.5968      Z:    -0.0000     Total:     1.4967

*** Psi4 exiting successfully. Buy a developer a beer!
