                               Psi4 1.3.2 release

  ==> Input File <==

--------------------------------------------------------------------------
#psi4
#
memory 32 gb

molecule  {
0 1
  N        0.2222710     1.0128310     0.0000010
  N        0.7926860    -1.3208380    -0.0000020
  C       -1.5206760    -0.6557300    -0.0000030
  C       -2.4159201     0.2877132     0.7735125
  C       -2.4976210     0.2265190    -0.7463820
  C       -0.0883020    -0.2997600     0.0000010
  C        1.5276990     1.3180910     0.0000010
  C        2.0920280    -0.9819740     0.0000030
  C        2.5210310     0.3421130     0.0000010
  H       -1.7051520    -1.7251160     0.0000010
  H       -2.0735420     1.0920370     1.2438350
  H       -3.3111280    -0.2648640     1.2701610
  H       -3.3111290    -0.2648490    -1.2701700
  H       -2.0735380     1.0920430    -1.2438240
  H        1.7737980     2.3789750    -0.0000070
  H        2.8018760    -1.8077390    -0.0000100
  H        3.5748870     0.6009090    -0.0000030
units angstrom
no_reorient  #important for SAPT in psi4, default
symmetry c1  #important for SAPT in psi4, default
}

set PROPERTIES_ORIGIN ["COM"]
properties('MP2/aug-cc-pvtz', properties = ['dipole'])
--------------------------------------------------------------------------

    Molecular point group: c1
  Charge       = 0
  Multiplicity = 1
  Basis Set: AUG-CC-PVTZ
    Blend: AUG-CC-PVTZ
  Basis Set: (AUG-CC-PVTZ AUX)
    Blend: AUG-CC-PVTZ-JKFIT

    Orbital Energies [Eh]
    ---------------------

    Doubly Occupied:

       1A    -15.566744     2A    -15.566664     3A    -11.319492
       4A    -11.299239     5A    -11.297716     6A    -11.241912
       7A    -11.236829     8A    -11.229827     9A    -11.229185
      10A     -1.305572    11A     -1.187029    12A     -1.146332
      13A     -1.063073    14A     -0.910699    15A     -0.890447
      16A     -0.828470    17A     -0.803723    18A     -0.720080
      19A     -0.698980    20A     -0.655492    21A     -0.630822
      22A     -0.611818    23A     -0.587145    24A     -0.576712
      25A     -0.528984    26A     -0.516104    27A     -0.476777
      28A     -0.445178    29A     -0.418461    30A     -0.416992
      31A     -0.407727    32A     -0.348587

  @DF-RHF Final Energy:  -378.71633518307374

   => Energetics <=

    Nuclear Repulsion Energy =            413.8376078021179296
    One-Electron Energy =               -1332.7822654923845676
    Two-Electron Energy =                 540.2283225071929564
    Total Energy =                       -378.7163351830737383
  Basis Set: (AUG-CC-PVTZ AUX)
    Blend: AUG-CC-PVTZ-RI
    Molecular point group: c1

    Geometry (in Angstrom), charge = 0, multiplicity = 1:

       Center              X                  Y                   Z               Mass
    ------------   -----------------  -----------------  -----------------  -----------------
         N            0.178349313612     1.015823984943    -0.002710537087    14.003074004430
         N            0.748764313612    -1.317845015057    -0.002713537087    14.003074004430
         C           -1.564597686388    -0.652737015057    -0.002714537087    12.000000000000
         C           -2.459841786388     0.290706184943     0.770800962913    12.000000000000
         C           -2.541542686388     0.229511984943    -0.749093537087    12.000000000000
         C           -0.132223686388    -0.296767015057    -0.002710537087    12.000000000000
         C            1.483777313612     1.321083984943    -0.002710537087    12.000000000000
         C            2.048106313612    -0.978981015057    -0.002708537087    12.000000000000
         C            2.477109313612     0.345105984943    -0.002710537087    12.000000000000
         H           -1.749073686388    -1.722123015057    -0.002710537087     1.007825032230
         H           -2.117463686388     1.095029984943     1.241123462913     1.007825032230
         H           -3.355049686388    -0.261871015057     1.267449462913     1.007825032230
         H           -3.355050686388    -0.261856015057    -1.272881537087     1.007825032230
         H           -2.117459686388     1.095035984943    -1.246535537087     1.007825032230
         H            1.729876313612     2.381967984943    -0.002718537087     1.007825032230
         H            2.757954313612    -1.804746015057    -0.002721537087     1.007825032230
         H            3.530965313612     0.603901984943    -0.002714537087     1.007825032230

  Basis Set: AUG-CC-PVTZ
    Blend: AUG-CC-PVTZ
  Basis Set: (AUG-CC-PVTZ AUX)
    Blend: AUG-CC-PVTZ-JKFIT
	 Reference Energy          =    -378.7163351830737383 [Eh]
	 Singles Energy            =      -0.0000000000000000 [Eh]
	 Same-Spin Energy          =      -0.4133201569444489 [Eh]
	 Opposite-Spin Energy      =      -1.2915199308054359 [Eh]
	 Correlation Energy        =      -1.7048400877498848 [Eh]
	 Total Energy              =    -380.4211752708235963 [Eh]

	 ================> DF-SCS-MP2 Energies <==================
	-----------------------------------------------------------
	 SCS Same-Spin Scale       =       0.3333333333333333 [-]
	 SCS Opposite-Spin Scale   =       1.2000000000000000 [-]
	 SCS Same-Spin Energy      =      -0.1377733856481496 [Eh]
	 SCS Opposite-Spin Energy  =      -1.5498239169665231 [Eh]
	 SCS Correlation Energy    =      -1.6875973026146727 [Eh]
	 SCS Total Energy          =    -380.4039324856884150 [Eh]
	-----------------------------------------------------------

  Dipole Moment: [D]
     X:     1.4730      Y:     0.6078      Z:    -0.0439     Total:     1.5941

*** Psi4 exiting successfully. Buy a developer a beer!
