                               Psi4 1.3.2 release

  ==> Input File <==

--------------------------------------------------------------------------
#psi4
#
memory 32 gb

molecule  {
0 1
  N        0.2222710     1.0128310     0.0000010
  N        0.7926860    -1.3208380    -0.0000020
  C       -1.5206760    -0.6557300    -0.0000030
  C       -2.4976210     0.2265170     0.7463830
  C       -2.4976210     0.2265190    -0.7463820
  C        0.0087460    -0.2756419     0.0000013
  C        1.5276990     1.3180910     0.0000010
  C        2.0920280    -0.9819740     0.0000030
  C        2.5210310     0.3421130     0.0000010
  H       -1.7051520    -1.7251160     0.0000010
  H       -2.0735420     1.0920370     1.2438350
  H       -3.3111280    -0.2648640     1.2701610
  H       -3.3111290    -0.2648490    -1.2701700
  H       -2.0735380     1.0920430    -1.2438240
  H        1.7737980     2.3789750    -0.0000070
  H        2.8018760    -1.8077390    -0.0000100
  H        3.5748870     0.6009090    -0.0000030
units angstrom
no_reorient  #important for SAPT in psi4, default
symmetry c1  #important for SAPT in psi4, default
}

set PROPERTIES_ORIGIN ["COM"]
properties('MP2/aug-cc-pvtz', properties = ['dipole'])
--------------------------------------------------------------------------

    Molecular point group: c1
  Charge       = 0
  Multiplicity = 1
  Basis Set: AUG-CC-PVTZ
    Blend: AUG-CC-PVTZ
  Basis Set: (AUG-CC-PVTZ AUX)
    Blend: AUG-CC-PVTZ-JKFIT

    Orbital Energies [Eh]
    ---------------------

    Doubly Occupied:

       1A    -15.569753     2A    -15.569553     3A    -11.314802
       4A    -11.304148     5A    -11.302859     6A    -11.246706
       7A    -11.229565     8A    -11.220173     9A    -11.219477
      10A     -1.326281    11A     -1.207911    12A     -1.136239
      13A     -1.069150    14A     -0.904723    15A     -0.896150
      16A     -0.813245    17A     -0.796213    18A     -0.718872
      19A     -0.704770    20A     -0.652223    21A     -0.631922
      22A     -0.604744    23A     -0.591716    24A     -0.589449
      25A     -0.521610    26A     -0.507678    27A     -0.465751
      28A     -0.430488    29A     -0.429129    30A     -0.426163
      31A     -0.412189    32A     -0.358622

  @DF-RHF Final Energy:  -378.72144086297857

   => Energetics <=

    Nuclear Repulsion Energy =            414.0006696479193806
    One-Electron Energy =               -1333.0996705825541540
    Two-Electron Energy =                 540.3775600716562622
    Total Energy =                       -378.7214408629785112
  Basis Set: (AUG-CC-PVTZ AUX)
    Blend: AUG-CC-PVTZ-RI
    Molecular point group: c1

    Geometry (in Angstrom), charge = 0, multiplicity = 1:

       Center              X                  Y                   Z               Mass
    ------------   -----------------  -----------------  -----------------  -----------------
         N            0.176815482347     1.019529671947     0.000000829565    14.003074004430
         N            0.747230482347    -1.314139328053    -0.000002170435    14.003074004430
         C           -1.566131517653    -0.649031328053    -0.000003170435    12.000000000000
         C           -2.543076517653     0.233215671947     0.746382829565    12.000000000000
         C           -2.543076517653     0.233217671947    -0.746382170435    12.000000000000
         C           -0.036709517653    -0.268943228053     0.000001129565    12.000000000000
         C            1.482243482347     1.324789671947     0.000000829565    12.000000000000
         C            2.046572482347    -0.975275328053     0.000002829565    12.000000000000
         C            2.475575482347     0.348811671947     0.000000829565    12.000000000000
         H           -1.750607517653    -1.718417328053     0.000000829565     1.007825032230
         H           -2.118997517653     1.098735671947     1.243834829565     1.007825032230
         H           -3.356583517653    -0.258165328053     1.270160829565     1.007825032230
         H           -3.356584517653    -0.258150328053    -1.270170170435     1.007825032230
         H           -2.118993517653     1.098741671947    -1.243824170435     1.007825032230
         H            1.728342482347     2.385673671947    -0.000007170435     1.007825032230
         H            2.756420482347    -1.801040328053    -0.000010170435     1.007825032230
         H            3.529431482347     0.607607671947    -0.000003170435     1.007825032230

  Basis Set: AUG-CC-PVTZ
    Blend: AUG-CC-PVTZ
  Basis Set: (AUG-CC-PVTZ AUX)
    Blend: AUG-CC-PVTZ-JKFIT
	 Reference Energy          =    -378.7214408629785680 [Eh]
	 Singles Energy            =      -0.0000000000000000 [Eh]
	 Same-Spin Energy          =      -0.4121822772574272 [Eh]
	 Opposite-Spin Energy      =      -1.2891817762078552 [Eh]
	 Correlation Energy        =      -1.7013640534652823 [Eh]
	 Total Energy              =    -380.4228049164438517 [Eh]

	 ================> DF-SCS-MP2 Energies <==================
	-----------------------------------------------------------
	 SCS Same-Spin Scale       =       0.3333333333333333 [-]
	 SCS Opposite-Spin Scale   =       1.2000000000000000 [-]
	 SCS Same-Spin Energy      =      -0.1373940924191424 [Eh]
	 SCS Opposite-Spin Energy  =      -1.5470181314494262 [Eh]
	 SCS Correlation Energy    =      -1.6844122238685686 [Eh]
	 SCS Total Energy          =    -380.4058530868471166 [Eh]
	-----------------------------------------------------------

  Dipole Moment: [D]
     X:     2.0973      Y:     0.6542      Z:    -0.0000     Total:     2.1970

*** Psi4 exiting successfully. Buy a developer a beer!
