                               Psi4 1.3.2 release

  ==> Input File <==

--------------------------------------------------------------------------
#psi4
#
memory 32 gb

molecule  {
0 1
  N        0.2222710     1.0128310     0.0000010
  N        0.7926860    -1.3208380    -0.0000020
  C       -1.5206760    -0.6557300    -0.0000030
  C       -2.5745624     0.1610225     0.7156171
  C       -2.4976210     0.2265190    -0.7463820
  C       -0.0883020    -0.2997600     0.0000010
  C        1.5276990     1.3180910     0.0000010
  C        2.0920280    -0.9819740     0.0000030
  C        2.5210310     0.3421130     0.0000010
  H       -1.7051520    -1.7251160     0.0000010
  H       -2.0735420     1.0920370     1.2438350
  H       -3.3111280    -0.2648640     1.2701610
  H       -3.3111290    -0.2648490    -1.2701700
  H       -2.0735380     1.0920430    -1.2438240
  H        1.7737980     2.3789750    -0.0000070
  H        2.8018760    -1.8077390    -0.0000100
  H        3.5748870     0.6009090    -0.0000030
units angstrom
no_reorient  #important for SAPT in psi4, default
symmetry c1  #important for SAPT in psi4, default
}

set PROPERTIES_ORIGIN ["COM"]
properties('MP2/aug-cc-pvtz', properties = ['dipole'])
--------------------------------------------------------------------------

    Molecular point group: c1
  Charge       = 0
  Multiplicity = 1
  Basis Set: AUG-CC-PVTZ
    Blend: AUG-CC-PVTZ
  Basis Set: (AUG-CC-PVTZ AUX)
    Blend: AUG-CC-PVTZ-JKFIT

    Orbital Energies [Eh]
    ---------------------

    Doubly Occupied:

       1A    -15.567300     2A    -15.567126     3A    -11.320820
       4A    -11.298964     5A    -11.297787     6A    -11.242243
       7A    -11.233187     8A    -11.229805     9A    -11.228498
      10A     -1.305384    11A     -1.186967    12A     -1.152889
      13A     -1.065856    14A     -0.913106    15A     -0.890826
      16A     -0.822384    17A     -0.803325    18A     -0.715959
      19A     -0.699997    20A     -0.657965    21A     -0.642417
      22A     -0.606143    23A     -0.588271    24A     -0.577592
      25A     -0.527118    26A     -0.503748    27A     -0.477529
      28A     -0.434965    29A     -0.434348    30A     -0.417359
      31A     -0.407956    32A     -0.347761

  @DF-RHF Final Energy:  -378.71722849674802

   => Energetics <=

    Nuclear Repulsion Energy =            413.0378458527089265
    One-Electron Energy =               -1331.1789582192625403
    Two-Electron Energy =                 539.4238838698056497
    Total Energy =                       -378.7172284967480209
  Basis Set: (AUG-CC-PVTZ AUX)
    Blend: AUG-CC-PVTZ-RI
    Molecular point group: c1

    Geometry (in Angstrom), charge = 0, multiplicity = 1:

       Center              X                  Y                   Z               Mass
    ------------   -----------------  -----------------  -----------------  -----------------
         N            0.194204460163     1.028485800960     0.003075687972    14.003074004430
         N            0.764619460163    -1.305183199040     0.003072687972    14.003074004430
         C           -1.548742539837    -0.640075199040     0.003071687972    12.000000000000
         C           -2.602628939837     0.176677300960     0.718691787972    12.000000000000
         C           -2.525687539837     0.242173800960    -0.743307312028    12.000000000000
         C           -0.116368539837    -0.284105199040     0.003075687972    12.000000000000
         C            1.499632460163     1.333745800960     0.003075687972    12.000000000000
         C            2.063961460163    -0.966319199040     0.003077687972    12.000000000000
         C            2.492964460163     0.357767800960     0.003075687972    12.000000000000
         H           -1.733218539837    -1.709461199040     0.003075687972     1.007825032230
         H           -2.101608539837     1.107691800960     1.246909687972     1.007825032230
         H           -3.339194539837    -0.249209199040     1.273235687972     1.007825032230
         H           -3.339195539837    -0.249194199040    -1.267095312028     1.007825032230
         H           -2.101604539837     1.107697800960    -1.240749312028     1.007825032230
         H            1.745731460163     2.394629800960     0.003067687972     1.007825032230
         H            2.773809460163    -1.792084199040     0.003064687972     1.007825032230
         H            3.546820460163     0.616563800960     0.003071687972     1.007825032230

  Basis Set: AUG-CC-PVTZ
    Blend: AUG-CC-PVTZ
  Basis Set: (AUG-CC-PVTZ AUX)
    Blend: AUG-CC-PVTZ-JKFIT
	 Reference Energy          =    -378.7172284967480209 [Eh]
	 Singles Energy            =      -0.0000000000000000 [Eh]
	 Same-Spin Energy          =      -0.4136078236349499 [Eh]
	 Opposite-Spin Energy      =      -1.2913221725921318 [Eh]
	 Correlation Energy        =      -1.7049299962270816 [Eh]
	 Total Energy              =    -380.4221584929750861 [Eh]

	 ================> DF-SCS-MP2 Energies <==================
	-----------------------------------------------------------
	 SCS Same-Spin Scale       =       0.3333333333333333 [-]
	 SCS Opposite-Spin Scale   =       1.2000000000000000 [-]
	 SCS Same-Spin Energy      =      -0.1378692745449833 [Eh]
	 SCS Opposite-Spin Energy  =      -1.5495866071105582 [Eh]
	 SCS Correlation Energy    =      -1.6874558816555414 [Eh]
	 SCS Total Energy          =    -380.4046843784035445 [Eh]
	-----------------------------------------------------------

  Dipole Moment: [D]
     X:     1.4164      Y:     0.5904      Z:    -0.0025     Total:     1.5345

*** Psi4 exiting successfully. Buy a developer a beer!
