                               Psi4 1.4a3.dev225

  ==> Input File <==

--------------------------------------------------------------------------
#psi4
#
memory 32 gb

molecule  {
0 1
  N        0.2222710     1.0128310     0.0000010
  N        0.7926860    -1.3208380    -0.0000020
  C       -1.5206760    -0.6557300    -0.0000030
  C       -2.4976210     0.2265170     0.7463830
  C       -2.4976210     0.2265190    -0.7463820
  C       -0.0883020    -0.2997600     0.0000010
  C        1.5276990     1.3180910     0.0000010
  C        2.0920280    -0.9819740     0.0000030
  C        2.5210310     0.3421130     0.0000010
  H       -1.7051520    -1.7251160     0.0000010
  H       -2.0735420     1.0920370     1.2438350
  H       -3.3111280    -0.2648640     1.2701610
  H       -3.3111290    -0.2648490    -1.2701700
  H       -2.0735380     1.0920430    -1.2438240
  H        1.7850967     2.4276817    -0.0000074
  H        2.8018760    -1.8077390    -0.0000100
  H        3.5748870     0.6009090    -0.0000030
units angstrom
no_reorient  #important for SAPT in psi4, default
symmetry c1  #important for SAPT in psi4, default
}

set PROPERTIES_ORIGIN ["COM"]
properties('MP2/aug-cc-pvtz', properties = ['dipole'])
--------------------------------------------------------------------------

    Molecular point group: c1
  Charge       = 0
  Multiplicity = 1
  Basis Set: AUG-CC-PVTZ
    Blend: AUG-CC-PVTZ
  Basis Set: (AUG-CC-PVTZ AUX)
    Blend: AUG-CC-PVTZ-JKFIT

    Orbital Energies [Eh]
    ---------------------

    Doubly Occupied:

       1A    -15.567266     2A    -15.566979     3A    -11.320324
       4A    -11.304525     5A    -11.297944     6A    -11.242430
       7A    -11.234267     8A    -11.228743     9A    -11.228059
      10A     -1.305540    11A     -1.186822    12A     -1.149103
      13A     -1.064113    14A     -0.911757    15A     -0.887006
      16A     -0.821277    17A     -0.801553    18A     -0.714796
      19A     -0.698291    20A     -0.656536    21A     -0.634994
      22A     -0.604285    23A     -0.583129    24A     -0.577362
      25A     -0.526796    26A     -0.514331    27A     -0.477600
      28A     -0.441576    29A     -0.427326    30A     -0.418121
      31A     -0.407455    32A     -0.348464

  @DF-RHF Final Energy:  -378.72766951371568

   => Energetics <=

    Nuclear Repulsion Energy =            413.1462132669500420
    One-Electron Energy =               -1331.4502217690858288
    Two-Electron Energy =                 539.5763389884200478
    Total Energy =                       -378.7276695137156821
  Basis Set: (AUG-CC-PVTZ AUX)
    Blend: AUG-CC-PVTZ-RI
    Molecular point group: c1

    Geometry (in Angstrom), charge = 0, multiplicity = 1:

       Center              X                  Y                   Z               Mass
    ------------   -----------------  -----------------  -----------------  -----------------
         N            0.186419887357     1.021531269964     0.000000862905    14.003074004430
         N            0.756834887357    -1.312137730036    -0.000002137095    14.003074004430
         C           -1.556527112643    -0.647029730036    -0.000003137095    12.000000000000
         C           -2.533472112643     0.235217269964     0.746382862905    12.000000000000
         C           -2.533472112643     0.235219269964    -0.746382137095    12.000000000000
         C           -0.124153112643    -0.291059730036     0.000000862905    12.000000000000
         C            1.491847887357     1.326791269964     0.000000862905    12.000000000000
         C            2.056176887357    -0.973273730036     0.000002862905    12.000000000000
         C            2.485179887357     0.350813269964     0.000000862905    12.000000000000
         H           -1.741003112643    -1.716415730036     0.000000862905     1.007825032230
         H           -2.109393112643     1.100737269964     1.243834862905     1.007825032230
         H           -3.346979112643    -0.256163730036     1.270160862905     1.007825032230
         H           -3.346980112643    -0.256148730036    -1.270170137095     1.007825032230
         H           -2.109389112643     1.100743269964    -1.243824137095     1.007825032230
         H            1.749245587357     2.436381969964    -0.000007537095     1.007825032230
         H            2.766024887357    -1.799038730036    -0.000010137095     1.007825032230
         H            3.539035887357     0.609609269964    -0.000003137095     1.007825032230

  Basis Set: AUG-CC-PVTZ
    Blend: AUG-CC-PVTZ
  Basis Set: (AUG-CC-PVTZ AUX)
    Blend: AUG-CC-PVTZ-JKFIT
	 Reference Energy          =    -378.7276695137156821 [Eh]
	 Singles Energy            =      -0.0000000000000000 [Eh]
	 Same-Spin Energy          =      -0.4133817711068641 [Eh]
	 Opposite-Spin Energy      =      -1.2911430854573158 [Eh]
	 Correlation Energy        =      -1.7045248565641800 [Eh]
	 Total Energy              =    -380.4321943702798876 [Eh]

	 ================> DF-SCS-MP2 Energies <==================
	-----------------------------------------------------------
	 SCS Same-Spin Scale       =       0.3333333333333333 [-]
	 SCS Opposite-Spin Scale   =       1.2000000000000000 [-]
	 SCS Same-Spin Energy      =      -0.1377939237022880 [Eh]
	 SCS Opposite-Spin Energy  =      -1.5493717025487790 [Eh]
	 SCS Correlation Energy    =      -1.6871656262510670 [Eh]
	 SCS Total Energy          =    -380.4148351399667263 [Eh]
	-----------------------------------------------------------

  Dipole Moment: [D]
     X:     1.4141      Y:     0.5896      Z:    -0.0000     Total:     1.5321

*** Psi4 exiting successfully. Buy a developer a beer!
