                               Psi4 1.3.2 release

  ==> Input File <==

--------------------------------------------------------------------------
#psi4
#
memory 32 gb

molecule  {
0 1
  N        0.2222710     1.0128310     0.0000010
  N        0.7926860    -1.3208380    -0.0000020
  C       -1.5206760    -0.6557300    -0.0000030
  C       -2.4976210     0.2265170     0.7463830
  C       -2.4976210     0.2265190    -0.7463820
  C       -0.0883020    -0.2997600     0.0000010
  C        1.5276990     1.3180910     0.0000010
  C        2.0920280    -0.9819740     0.0000030
  C        2.5210310     0.3421130     0.0000010
  H       -1.7051520    -1.7251160     0.0000010
  H       -2.0735420     1.0920370     1.2438350
  H       -3.3111280    -0.2648640     1.2701610
  H       -3.3111290    -0.2648490    -1.2701700
  H       -2.0735380     1.0920430    -1.2438240
  H        1.7737980     2.3789750    -0.0000070
  H        2.8018760    -1.8077390    -0.0000100
  H        3.3806578     0.5532120    -0.0000023
units angstrom
no_reorient  #important for SAPT in psi4, default
symmetry c1  #important for SAPT in psi4, default
}

set PROPERTIES_ORIGIN ["COM"]
properties('MP2/aug-cc-pvtz', properties = ['dipole'])
--------------------------------------------------------------------------

    Molecular point group: c1
  Charge       = 0
  Multiplicity = 1
  Basis Set: AUG-CC-PVTZ
    Blend: AUG-CC-PVTZ
  Basis Set: (AUG-CC-PVTZ AUX)
    Blend: AUG-CC-PVTZ-JKFIT

    Orbital Energies [Eh]
    ---------------------

    Doubly Occupied:

       1A    -15.565703     2A    -15.565643     3A    -11.319401
       4A    -11.297848     5A    -11.296527     6A    -11.233729
       7A    -11.228339     8A    -11.227656     9A    -11.218567
      10A     -1.304417    11A     -1.185866    12A     -1.149131
      13A     -1.074124    14A     -0.921595    15A     -0.890230
      16A     -0.820875    17A     -0.805339    18A     -0.728164
      19A     -0.705540    20A     -0.678970    21A     -0.642809
      22A     -0.609949    23A     -0.586413    24A     -0.576186
      25A     -0.526842    26A     -0.513905    27A     -0.480229
      28A     -0.440992    29A     -0.427029    30A     -0.416966
      31A     -0.407099    32A     -0.347980

  @DF-RHF Final Energy:  -378.69497867424144

   => Energetics <=

    Nuclear Repulsion Energy =            414.5625420895381694
    One-Electron Energy =               -1334.1269150521954998
    Two-Electron Energy =                 540.8693942884158332
    Total Energy =                       -378.6949786742414972
  Basis Set: (AUG-CC-PVTZ AUX)
    Blend: AUG-CC-PVTZ-RI
    Molecular point group: c1

    Geometry (in Angstrom), charge = 0, multiplicity = 1:

       Center              X                  Y                   Z               Mass
    ------------   -----------------  -----------------  -----------------  -----------------
         N            0.188145033704     1.022340456896     0.000000853672    14.003074004430
         N            0.758560033704    -1.311328543104    -0.000002146328    14.003074004430
         C           -1.554801966296    -0.646220543104    -0.000003146328    12.000000000000
         C           -2.531746966296     0.236026456896     0.746382853672    12.000000000000
         C           -2.531746966296     0.236028456896    -0.746382146328    12.000000000000
         C           -0.122427966296    -0.290250543104     0.000000853672    12.000000000000
         C            1.493573033704     1.327600456896     0.000000853672    12.000000000000
         C            2.057902033704    -0.972464543104     0.000002853672    12.000000000000
         C            2.486905033704     0.351622456896     0.000000853672    12.000000000000
         H           -1.739277966296    -1.715606543104     0.000000853672     1.007825032230
         H           -2.107667966296     1.101546456896     1.243834853672     1.007825032230
         H           -3.345253966296    -0.255354543104     1.270160853672     1.007825032230
         H           -3.345254966296    -0.255339543104    -1.270170146328     1.007825032230
         H           -2.107663966296     1.101552456896    -1.243824146328     1.007825032230
         H            1.739672033704     2.388484456896    -0.000007146328     1.007825032230
         H            2.767750033704    -1.798229543104    -0.000010146328     1.007825032230
         H            3.346531833704     0.562721456896    -0.000002446328     1.007825032230

  Basis Set: AUG-CC-PVTZ
    Blend: AUG-CC-PVTZ
  Basis Set: (AUG-CC-PVTZ AUX)
    Blend: AUG-CC-PVTZ-JKFIT
	 Reference Energy          =    -378.6949786742414403 [Eh]
	 Singles Energy            =      -0.0000000000000000 [Eh]
	 Same-Spin Energy          =      -0.4130560123886653 [Eh]
	 Opposite-Spin Energy      =      -1.2902920213855162 [Eh]
	 Correlation Energy        =      -1.7033480337741815 [Eh]
	 Total Energy              =    -380.3983267080156452 [Eh]

	 ================> DF-SCS-MP2 Energies <==================
	-----------------------------------------------------------
	 SCS Same-Spin Scale       =       0.3333333333333333 [-]
	 SCS Opposite-Spin Scale   =       1.2000000000000000 [-]
	 SCS Same-Spin Energy      =      -0.1376853374628884 [Eh]
	 SCS Opposite-Spin Energy  =      -1.5483504256626195 [Eh]
	 SCS Correlation Energy    =      -1.6860357631255078 [Eh]
	 SCS Total Energy          =    -380.3810144373669573 [Eh]
	-----------------------------------------------------------

  Dipole Moment: [D]
     X:     1.4479      Y:     0.6134      Z:    -0.0000     Total:     1.5725

*** Psi4 exiting successfully. Buy a developer a beer!
