                               Psi4 1.3.2 release

  ==> Input File <==

--------------------------------------------------------------------------
#psi4
#
memory 32 gb

molecule  {
0 1
  N        0.2222710     1.0128310     0.0000010
  N        0.7926860    -1.3208380    -0.0000020
  C       -1.5206760    -0.6557300    -0.0000030
  C       -2.4976210     0.2265170     0.7463830
  C       -2.4976210     0.2265190    -0.7463820
  C       -0.0883020    -0.2997600     0.0000010
  C        1.5276990     1.3180910     0.0000010
  C        2.0920280    -0.9819740     0.0000030
  C        2.4863647     0.3080408     0.0000014
  H       -1.7051520    -1.7251160     0.0000010
  H       -2.0735420     1.0920370     1.2438350
  H       -3.3111280    -0.2648640     1.2701610
  H       -3.3111290    -0.2648490    -1.2701700
  H       -2.0735380     1.0920430    -1.2438240
  H        1.7737980     2.3789750    -0.0000070
  H        2.8018760    -1.8077390    -0.0000100
  H        3.5748870     0.6009090    -0.0000030
units angstrom
no_reorient  #important for SAPT in psi4, default
symmetry c1  #important for SAPT in psi4, default
}

set PROPERTIES_ORIGIN ["COM"]
properties('MP2/aug-cc-pvtz', properties = ['dipole'])
--------------------------------------------------------------------------

    Molecular point group: c1
  Charge       = 0
  Multiplicity = 1
  Basis Set: AUG-CC-PVTZ
    Blend: AUG-CC-PVTZ
  Basis Set: (AUG-CC-PVTZ AUX)
    Blend: AUG-CC-PVTZ-JKFIT

    Orbital Energies [Eh]
    ---------------------

    Doubly Occupied:

       1A    -15.567772     2A    -15.565191     3A    -11.318642
       4A    -11.300624     5A    -11.290740     6A    -11.241063
       7A    -11.233590     8A    -11.228161     9A    -11.227478
      10A     -1.307087    11A     -1.187586    12A     -1.149202
      13A     -1.067836    14A     -0.908988    15A     -0.895198
      16A     -0.820811    17A     -0.802252    18A     -0.719829
      19A     -0.699545    20A     -0.654821    21A     -0.627604
      22A     -0.605695    23A     -0.592728    24A     -0.578982
      25A     -0.526960    26A     -0.514090    27A     -0.472792
      28A     -0.442702    29A     -0.426409    30A     -0.418194
      31A     -0.408961    32A     -0.350048

  @DF-RHF Final Energy:  -378.72697727246157

   => Energetics <=

    Nuclear Repulsion Energy =            414.2440158279380285
    One-Electron Energy =               -1333.6388247648205834
    Two-Electron Energy =                 540.6678316644209872
    Total Energy =                       -378.7269772724615677
  Basis Set: (AUG-CC-PVTZ AUX)
    Blend: AUG-CC-PVTZ-RI
    Molecular point group: c1

    Geometry (in Angstrom), charge = 0, multiplicity = 1:

       Center              X                  Y                   Z               Mass
    ------------   -----------------  -----------------  -----------------  -----------------
         N            0.189979370727     1.025345370120     0.000000819571    14.003074004430
         N            0.760394370727    -1.308323629880    -0.000002180429    14.003074004430
         C           -1.552967629273    -0.643215629880    -0.000003180429    12.000000000000
         C           -2.529912629273     0.239031370120     0.746382819571    12.000000000000
         C           -2.529912629273     0.239033370120    -0.746382180429    12.000000000000
         C           -0.120593629273    -0.287245629880     0.000000819571    12.000000000000
         C            1.495407370727     1.330605370120     0.000000819571    12.000000000000
         C            2.059736370727    -0.969459629880     0.000002819571    12.000000000000
         C            2.454073070727     0.320555170120     0.000001219571    12.000000000000
         H           -1.737443629273    -1.712601629880     0.000000819571     1.007825032230
         H           -2.105833629273     1.104551370120     1.243834819571     1.007825032230
         H           -3.343419629273    -0.252349629880     1.270160819571     1.007825032230
         H           -3.343420629273    -0.252334629880    -1.270170180429     1.007825032230
         H           -2.105829629273     1.104557370120    -1.243824180429     1.007825032230
         H            1.741506370727     2.391489370120    -0.000007180429     1.007825032230
         H            2.769584370727    -1.795224629880    -0.000010180429     1.007825032230
         H            3.542595370727     0.613423370120    -0.000003180429     1.007825032230

  Basis Set: AUG-CC-PVTZ
    Blend: AUG-CC-PVTZ
  Basis Set: (AUG-CC-PVTZ AUX)
    Blend: AUG-CC-PVTZ-JKFIT
	 Reference Energy          =    -378.7269772724615677 [Eh]
	 Singles Energy            =      -0.0000000000000000 [Eh]
	 Same-Spin Energy          =      -0.4134838018777179 [Eh]
	 Opposite-Spin Energy      =      -1.2909059480132656 [Eh]
	 Correlation Energy        =      -1.7043897498909835 [Eh]
	 Total Energy              =    -380.4313670223525605 [Eh]

	 ================> DF-SCS-MP2 Energies <==================
	-----------------------------------------------------------
	 SCS Same-Spin Scale       =       0.3333333333333333 [-]
	 SCS Opposite-Spin Scale   =       1.2000000000000000 [-]
	 SCS Same-Spin Energy      =      -0.1378279339592393 [Eh]
	 SCS Opposite-Spin Energy  =      -1.5490871376159188 [Eh]
	 SCS Correlation Energy    =      -1.6869150715751582 [Eh]
	 SCS Total Energy          =    -380.4138923440367535 [Eh]
	-----------------------------------------------------------

  Dipole Moment: [D]
     X:     1.4234      Y:     0.6522      Z:    -0.0000     Total:     1.5657

*** Psi4 exiting successfully. Buy a developer a beer!
