                               Psi4 1.3.2 release

  ==> Input File <==

--------------------------------------------------------------------------
#psi4
#
memory 32 gb

molecule  {
0 1
  N        0.2222710     1.0128310     0.0000010
  N        0.7926860    -1.3208380    -0.0000020
  C       -1.5206760    -0.6557300    -0.0000030
  C       -2.4976210     0.2265170     0.7463830
  C       -2.4976210     0.2265190    -0.7463820
  C       -0.0883020    -0.2997600     0.0000010
  C        1.5276990     1.3180910     0.0000010
  C        2.0920280    -0.9819740     0.0000030
  C        2.5210310     0.3421130     0.0000010
  H       -1.7051520    -1.7251160     0.0000010
  H       -2.0735420     1.0920370     1.2438350
  H       -3.3111280    -0.2648640     1.2701610
  H       -3.3111290    -0.2648490    -1.2701700
  H       -2.0735380     1.0920430    -1.2438240
  H        1.7963955     2.4763883    -0.0000077
  H        2.8018760    -1.8077390    -0.0000100
  H        3.5748870     0.6009090    -0.0000030
units angstrom
no_reorient  #important for SAPT in psi4, default
symmetry c1  #important for SAPT in psi4, default
}

set PROPERTIES_ORIGIN ["COM"]
properties('MP2/aug-cc-pvtz', properties = ['dipole'])
--------------------------------------------------------------------------

    Molecular point group: c1
  Charge       = 0
  Multiplicity = 1
  Basis Set: AUG-CC-PVTZ
    Blend: AUG-CC-PVTZ
  Basis Set: (AUG-CC-PVTZ AUX)
    Blend: AUG-CC-PVTZ-JKFIT

    Orbital Energies [Eh]
    ---------------------

    Doubly Occupied:

       1A    -15.567874     2A    -15.567210     3A    -11.320833
       4A    -11.309888     5A    -11.298338     6A    -11.243003
       7A    -11.234496     8A    -11.228905     9A    -11.228220
      10A     -1.305892    11A     -1.186959    12A     -1.149213
      13A     -1.064033    14A     -0.912074    15A     -0.884278
      16A     -0.821432    17A     -0.800650    18A     -0.712028
      19A     -0.698279    20A     -0.656738    21A     -0.635089
      22A     -0.602551    23A     -0.577743    24A     -0.577328
      25A     -0.526204    26A     -0.514488    27A     -0.477976
      28A     -0.441813    29A     -0.427491    30A     -0.418473
      31A     -0.407063    32A     -0.348770

  @DF-RHF Final Energy:  -378.72275332889620

   => Energetics <=

    Nuclear Repulsion Energy =            412.9085434806930834
    One-Electron Energy =               -1330.9719295093750588
    Two-Electron Energy =                 539.3406326997858287
    Total Energy =                       -378.7227533288961467
  Basis Set: (AUG-CC-PVTZ AUX)
    Blend: AUG-CC-PVTZ-RI
    Molecular point group: c1

    Geometry (in Angstrom), charge = 0, multiplicity = 1:

       Center              X                  Y                   Z               Mass
    ------------   -----------------  -----------------  -----------------  -----------------
         N            0.186325048245     1.021122439761     0.000000865424    14.003074004430
         N            0.756740048245    -1.312546560239    -0.000002134576    14.003074004430
         C           -1.556621951755    -0.647438560239    -0.000003134576    12.000000000000
         C           -2.533566951755     0.234808439761     0.746382865424    12.000000000000
         C           -2.533566951755     0.234810439761    -0.746382134576    12.000000000000
         C           -0.124247951755    -0.291468560239     0.000000865424    12.000000000000
         C            1.491753048245     1.326382439761     0.000000865424    12.000000000000
         C            2.056082048245    -0.973682560239     0.000002865424    12.000000000000
         C            2.485085048245     0.350404439761     0.000000865424    12.000000000000
         H           -1.741097951755    -1.716824560239     0.000000865424     1.007825032230
         H           -2.109487951755     1.100328439761     1.243834865424     1.007825032230
         H           -3.347073951755    -0.256572560239     1.270160865424     1.007825032230
         H           -3.347074951755    -0.256557560239    -1.270170134576     1.007825032230
         H           -2.109483951755     1.100334439761    -1.243824134576     1.007825032230
         H            1.760449548245     2.484679739761    -0.000007834576     1.007825032230
         H            2.765930048245    -1.799447560239    -0.000010134576     1.007825032230
         H            3.538941048245     0.609200439761    -0.000003134576     1.007825032230

  Basis Set: AUG-CC-PVTZ
    Blend: AUG-CC-PVTZ
  Basis Set: (AUG-CC-PVTZ AUX)
    Blend: AUG-CC-PVTZ-JKFIT
	 Reference Energy          =    -378.7227533288962036 [Eh]
	 Singles Energy            =      -0.0000000000000000 [Eh]
	 Same-Spin Energy          =      -0.4135316173258461 [Eh]
	 Opposite-Spin Energy      =      -1.2916795168805655 [Eh]
	 Correlation Energy        =      -1.7052111342064116 [Eh]
	 Total Energy              =    -380.4279644631026258 [Eh]

	 ================> DF-SCS-MP2 Energies <==================
	-----------------------------------------------------------
	 SCS Same-Spin Scale       =       0.3333333333333333 [-]
	 SCS Opposite-Spin Scale   =       1.2000000000000000 [-]
	 SCS Same-Spin Energy      =      -0.1378438724419487 [Eh]
	 SCS Opposite-Spin Energy  =      -1.5500154202566785 [Eh]
	 SCS Correlation Energy    =      -1.6878592926986271 [Eh]
	 SCS Total Energy          =    -380.4106126215948507 [Eh]
	-----------------------------------------------------------

  Dipole Moment: [D]
     X:     1.3954      Y:     0.5646      Z:    -0.0000     Total:     1.5053

*** Psi4 exiting successfully. Buy a developer a beer!
