                               Psi4 1.4a3.dev225

  ==> Input File <==

--------------------------------------------------------------------------
#psi4
#
memory 32 gb

molecule  {
0 1
  N        0.2222710     1.0128310     0.0000010
  N        0.7926860    -1.3208380    -0.0000020
  C       -1.5206760    -0.6557300    -0.0000030
  C       -2.4976210     0.2265170     0.7463830
  C       -2.4976210     0.2265190    -0.7463820
  C       -0.0883020    -0.2997600     0.0000010
  C        1.5082244     1.3135371     0.0000010
  C        2.0920280    -0.9819740     0.0000030
  C        2.5210310     0.3421130     0.0000010
  H       -1.7051520    -1.7251160     0.0000010
  H       -2.0735420     1.0920370     1.2438350
  H       -3.3111280    -0.2648640     1.2701610
  H       -3.3111290    -0.2648490    -1.2701700
  H       -2.0735380     1.0920430    -1.2438240
  H        1.7737980     2.3789750    -0.0000070
  H        2.8018760    -1.8077390    -0.0000100
  H        3.5748870     0.6009090    -0.0000030
units angstrom
no_reorient  #important for SAPT in psi4, default
symmetry c1  #important for SAPT in psi4, default
}

set PROPERTIES_ORIGIN ["COM"]
properties('MP2/aug-cc-pvtz', properties = ['dipole'])
--------------------------------------------------------------------------

    Molecular point group: c1
  Charge       = 0
  Multiplicity = 1
  Basis Set: AUG-CC-PVTZ
    Blend: AUG-CC-PVTZ
  Basis Set: (AUG-CC-PVTZ AUX)
    Blend: AUG-CC-PVTZ-JKFIT

    Orbital Energies [Eh]
    ---------------------

    Doubly Occupied:

       1A    -15.566412     2A    -15.566343     3A    -11.320778
       4A    -11.299068     5A    -11.296372     6A    -11.242014
       7A    -11.234530     8A    -11.229098     9A    -11.228415
      10A     -1.308367    11A     -1.190648    12A     -1.149821
      13A     -1.062301    14A     -0.912421    15A     -0.889107
      16A     -0.821640    17A     -0.803453    18A     -0.718329
      19A     -0.698667    20A     -0.656377    21A     -0.635791
      22A     -0.606610    23A     -0.585822    24A     -0.578708
      25A     -0.527296    26A     -0.514660    27A     -0.478670
      28A     -0.441460    29A     -0.427620    30A     -0.420935
      31A     -0.406877    32A     -0.346706

  @DF-RHF Final Energy:  -378.73043037123534

   => Energetics <=

    Nuclear Repulsion Energy =            413.6816795333680830
    One-Electron Energy =               -1332.4935877275468101
    Two-Electron Energy =                 540.0814778229433841
    Total Energy =                       -378.7304303712353430
  Basis Set: (AUG-CC-PVTZ AUX)
    Blend: AUG-CC-PVTZ-RI
    Molecular point group: c1

    Geometry (in Angstrom), charge = 0, multiplicity = 1:

       Center              X                  Y                   Z               Mass
    ------------   -----------------  -----------------  -----------------  -----------------
         N            0.188461070564     1.022395230262     0.000000859548    14.003074004430
         N            0.758876070564    -1.311273769738    -0.000002140452    14.003074004430
         C           -1.554485929436    -0.646165769738    -0.000003140452    12.000000000000
         C           -2.531430929436     0.236081230262     0.746382859548    12.000000000000
         C           -2.531430929436     0.236083230262    -0.746382140452    12.000000000000
         C           -0.122111929436    -0.290195769738     0.000000859548    12.000000000000
         C            1.474414470564     1.323101330262     0.000000859548    12.000000000000
         C            2.058218070564    -0.972409769738     0.000002859548    12.000000000000
         C            2.487221070564     0.351677230262     0.000000859548    12.000000000000
         H           -1.738961929436    -1.715551769738     0.000000859548     1.007825032230
         H           -2.107351929436     1.101601230262     1.243834859548     1.007825032230
         H           -3.344937929436    -0.255299769738     1.270160859548     1.007825032230
         H           -3.344938929436    -0.255284769738    -1.270170140452     1.007825032230
         H           -2.107347929436     1.101607230262    -1.243824140452     1.007825032230
         H            1.739988070564     2.388539230262    -0.000007140452     1.007825032230
         H            2.768066070564    -1.798174769738    -0.000010140452     1.007825032230
         H            3.541077070564     0.610473230262    -0.000003140452     1.007825032230

  Basis Set: AUG-CC-PVTZ
    Blend: AUG-CC-PVTZ
  Basis Set: (AUG-CC-PVTZ AUX)
    Blend: AUG-CC-PVTZ-JKFIT
	 Reference Energy          =    -378.7304303712353430 [Eh]
	 Singles Energy            =      -0.0000000000000000 [Eh]
	 Same-Spin Energy          =      -0.4130751455782526 [Eh]
	 Opposite-Spin Energy      =      -1.2902681379631047 [Eh]
	 Correlation Energy        =      -1.7033432835413573 [Eh]
	 Total Energy              =    -380.4337736547767008 [Eh]

	 ================> DF-SCS-MP2 Energies <==================
	-----------------------------------------------------------
	 SCS Same-Spin Scale       =       0.3333333333333333 [-]
	 SCS Opposite-Spin Scale   =       1.2000000000000000 [-]
	 SCS Same-Spin Energy      =      -0.1376917151927509 [Eh]
	 SCS Opposite-Spin Energy  =      -1.5483217655557255 [Eh]
	 SCS Correlation Energy    =      -1.6860134807484763 [Eh]
	 SCS Total Energy          =    -380.4164438519838427 [Eh]
	-----------------------------------------------------------

  Dipole Moment: [D]
     X:     1.3936      Y:     0.6106      Z:    -0.0000     Total:     1.5215

*** Psi4 exiting successfully. Buy a developer a beer!
