                               Psi4 1.3.2 release

  ==> Input File <==

--------------------------------------------------------------------------
#psi4
#
memory 32 gb

molecule  {
0 1
  N        0.2222710     1.0128310     0.0000010
  N        0.7926860    -1.3208380    -0.0000020
  C       -1.5206760    -0.6557300    -0.0000030
  C       -2.4976210     0.2265170     0.7463830
  C       -2.4976210     0.2265190    -0.7463820
  C       -0.0883020    -0.2997600     0.0000010
  C        1.5276990     1.3180910     0.0000010
  C        2.0920280    -0.9819740     0.0000030
  C        2.3783689     0.4822827     0.0000010
  H       -1.7051520    -1.7251160     0.0000010
  H       -2.0735420     1.0920370     1.2438350
  H       -3.3111280    -0.2648640     1.2701610
  H       -3.3111290    -0.2648490    -1.2701700
  H       -2.0735380     1.0920430    -1.2438240
  H        1.7737980     2.3789750    -0.0000070
  H        2.8018760    -1.8077390    -0.0000100
  H        3.5748870     0.6009090    -0.0000030
units angstrom
no_reorient  #important for SAPT in psi4, default
symmetry c1  #important for SAPT in psi4, default
}

set PROPERTIES_ORIGIN ["COM"]
properties('MP2/aug-cc-pvtz', properties = ['dipole'])
--------------------------------------------------------------------------

    Molecular point group: c1
  Charge       = 0
  Multiplicity = 1
  Basis Set: AUG-CC-PVTZ
    Blend: AUG-CC-PVTZ
  Basis Set: (AUG-CC-PVTZ AUX)
    Blend: AUG-CC-PVTZ-JKFIT

    Orbital Energies [Eh]
    ---------------------

    Doubly Occupied:

       1A    -15.574223     2A    -15.556427     3A    -11.317603
       4A    -11.317402     5A    -11.258193     6A    -11.237131
       7A    -11.232702     8A    -11.227030     9A    -11.226344
      10A     -1.310395    11A     -1.190936    12A     -1.150917
      13A     -1.077111    14A     -0.927686    15A     -0.876006
      16A     -0.819463    17A     -0.802352    18A     -0.720858
      19A     -0.704365    20A     -0.649982    21A     -0.633043
      22A     -0.609297    23A     -0.583883    24A     -0.573567
      25A     -0.526054    26A     -0.512921    27A     -0.456278
      28A     -0.452144    29A     -0.425774    30A     -0.420169
      31A     -0.406655    32A     -0.353006

  @DF-RHF Final Energy:  -378.66558786772362

   => Energetics <=

    Nuclear Repulsion Energy =            415.9043278328231281
    One-Electron Energy =               -1336.8799929532810893
    Two-Electron Energy =                 542.3100772527343452
    Total Energy =                       -378.6655878677236160
  Basis Set: (AUG-CC-PVTZ AUX)
    Blend: AUG-CC-PVTZ-RI
    Molecular point group: c1

    Geometry (in Angstrom), charge = 0, multiplicity = 1:

       Center              X                  Y                   Z               Mass
    ------------   -----------------  -----------------  -----------------  -----------------
         N            0.200772767166     1.007931156762     0.000000859548    14.003074004430
         N            0.771187767166    -1.325737843238    -0.000002140452    14.003074004430
         C           -1.542174232834    -0.660629843238    -0.000003140452    12.000000000000
         C           -2.519119232834     0.221617156762     0.746382859548    12.000000000000
         C           -2.519119232834     0.221619156762    -0.746382140452    12.000000000000
         C           -0.109800232834    -0.304659843238     0.000000859548    12.000000000000
         C            1.506200767166     1.313191156762     0.000000859548    12.000000000000
         C            2.070529767166    -0.986873843238     0.000002859548    12.000000000000
         C            2.356870667166     0.477382856762     0.000000859548    12.000000000000
         H           -1.726650232834    -1.730015843238     0.000000859548     1.007825032230
         H           -2.095040232834     1.087137156762     1.243834859548     1.007825032230
         H           -3.332626232834    -0.269763843238     1.270160859548     1.007825032230
         H           -3.332627232834    -0.269748843238    -1.270170140452     1.007825032230
         H           -2.095036232834     1.087143156762    -1.243824140452     1.007825032230
         H            1.752299767166     2.374075156762    -0.000007140452     1.007825032230
         H            2.780377767166    -1.812638843238    -0.000010140452     1.007825032230
         H            3.553388767166     0.596009156762    -0.000003140452     1.007825032230

  Basis Set: AUG-CC-PVTZ
    Blend: AUG-CC-PVTZ
  Basis Set: (AUG-CC-PVTZ AUX)
    Blend: AUG-CC-PVTZ-JKFIT
	 Reference Energy          =    -378.6655878677236160 [Eh]
	 Singles Energy            =      -0.0000000000000000 [Eh]
	 Same-Spin Energy          =      -0.4135107418556901 [Eh]
	 Opposite-Spin Energy      =      -1.2925976862296684 [Eh]
	 Correlation Energy        =      -1.7061084280853587 [Eh]
	 Total Energy              =    -380.3716962958089880 [Eh]

	 ================> DF-SCS-MP2 Energies <==================
	-----------------------------------------------------------
	 SCS Same-Spin Scale       =       0.3333333333333333 [-]
	 SCS Opposite-Spin Scale   =       1.2000000000000000 [-]
	 SCS Same-Spin Energy      =      -0.1378369139518967 [Eh]
	 SCS Opposite-Spin Energy  =      -1.5511172234756021 [Eh]
	 SCS Correlation Energy    =      -1.6889541374274988 [Eh]
	 SCS Total Energy          =    -380.3545420051511314 [Eh]
	-----------------------------------------------------------

  Dipole Moment: [D]
     X:     1.4431      Y:     0.2734      Z:    -0.0000     Total:     1.4688

*** Psi4 exiting successfully. Buy a developer a beer!
