                               Psi4 1.3.2 release

  ==> Input File <==

--------------------------------------------------------------------------
#psi4
#
memory 32 gb

molecule  {
0 1
  N        0.2222710     1.0128310     0.0000010
  N        0.7926860    -1.3208380    -0.0000020
  C       -1.5206760    -0.6557300    -0.0000030
  C       -2.4976210     0.2265170     0.7463830
  C       -2.4976210     0.2265190    -0.7463820
  C       -0.0823076    -0.3248126     0.0000011
  C        1.5276990     1.3180910     0.0000010
  C        2.0920280    -0.9819740     0.0000030
  C        2.5210310     0.3421130     0.0000010
  H       -1.7051520    -1.7251160     0.0000010
  H       -2.0735420     1.0920370     1.2438350
  H       -3.3111280    -0.2648640     1.2701610
  H       -3.3111290    -0.2648490    -1.2701700
  H       -2.0735380     1.0920430    -1.2438240
  H        1.7737980     2.3789750    -0.0000070
  H        2.8018760    -1.8077390    -0.0000100
  H        3.5748870     0.6009090    -0.0000030
units angstrom
no_reorient  #important for SAPT in psi4, default
symmetry c1  #important for SAPT in psi4, default
}

set PROPERTIES_ORIGIN ["COM"]
properties('MP2/aug-cc-pvtz', properties = ['dipole'])
--------------------------------------------------------------------------

    Molecular point group: c1
  Charge       = 0
  Multiplicity = 1
  Basis Set: AUG-CC-PVTZ
    Blend: AUG-CC-PVTZ
  Basis Set: (AUG-CC-PVTZ AUX)
    Blend: AUG-CC-PVTZ-JKFIT

    Orbital Energies [Eh]
    ---------------------

    Doubly Occupied:

       1A    -15.567733     2A    -15.565739     3A    -11.319684
       4A    -11.298337     5A    -11.298170     6A    -11.242055
       7A    -11.233897     8A    -11.228648     9A    -11.227966
      10A     -1.305566    11A     -1.186897    12A     -1.148583
      13A     -1.064433    14A     -0.912762    15A     -0.889075
      16A     -0.820962    17A     -0.803319    18A     -0.716899
      19A     -0.700072    20A     -0.654309    21A     -0.635810
      22A     -0.607828    23A     -0.587522    24A     -0.577050
      25A     -0.525967    26A     -0.514112    27A     -0.476763
      28A     -0.441579    29A     -0.428594    30A     -0.417727
      31A     -0.406977    32A     -0.348244

  @DF-RHF Final Energy:  -378.72944834245408

   => Energetics <=

    Nuclear Repulsion Energy =            413.3311522298606064
    One-Electron Energy =               -1331.8146483782106770
    Two-Electron Energy =                 539.7540478058959934
    Total Energy =                       -378.7294483424540203
  Basis Set: (AUG-CC-PVTZ AUX)
    Blend: AUG-CC-PVTZ-RI
    Molecular point group: c1

    Geometry (in Angstrom), charge = 0, multiplicity = 1:

       Center              X                  Y                   Z               Mass
    ------------   -----------------  -----------------  -----------------  -----------------
         N            0.185915628853     1.024443926559     0.000000849554    14.003074004430
         N            0.756330628853    -1.309225073441    -0.000002150446    14.003074004430
         C           -1.557031371147    -0.644117073441    -0.000003150446    12.000000000000
         C           -2.533976371147     0.238129926559     0.746382849554    12.000000000000
         C           -2.533976371147     0.238131926559    -0.746382150446    12.000000000000
         C           -0.118662971147    -0.313199673441     0.000000949554    12.000000000000
         C            1.491343628853     1.329703926559     0.000000849554    12.000000000000
         C            2.055672628853    -0.970361073441     0.000002849554    12.000000000000
         C            2.484675628853     0.353725926559     0.000000849554    12.000000000000
         H           -1.741507371147    -1.713503073441     0.000000849554     1.007825032230
         H           -2.109897371147     1.103649926559     1.243834849554     1.007825032230
         H           -3.347483371147    -0.253251073441     1.270160849554     1.007825032230
         H           -3.347484371147    -0.253236073441    -1.270170150446     1.007825032230
         H           -2.109893371147     1.103655926559    -1.243824150446     1.007825032230
         H            1.737442628853     2.390587926559    -0.000007150446     1.007825032230
         H            2.765520628853    -1.796126073441    -0.000010150446     1.007825032230
         H            3.538531628853     0.612521926559    -0.000003150446     1.007825032230

  Basis Set: AUG-CC-PVTZ
    Blend: AUG-CC-PVTZ
  Basis Set: (AUG-CC-PVTZ AUX)
    Blend: AUG-CC-PVTZ-JKFIT
	 Reference Energy          =    -378.7294483424540772 [Eh]
	 Singles Energy            =      -0.0000000000000000 [Eh]
	 Same-Spin Energy          =      -0.4131801383799799 [Eh]
	 Opposite-Spin Energy      =      -1.2907064029159647 [Eh]
	 Correlation Energy        =      -1.7038865412959447 [Eh]
	 Total Energy              =    -380.4333348837500353 [Eh]

	 ================> DF-SCS-MP2 Energies <==================
	-----------------------------------------------------------
	 SCS Same-Spin Scale       =       0.3333333333333333 [-]
	 SCS Opposite-Spin Scale   =       1.2000000000000000 [-]
	 SCS Same-Spin Energy      =      -0.1377267127933266 [Eh]
	 SCS Opposite-Spin Energy  =      -1.5488476834991576 [Eh]
	 SCS Correlation Energy    =      -1.6865743962924842 [Eh]
	 SCS Total Energy          =    -380.4160227387465625 [Eh]
	-----------------------------------------------------------

  Dipole Moment: [D]
     X:     1.4365      Y:     0.5968      Z:    -0.0000     Total:     1.5556

*** Psi4 exiting successfully. Buy a developer a beer!
