                               Psi4 1.3.2 release

  ==> Input File <==

--------------------------------------------------------------------------
#psi4
#
memory 32 gb

molecule  {
0 1
  N        0.2222710     1.0128310     0.0000010
  N        0.7926860    -1.3208380    -0.0000020
  C       -1.5206760    -0.6557300    -0.0000030
  C       -2.4976210     0.2265170     0.7463830
  C       -2.4976210     0.2265190    -0.7463820
  C       -0.0883020    -0.2997600     0.0000010
  C        1.5108171     1.3006063     0.0000011
  C        2.0920280    -0.9819740     0.0000030
  C        2.5210310     0.3421130     0.0000010
  H       -1.7051520    -1.7251160     0.0000010
  H       -2.0735420     1.0920370     1.2438350
  H       -3.3111280    -0.2648640     1.2701610
  H       -3.3111290    -0.2648490    -1.2701700
  H       -2.0735380     1.0920430    -1.2438240
  H        1.7737980     2.3789750    -0.0000070
  H        2.8018760    -1.8077390    -0.0000100
  H        3.5748870     0.6009090    -0.0000030
units angstrom
no_reorient  #important for SAPT in psi4, default
symmetry c1  #important for SAPT in psi4, default
}

set PROPERTIES_ORIGIN ["COM"]
properties('MP2/aug-cc-pvtz', properties = ['dipole'])
--------------------------------------------------------------------------

    Molecular point group: c1
  Charge       = 0
  Multiplicity = 1
  Basis Set: AUG-CC-PVTZ
    Blend: AUG-CC-PVTZ
  Basis Set: (AUG-CC-PVTZ AUX)
    Blend: AUG-CC-PVTZ-JKFIT

    Orbital Energies [Eh]
    ---------------------

    Doubly Occupied:

       1A    -15.566554     2A    -15.566175     3A    -11.320746
       4A    -11.298225     5A    -11.296959     6A    -11.241106
       7A    -11.234533     8A    -11.229178     9A    -11.228495
      10A     -1.309183    11A     -1.190776    12A     -1.150034
      13A     -1.064063    14A     -0.913218    15A     -0.888279
      16A     -0.821705    17A     -0.803278    18A     -0.717441
      19A     -0.699849    20A     -0.656683    21A     -0.636163
      22A     -0.605093    23A     -0.583759    24A     -0.579429
      25A     -0.526877    26A     -0.514770    27A     -0.479743
      28A     -0.441967    29A     -0.427797    30A     -0.420942
      31A     -0.407193    32A     -0.347797

  @DF-RHF Final Energy:  -378.73029752389755

   => Energetics <=

    Nuclear Repulsion Energy =            413.8856068004106419
    One-Electron Energy =               -1332.8957829438984390
    Two-Electron Energy =                 540.2798786195902494
    Total Energy =                       -378.7302975238975478
  Basis Set: (AUG-CC-PVTZ AUX)
    Blend: AUG-CC-PVTZ-RI
    Molecular point group: c1

    Geometry (in Angstrom), charge = 0, multiplicity = 1:

       Center              X                  Y                   Z               Mass
    ------------   -----------------  -----------------  -----------------  -----------------
         N            0.188201949015     1.023687569878     0.000000849554    14.003074004430
         N            0.758616949015    -1.309981430122    -0.000002150446    14.003074004430
         C           -1.554745050985    -0.644873430122    -0.000003150446    12.000000000000
         C           -2.531690050985     0.237373569878     0.746382849554    12.000000000000
         C           -2.531690050985     0.237375569878    -0.746382150446    12.000000000000
         C           -0.122371050985    -0.288903430122     0.000000849554    12.000000000000
         C            1.476748049015     1.311462869878     0.000000949554    12.000000000000
         C            2.057958949015    -0.971117430122     0.000002849554    12.000000000000
         C            2.486961949015     0.352969569878     0.000000849554    12.000000000000
         H           -1.739221050985    -1.714259430122     0.000000849554     1.007825032230
         H           -2.107611050985     1.102893569878     1.243834849554     1.007825032230
         H           -3.345197050985    -0.254007430122     1.270160849554     1.007825032230
         H           -3.345198050985    -0.253992430122    -1.270170150446     1.007825032230
         H           -2.107607050985     1.102899569878    -1.243824150446     1.007825032230
         H            1.739728949015     2.389831569878    -0.000007150446     1.007825032230
         H            2.767806949015    -1.796882430122    -0.000010150446     1.007825032230
         H            3.540817949015     0.611765569878    -0.000003150446     1.007825032230

  Basis Set: AUG-CC-PVTZ
    Blend: AUG-CC-PVTZ
  Basis Set: (AUG-CC-PVTZ AUX)
    Blend: AUG-CC-PVTZ-JKFIT
	 Reference Energy          =    -378.7302975238975478 [Eh]
	 Singles Energy            =      -0.0000000000000000 [Eh]
	 Same-Spin Energy          =      -0.4130634123609772 [Eh]
	 Opposite-Spin Energy      =      -1.2901984595998981 [Eh]
	 Correlation Energy        =      -1.7032618719608752 [Eh]
	 Total Energy              =    -380.4335593958584241 [Eh]

	 ================> DF-SCS-MP2 Energies <==================
	-----------------------------------------------------------
	 SCS Same-Spin Scale       =       0.3333333333333333 [-]
	 SCS Opposite-Spin Scale   =       1.2000000000000000 [-]
	 SCS Same-Spin Energy      =      -0.1376878041203257 [Eh]
	 SCS Opposite-Spin Energy  =      -1.5482381515198778 [Eh]
	 SCS Correlation Energy    =      -1.6859259556402035 [Eh]
	 SCS Total Energy          =    -380.4162234795377344 [Eh]
	-----------------------------------------------------------

  Dipole Moment: [D]
     X:     1.3904      Y:     0.5804      Z:    -0.0000     Total:     1.5067

*** Psi4 exiting successfully. Buy a developer a beer!
