                               Psi4 1.3.2 release

  ==> Input File <==

--------------------------------------------------------------------------
#psi4
#
memory 32 gb

molecule  {
0 1
  N        0.2222710     1.0128310     0.0000010
  N        0.7926860    -1.3208380    -0.0000020
  C       -1.5206760    -0.6557300    -0.0000030
  C       -2.4976210     0.2265170     0.7463830
  C       -2.4976210     0.2265190    -0.7463820
  C       -0.0883020    -0.2997600     0.0000010
  C        1.5276990     1.3180910     0.0000010
  C        2.0920280    -0.9819740     0.0000030
  C        2.4135719     0.2436280     0.0000023
  H       -1.7051520    -1.7251160     0.0000010
  H       -2.0735420     1.0920370     1.2438350
  H       -3.3111280    -0.2648640     1.2701610
  H       -3.3111290    -0.2648490    -1.2701700
  H       -2.0735380     1.0920430    -1.2438240
  H        1.7737980     2.3789750    -0.0000070
  H        2.8018760    -1.8077390    -0.0000100
  H        3.5748870     0.6009090    -0.0000030
units angstrom
no_reorient  #important for SAPT in psi4, default
symmetry c1  #important for SAPT in psi4, default
}

set PROPERTIES_ORIGIN ["COM"]
properties('MP2/aug-cc-pvtz', properties = ['dipole'])
--------------------------------------------------------------------------

    Molecular point group: c1
  Charge       = 0
  Multiplicity = 1
  Basis Set: AUG-CC-PVTZ
    Blend: AUG-CC-PVTZ
  Basis Set: (AUG-CC-PVTZ AUX)
    Blend: AUG-CC-PVTZ-JKFIT

    Orbital Energies [Eh]
    ---------------------

    Doubly Occupied:

       1A    -15.570325     2A    -15.562583     3A    -11.316624
       4A    -11.304867     5A    -11.276677     6A    -11.239772
       7A    -11.232959     8A    -11.227545     9A    -11.226862
      10A     -1.312303    11A     -1.190821    12A     -1.149912
      13A     -1.075170    14A     -0.909667    15A     -0.900118
      16A     -0.820401    17A     -0.802247    18A     -0.723047
      19A     -0.704431    20A     -0.655605    21A     -0.620608
      22A     -0.612600    23A     -0.584378    24A     -0.582174
      25A     -0.526577    26A     -0.514206    27A     -0.460514
      28A     -0.446572    29A     -0.424433    30A     -0.420119
      31A     -0.410840    32A     -0.353516

  @DF-RHF Final Energy:  -378.70005933219687

   => Energetics <=

    Nuclear Repulsion Energy =            416.0613306853119866
    One-Electron Energy =               -1337.2058377159528391
    Two-Electron Energy =                 542.4444476984439234
    Total Energy =                       -378.7000593321969291
  Basis Set: (AUG-CC-PVTZ AUX)
    Blend: AUG-CC-PVTZ-RI
    Molecular point group: c1

    Geometry (in Angstrom), charge = 0, multiplicity = 1:

       Center              X                  Y                   Z               Mass
    ------------   -----------------  -----------------  -----------------  -----------------
         N            0.197254482799     1.031782962010     0.000000729622    14.003074004430
         N            0.767669482799    -1.301886037990    -0.000002270378    14.003074004430
         C           -1.545692517201    -0.636778037990    -0.000003270378    12.000000000000
         C           -2.522637517201     0.245468962010     0.746382729622    12.000000000000
         C           -2.522637517201     0.245470962010    -0.746382270378    12.000000000000
         C           -0.113318517201    -0.280808037990     0.000000729622    12.000000000000
         C            1.502682482799     1.337042962010     0.000000729622    12.000000000000
         C            2.067011482799    -0.963022037990     0.000002729622    12.000000000000
         C            2.388555382799     0.262579962010     0.000002029622    12.000000000000
         H           -1.730168517201    -1.706164037990     0.000000729622     1.007825032230
         H           -2.098558517201     1.110988962010     1.243834729622     1.007825032230
         H           -3.336144517201    -0.245912037990     1.270160729622     1.007825032230
         H           -3.336145517201    -0.245897037990    -1.270170270378     1.007825032230
         H           -2.098554517201     1.110994962010    -1.243824270378     1.007825032230
         H            1.748781482799     2.397926962010    -0.000007270378     1.007825032230
         H            2.776859482799    -1.788787037990    -0.000010270378     1.007825032230
         H            3.549870482799     0.619860962010    -0.000003270378     1.007825032230

  Basis Set: AUG-CC-PVTZ
    Blend: AUG-CC-PVTZ
  Basis Set: (AUG-CC-PVTZ AUX)
    Blend: AUG-CC-PVTZ-JKFIT
	 Reference Energy          =    -378.7000593321968722 [Eh]
	 Singles Energy            =      -0.0000000000000000 [Eh]
	 Same-Spin Energy          =      -0.4141649528611939 [Eh]
	 Opposite-Spin Energy      =      -1.2922234709205564 [Eh]
	 Correlation Energy        =      -1.7063884237817504 [Eh]
	 Total Energy              =    -380.4064477559786042 [Eh]

	 ================> DF-SCS-MP2 Energies <==================
	-----------------------------------------------------------
	 SCS Same-Spin Scale       =       0.3333333333333333 [-]
	 SCS Opposite-Spin Scale   =       1.2000000000000000 [-]
	 SCS Same-Spin Energy      =      -0.1380549842870646 [Eh]
	 SCS Opposite-Spin Energy  =      -1.5506681651046677 [Eh]
	 SCS Correlation Energy    =      -1.6887231493917323 [Eh]
	 SCS Total Energy          =    -380.3887824815885779 [Eh]
	-----------------------------------------------------------

  Dipole Moment: [D]
     X:     1.3554      Y:     0.7172      Z:    -0.0000     Total:     1.5334

*** Psi4 exiting successfully. Buy a developer a beer!
