                               Psi4 1.3.2 release

  ==> Input File <==

--------------------------------------------------------------------------
#psi4
#
memory 32 gb

molecule  {
0 1
  N        0.2222710     1.0128310     0.0000010
  N        0.7926860    -1.3208380    -0.0000020
  C       -1.5206760    -0.6557300    -0.0000030
  C       -2.4976210     0.2265170     0.7463830
  C       -2.4976210     0.2265190    -0.7463820
  C       -0.0653468    -0.3049803     0.0000010
  C        1.5276990     1.3180910     0.0000010
  C        2.0920280    -0.9819740     0.0000030
  C        2.5210310     0.3421130     0.0000010
  H       -1.7051520    -1.7251160     0.0000010
  H       -2.0735420     1.0920370     1.2438350
  H       -3.3111280    -0.2648640     1.2701610
  H       -3.3111290    -0.2648490    -1.2701700
  H       -2.0735380     1.0920430    -1.2438240
  H        1.7737980     2.3789750    -0.0000070
  H        2.8018760    -1.8077390    -0.0000100
  H        3.5748870     0.6009090    -0.0000030
units angstrom
no_reorient  #important for SAPT in psi4, default
symmetry c1  #important for SAPT in psi4, default
}

set PROPERTIES_ORIGIN ["COM"]
properties('MP2/aug-cc-pvtz', properties = ['dipole'])
--------------------------------------------------------------------------

    Molecular point group: c1
  Charge       = 0
  Multiplicity = 1
  Basis Set: AUG-CC-PVTZ
    Blend: AUG-CC-PVTZ
  Basis Set: (AUG-CC-PVTZ AUX)
    Blend: AUG-CC-PVTZ-JKFIT

    Orbital Energies [Eh]
    ---------------------

    Doubly Occupied:

       1A    -15.567784     2A    -15.566882     3A    -11.318532
       4A    -11.299789     5A    -11.298944     6A    -11.243037
       7A    -11.233249     8A    -11.226746     9A    -11.226057
      10A     -1.309621    11A     -1.191089    12A     -1.145998
      13A     -1.065446    14A     -0.908983    15A     -0.892257
      16A     -0.819330    17A     -0.801803    18A     -0.717529
      19A     -0.700331    20A     -0.654823    21A     -0.634429
      22A     -0.607253    23A     -0.588442    24A     -0.579406
      25A     -0.524510    26A     -0.512747    27A     -0.475968
      28A     -0.438962    29A     -0.425976    30A     -0.419532
      31A     -0.410992    32A     -0.350620

  @DF-RHF Final Energy:  -378.73040276657821

   => Energetics <=

    Nuclear Repulsion Energy =            413.4868187605692356
    One-Electron Energy =               -1332.1203083894370138
    Two-Electron Energy =                 539.9030868622895696
    Total Energy =                       -378.7304027665782087
  Basis Set: (AUG-CC-PVTZ AUX)
    Blend: AUG-CC-PVTZ-RI
    Molecular point group: c1

    Geometry (in Angstrom), charge = 0, multiplicity = 1:

       Center              X                  Y                   Z               Mass
    ------------   -----------------  -----------------  -----------------  -----------------
         N            0.184220519985     1.022461832106     0.000000859548    14.003074004430
         N            0.754635519985    -1.311207167894    -0.000002140452    14.003074004430
         C           -1.558726480015    -0.646099167894    -0.000003140452    12.000000000000
         C           -2.535671480015     0.236147832106     0.746382859548    12.000000000000
         C           -2.535671480015     0.236149832106    -0.746382140452    12.000000000000
         C           -0.103397280015    -0.295349467894     0.000000859548    12.000000000000
         C            1.489648519985     1.327721832106     0.000000859548    12.000000000000
         C            2.053977519985    -0.972343167894     0.000002859548    12.000000000000
         C            2.482980519985     0.351743832106     0.000000859548    12.000000000000
         H           -1.743202480015    -1.715485167894     0.000000859548     1.007825032230
         H           -2.111592480015     1.101667832106     1.243834859548     1.007825032230
         H           -3.349178480015    -0.255233167894     1.270160859548     1.007825032230
         H           -3.349179480015    -0.255218167894    -1.270170140452     1.007825032230
         H           -2.111588480015     1.101673832106    -1.243824140452     1.007825032230
         H            1.735747519985     2.388605832106    -0.000007140452     1.007825032230
         H            2.763825519985    -1.798108167894    -0.000010140452     1.007825032230
         H            3.536836519985     0.610539832106    -0.000003140452     1.007825032230

  Basis Set: AUG-CC-PVTZ
    Blend: AUG-CC-PVTZ
  Basis Set: (AUG-CC-PVTZ AUX)
    Blend: AUG-CC-PVTZ-JKFIT
	 Reference Energy          =    -378.7304027665782087 [Eh]
	 Singles Energy            =      -0.0000000000000000 [Eh]
	 Same-Spin Energy          =      -0.4128976509241007 [Eh]
	 Opposite-Spin Energy      =      -1.2901819181503105 [Eh]
	 Correlation Energy        =      -1.7030795690744112 [Eh]
	 Total Energy              =    -380.4334823356526272 [Eh]

	 ================> DF-SCS-MP2 Energies <==================
	-----------------------------------------------------------
	 SCS Same-Spin Scale       =       0.3333333333333333 [-]
	 SCS Opposite-Spin Scale   =       1.2000000000000000 [-]
	 SCS Same-Spin Energy      =      -0.1376325503080336 [Eh]
	 SCS Opposite-Spin Energy  =      -1.5482183017803726 [Eh]
	 SCS Correlation Energy    =      -1.6858508520884061 [Eh]
	 SCS Total Energy          =    -380.4162536186665875 [Eh]
	-----------------------------------------------------------

  Dipole Moment: [D]
     X:     1.5769      Y:     0.6137      Z:    -0.0000     Total:     1.6921

*** Psi4 exiting successfully. Buy a developer a beer!
