                               Psi4 1.3.2 release

  ==> Input File <==

--------------------------------------------------------------------------
#psi4
#
memory 32 gb

molecule  {
0 1
  N        0.2222710     1.0128310     0.0000010
  N        0.7926860    -1.3208380    -0.0000020
  C       -1.5206760    -0.6557300    -0.0000030
  C       -2.4776268     0.2422310     0.7535118
  C       -2.4976210     0.2265190    -0.7463820
  C       -0.0883020    -0.2997600     0.0000010
  C        1.5276990     1.3180910     0.0000010
  C        2.0920280    -0.9819740     0.0000030
  C        2.5210310     0.3421130     0.0000010
  H       -1.7051520    -1.7251160     0.0000010
  H       -2.0735420     1.0920370     1.2438350
  H       -3.3111280    -0.2648640     1.2701610
  H       -3.3111290    -0.2648490    -1.2701700
  H       -2.0735380     1.0920430    -1.2438240
  H        1.7737980     2.3789750    -0.0000070
  H        2.8018760    -1.8077390    -0.0000100
  H        3.5748870     0.6009090    -0.0000030
units angstrom
no_reorient  #important for SAPT in psi4, default
symmetry c1  #important for SAPT in psi4, default
}

set PROPERTIES_ORIGIN ["COM"]
properties('MP2/aug-cc-pvtz', properties = ['dipole'])
--------------------------------------------------------------------------

    Molecular point group: c1
  Charge       = 0
  Multiplicity = 1
  Basis Set: AUG-CC-PVTZ
    Blend: AUG-CC-PVTZ
  Basis Set: (AUG-CC-PVTZ AUX)
    Blend: AUG-CC-PVTZ-JKFIT

    Orbital Energies [Eh]
    ---------------------

    Doubly Occupied:

       1A    -15.566738     2A    -15.566702     3A    -11.319721
       4A    -11.298986     5A    -11.297602     6A    -11.241902
       7A    -11.234576     8A    -11.228717     9A    -11.228038
      10A     -1.305296    11A     -1.186818    12A     -1.148258
      13A     -1.064000    14A     -0.911201    15A     -0.890420
      16A     -0.822095    17A     -0.802819    18A     -0.718660
      19A     -0.698232    20A     -0.656093    21A     -0.633390
      22A     -0.608211    23A     -0.587320    24A     -0.576889
      25A     -0.527851    26A     -0.515357    27A     -0.477118
      28A     -0.442582    29A     -0.424884    30A     -0.417917
      31A     -0.407800    32A     -0.348306

  @DF-RHF Final Energy:  -378.72935510165621

   => Energetics <=

    Nuclear Repulsion Energy =            413.4994094196555352
    One-Electron Energy =               -1332.1485330766404331
    Two-Electron Energy =                 539.9197685553286874
    Total Energy =                       -378.7293551016562105
  Basis Set: (AUG-CC-PVTZ AUX)
    Blend: AUG-CC-PVTZ-RI
    Molecular point group: c1

    Geometry (in Angstrom), charge = 0, multiplicity = 1:

       Center              X                  Y                   Z               Mass
    ------------   -----------------  -----------------  -----------------  -----------------
         N            0.184516450446     1.020369600750    -0.000711612275    14.003074004430
         N            0.754931450446    -1.313299399250    -0.000714612275    14.003074004430
         C           -1.558430549554    -0.648191399250    -0.000715612275    12.000000000000
         C           -2.515381349554     0.249769600750     0.752799187725    12.000000000000
         C           -2.535375549554     0.234057600750    -0.747094612275    12.000000000000
         C           -0.126056549554    -0.292221399250    -0.000711612275    12.000000000000
         C            1.489944450446     1.325629600750    -0.000711612275    12.000000000000
         C            2.054273450446    -0.974435399250    -0.000709612275    12.000000000000
         C            2.483276450446     0.349651600750    -0.000711612275    12.000000000000
         H           -1.742906549554    -1.717577399250    -0.000711612275     1.007825032230
         H           -2.111296549554     1.099575600750     1.243122387725     1.007825032230
         H           -3.348882549554    -0.257325399250     1.269448387725     1.007825032230
         H           -3.348883549554    -0.257310399250    -1.270882612275     1.007825032230
         H           -2.111292549554     1.099581600750    -1.244536612275     1.007825032230
         H            1.736043450446     2.386513600750    -0.000719612275     1.007825032230
         H            2.764121450446    -1.800200399250    -0.000722612275     1.007825032230
         H            3.537132450446     0.608447600750    -0.000715612275     1.007825032230

  Basis Set: AUG-CC-PVTZ
    Blend: AUG-CC-PVTZ
  Basis Set: (AUG-CC-PVTZ AUX)
    Blend: AUG-CC-PVTZ-JKFIT
	 Reference Energy          =    -378.7293551016562105 [Eh]
	 Singles Energy            =      -0.0000000000000000 [Eh]
	 Same-Spin Energy          =      -0.4132305032210487 [Eh]
	 Opposite-Spin Energy      =      -1.2907704948583429 [Eh]
	 Correlation Energy        =      -1.7040009980793918 [Eh]
	 Total Energy              =    -380.4333560997355903 [Eh]

	 ================> DF-SCS-MP2 Energies <==================
	-----------------------------------------------------------
	 SCS Same-Spin Scale       =       0.3333333333333333 [-]
	 SCS Opposite-Spin Scale   =       1.2000000000000000 [-]
	 SCS Same-Spin Energy      =      -0.1377435010736829 [Eh]
	 SCS Opposite-Spin Energy  =      -1.5489245938300116 [Eh]
	 SCS Correlation Energy    =      -1.6866680949036945 [Eh]
	 SCS Total Energy          =    -380.4160231965598769 [Eh]
	-----------------------------------------------------------

  Dipole Moment: [D]
     X:     1.4382      Y:     0.6105      Z:    -0.0066     Total:     1.5624

*** Psi4 exiting successfully. Buy a developer a beer!
