                               Psi4 1.4a3.dev225

  ==> Input File <==

--------------------------------------------------------------------------
#psi4
#
memory 32 gb

molecule  {
0 1
  N        0.2222710     1.0128310     0.0000010
  N        0.7926860    -1.3208380    -0.0000020
  C       -1.5206760    -0.6557300    -0.0000030
  C       -2.4976210     0.2265170     0.7463830
  C       -2.4976210     0.2265190    -0.7463820
  C       -0.0883020    -0.2997600     0.0000010
  C        1.5276990     1.3180910     0.0000010
  C        2.0920280    -0.9819740     0.0000030
  C        2.5210310     0.3421130     0.0000010
  H       -1.7051520    -1.7251160     0.0000010
  H       -2.0735420     1.0920370     1.2438350
  H       -3.3111280    -0.2648640     1.2701610
  H       -3.3111290    -0.2648490    -1.2701700
  H       -2.0735380     1.0920430    -1.2438240
  H        1.7737980     2.3789750    -0.0000070
  H        2.8018760    -1.8077390    -0.0000100
  H        3.5554641     0.5961393    -0.0000029
units angstrom
no_reorient  #important for SAPT in psi4, default
symmetry c1  #important for SAPT in psi4, default
}

set PROPERTIES_ORIGIN ["COM"]
properties('MP2/aug-cc-pvtz', properties = ['dipole'])
--------------------------------------------------------------------------

    Molecular point group: c1
  Charge       = 0
  Multiplicity = 1
  Basis Set: AUG-CC-PVTZ
    Blend: AUG-CC-PVTZ
  Basis Set: (AUG-CC-PVTZ AUX)
    Blend: AUG-CC-PVTZ-JKFIT

    Orbital Energies [Eh]
    ---------------------

    Doubly Occupied:

       1A    -15.566666     2A    -15.566604     3A    -11.319793
       4A    -11.298784     5A    -11.297446     6A    -11.239646
       7A    -11.234013     8A    -11.228559     9A    -11.227875
      10A     -1.305143    11A     -1.186677    12A     -1.149016
      13A     -1.064980    14A     -0.912179    15A     -0.890409
      16A     -0.821100    17A     -0.802809    18A     -0.718449
      19A     -0.698677    20A     -0.658305    21A     -0.636681
      22A     -0.607771    23A     -0.587350    24A     -0.576919
      25A     -0.527160    26A     -0.514150    27A     -0.477654
      28A     -0.441311    29A     -0.427156    30A     -0.417713
      31A     -0.407714    32A     -0.348135

  @DF-RHF Final Energy:  -378.73028492711853

   => Energetics <=

    Nuclear Repulsion Energy =            413.5006709679201435
    One-Electron Energy =               -1332.1482226959703894
    Two-Electron Energy =                 539.9172668009317704
    Total Energy =                       -378.7302849271185323
  Basis Set: (AUG-CC-PVTZ AUX)
    Blend: AUG-CC-PVTZ-RI
    Molecular point group: c1

    Geometry (in Angstrom), charge = 0, multiplicity = 1:

       Center              X                  Y                   Z               Mass
    ------------   -----------------  -----------------  -----------------  -----------------
         N            0.186677756269     1.021980136595     0.000000858709    14.003074004430
         N            0.757092756269    -1.311688863405    -0.000002141291    14.003074004430
         C           -1.556269243731    -0.646580863405    -0.000003141291    12.000000000000
         C           -2.533214243731     0.235666136595     0.746382858709    12.000000000000
         C           -2.533214243731     0.235668136595    -0.746382141291    12.000000000000
         C           -0.123895243731    -0.290610863405     0.000000858709    12.000000000000
         C            1.492105756269     1.327240136595     0.000000858709    12.000000000000
         C            2.056434756269    -0.972824863405     0.000002858709    12.000000000000
         C            2.485437756269     0.351262136595     0.000000858709    12.000000000000
         H           -1.740745243731    -1.715966863405     0.000000858709     1.007825032230
         H           -2.109135243731     1.101186136595     1.243834858709     1.007825032230
         H           -3.346721243731    -0.255714863405     1.270160858709     1.007825032230
         H           -3.346722243731    -0.255699863405    -1.270170141291     1.007825032230
         H           -2.109131243731     1.101192136595    -1.243824141291     1.007825032230
         H            1.738204756269     2.388124136595    -0.000007141291     1.007825032230
         H            2.766282756269    -1.798589863405    -0.000010141291     1.007825032230
         H            3.519870856269     0.605288436595    -0.000003041291     1.007825032230

  Basis Set: AUG-CC-PVTZ
    Blend: AUG-CC-PVTZ
  Basis Set: (AUG-CC-PVTZ AUX)
    Blend: AUG-CC-PVTZ-JKFIT
	 Reference Energy          =    -378.7302849271185323 [Eh]
	 Singles Energy            =      -0.0000000000000000 [Eh]
	 Same-Spin Energy          =      -0.4132179791527012 [Eh]
	 Opposite-Spin Energy      =      -1.2905822657128008 [Eh]
	 Correlation Energy        =      -1.7038002448655019 [Eh]
	 Total Energy              =    -380.4340851719840089 [Eh]

	 ================> DF-SCS-MP2 Energies <==================
	-----------------------------------------------------------
	 SCS Same-Spin Scale       =       0.3333333333333333 [-]
	 SCS Opposite-Spin Scale   =       1.2000000000000000 [-]
	 SCS Same-Spin Energy      =      -0.1377393263842337 [Eh]
	 SCS Opposite-Spin Energy  =      -1.5486987188553609 [Eh]
	 SCS Correlation Energy    =      -1.6864380452395946 [Eh]
	 SCS Total Energy          =    -380.4167229723581158 [Eh]
	-----------------------------------------------------------

  Dipole Moment: [D]
     X:     1.4351      Y:     0.6101      Z:    -0.0000     Total:     1.5594

*** Psi4 exiting successfully. Buy a developer a beer!
