                               Psi4 1.3.2 release

  ==> Input File <==

--------------------------------------------------------------------------
#psi4
#
memory 32 gb

molecule  {
0 1
  N        0.2222710     1.0128310     0.0000010
  N        0.7926860    -1.3208380    -0.0000020
  C       -1.5206760    -0.6557300    -0.0000030
  C       -2.4976210     0.2265170     0.7463830
  C       -2.4976210     0.2265190    -0.7463820
  C       -0.0883020    -0.2997600     0.0000010
  C        1.5276990     1.3180910     0.0000010
  C        2.0920280    -0.9819740     0.0000030
  C        2.5210310     0.3421130     0.0000010
  H       -1.7051520    -1.7251160     0.0000010
  H       -2.0735420     1.0920370     1.2438350
  H       -3.3111280    -0.2648640     1.2701610
  H       -3.3111290    -0.2648490    -1.2701700
  H       -2.0735380     1.0920430    -1.2438240
  H        1.7737980     2.3789750    -0.0000070
  H        2.8018760    -1.8077390    -0.0000100
  H        3.6720016     0.6247575    -0.0000034
units angstrom
no_reorient  #important for SAPT in psi4, default
symmetry c1  #important for SAPT in psi4, default
}

set PROPERTIES_ORIGIN ["COM"]
properties('MP2/aug-cc-pvtz', properties = ['dipole'])
--------------------------------------------------------------------------

    Molecular point group: c1
  Charge       = 0
  Multiplicity = 1
  Basis Set: AUG-CC-PVTZ
    Blend: AUG-CC-PVTZ
  Basis Set: (AUG-CC-PVTZ AUX)
    Blend: AUG-CC-PVTZ-JKFIT

    Orbital Energies [Eh]
    ---------------------

    Doubly Occupied:

       1A    -15.567601     2A    -15.567535     3A    -11.320382
       4A    -11.299899     5A    -11.298550     6A    -11.252869
       7A    -11.234398     8A    -11.228877     9A    -11.228193
      10A     -1.305968    11A     -1.187518    12A     -1.149286
      13A     -1.061990    14A     -0.908849    15A     -0.890814
      16A     -0.821411    17A     -0.802325    18A     -0.717249
      19A     -0.697068    20A     -0.651100    21A     -0.624787
      22A     -0.601465    23A     -0.588253    24A     -0.577713
      25A     -0.527509    26A     -0.514481    27A     -0.474922
      28A     -0.441788    29A     -0.427363    30A     -0.418496
      31A     -0.408433    32A     -0.348681

  @DF-RHF Final Energy:  -378.72269559868386

   => Energetics <=

    Nuclear Repulsion Energy =            412.9174916190384579
    One-Electron Energy =               -1330.9888336283902390
    Two-Electron Energy =                 539.3486464106679250
    Total Energy =                       -378.7226955986839130
  Basis Set: (AUG-CC-PVTZ AUX)
    Blend: AUG-CC-PVTZ-RI
    Molecular point group: c1

    Geometry (in Angstrom), charge = 0, multiplicity = 1:

       Center              X                  Y                   Z               Mass
    ------------   -----------------  -----------------  -----------------  -----------------
         N            0.185699571592     1.021739923062     0.000000862905    14.003074004430
         N            0.756114571592    -1.311929076938    -0.000002137095    14.003074004430
         C           -1.557247428408    -0.646821076938    -0.000003137095    12.000000000000
         C           -2.534192428408     0.235425923062     0.746382862905    12.000000000000
         C           -2.534192428408     0.235427923062    -0.746382137095    12.000000000000
         C           -0.124873428408    -0.290851076938     0.000000862905    12.000000000000
         C            1.491127571592     1.326999923062     0.000000862905    12.000000000000
         C            2.055456571592    -0.973065076938     0.000002862905    12.000000000000
         C            2.484459571592     0.351021923062     0.000000862905    12.000000000000
         H           -1.741723428408    -1.716207076938     0.000000862905     1.007825032230
         H           -2.110113428408     1.100945923062     1.243834862905     1.007825032230
         H           -3.347699428408    -0.255955076938     1.270160862905     1.007825032230
         H           -3.347700428408    -0.255940076938    -1.270170137095     1.007825032230
         H           -2.110109428408     1.100951923062    -1.243824137095     1.007825032230
         H            1.737226571592     2.387883923062    -0.000007137095     1.007825032230
         H            2.765304571592    -1.798830076938    -0.000010137095     1.007825032230
         H            3.635430171592     0.633666423062    -0.000003537095     1.007825032230

  Basis Set: AUG-CC-PVTZ
    Blend: AUG-CC-PVTZ
  Basis Set: (AUG-CC-PVTZ AUX)
    Blend: AUG-CC-PVTZ-JKFIT
	 Reference Energy          =    -378.7226955986838561 [Eh]
	 Singles Energy            =      -0.0000000000000000 [Eh]
	 Same-Spin Energy          =      -0.4134716608495124 [Eh]
	 Opposite-Spin Energy      =      -1.2915686229529770 [Eh]
	 Correlation Energy        =      -1.7050402838024894 [Eh]
	 Total Energy              =    -380.4277358824863313 [Eh]

	 ================> DF-SCS-MP2 Energies <==================
	-----------------------------------------------------------
	 SCS Same-Spin Scale       =       0.3333333333333333 [-]
	 SCS Opposite-Spin Scale   =       1.2000000000000000 [-]
	 SCS Same-Spin Energy      =      -0.1378238869498374 [Eh]
	 SCS Opposite-Spin Energy  =      -1.5498823475435723 [Eh]
	 SCS Correlation Energy    =      -1.6877062344934097 [Eh]
	 SCS Total Energy          =    -380.4104018331772750 [Eh]
	-----------------------------------------------------------

  Dipole Moment: [D]
     X:     1.3978      Y:     0.6017      Z:    -0.0000     Total:     1.5218

*** Psi4 exiting successfully. Buy a developer a beer!
