                               Psi4 1.3.2 release

  ==> Input File <==

--------------------------------------------------------------------------
#psi4
#
memory 32 gb

molecule  {
0 1
  N        0.2171423     1.0356604     0.0000008
  N        0.7926860    -1.3208380    -0.0000020
  C       -1.5206760    -0.6557300    -0.0000030
  C       -2.4976210     0.2265170     0.7463830
  C       -2.4976210     0.2265190    -0.7463820
  C       -0.0883020    -0.2997600     0.0000010
  C        1.5276990     1.3180910     0.0000010
  C        2.0920280    -0.9819740     0.0000030
  C        2.5210310     0.3421130     0.0000010
  H       -1.7051520    -1.7251160     0.0000010
  H       -2.0735420     1.0920370     1.2438350
  H       -3.3111280    -0.2648640     1.2701610
  H       -3.3111290    -0.2648490    -1.2701700
  H       -2.0735380     1.0920430    -1.2438240
  H        1.7737980     2.3789750    -0.0000070
  H        2.8018760    -1.8077390    -0.0000100
  H        3.5748870     0.6009090    -0.0000030
units angstrom
no_reorient  #important for SAPT in psi4, default
symmetry c1  #important for SAPT in psi4, default
}

set PROPERTIES_ORIGIN ["COM"]
properties('MP2/aug-cc-pvtz', properties = ['dipole'])
--------------------------------------------------------------------------

    Molecular point group: c1
  Charge       = 0
  Multiplicity = 1
  Basis Set: AUG-CC-PVTZ
    Blend: AUG-CC-PVTZ
  Basis Set: (AUG-CC-PVTZ AUX)
    Blend: AUG-CC-PVTZ-JKFIT

    Orbital Energies [Eh]
    ---------------------

    Doubly Occupied:

       1A    -15.569748     2A    -15.567708     3A    -11.322914
       4A    -11.298413     5A    -11.298090     6A    -11.241663
       7A    -11.234805     8A    -11.229088     9A    -11.228402
      10A     -1.302047    11A     -1.186642    12A     -1.149486
      13A     -1.062948    14A     -0.912525    15A     -0.887851
      16A     -0.821559    17A     -0.802197    18A     -0.716716
      19A     -0.698347    20A     -0.655353    21A     -0.635383
      22A     -0.606328    23A     -0.586758    24A     -0.575195
      25A     -0.526107    26A     -0.514584    27A     -0.479532
      28A     -0.441847    29A     -0.428008    30A     -0.418331
      31A     -0.409032    32A     -0.347138

  @DF-RHF Final Energy:  -378.72855613861043

   => Energetics <=

    Nuclear Repulsion Energy =            412.8837385414399250
    One-Electron Energy =               -1330.9150977475705986
    Two-Electron Energy =                 539.3028030675202444
    Total Energy =                       -378.7285561386104291
  Basis Set: (AUG-CC-PVTZ AUX)
    Blend: AUG-CC-PVTZ-RI
    Molecular point group: c1

    Geometry (in Angstrom), charge = 0, multiplicity = 1:

       Center              X                  Y                   Z               Mass
    ------------   -----------------  -----------------  -----------------  -----------------
         N            0.181984162669     1.042107011539     0.000000682873    14.003074004430
         N            0.757527862669    -1.314391388461    -0.000002117127    14.003074004430
         C           -1.555834137331    -0.649283388461    -0.000003117127    12.000000000000
         C           -2.532779137331     0.232963611539     0.746382882873    12.000000000000
         C           -2.532779137331     0.232965611539    -0.746382117127    12.000000000000
         C           -0.123460137331    -0.293313388461     0.000000882873    12.000000000000
         C            1.492540862669     1.324537611539     0.000000882873    12.000000000000
         C            2.056869862669    -0.975527388461     0.000002882873    12.000000000000
         C            2.485872862669     0.348559611539     0.000000882873    12.000000000000
         H           -1.740310137331    -1.718669388461     0.000000882873     1.007825032230
         H           -2.108700137331     1.098483611539     1.243834882873     1.007825032230
         H           -3.346286137331    -0.258417388461     1.270160882873     1.007825032230
         H           -3.346287137331    -0.258402388461    -1.270170117127     1.007825032230
         H           -2.108696137331     1.098489611539    -1.243824117127     1.007825032230
         H            1.738639862669     2.385421611539    -0.000007117127     1.007825032230
         H            2.766717862669    -1.801292388461    -0.000010117127     1.007825032230
         H            3.539728862669     0.607355611539    -0.000003117127     1.007825032230

  Basis Set: AUG-CC-PVTZ
    Blend: AUG-CC-PVTZ
  Basis Set: (AUG-CC-PVTZ AUX)
    Blend: AUG-CC-PVTZ-JKFIT
	 Reference Energy          =    -378.7285561386104291 [Eh]
	 Singles Energy            =      -0.0000000000000000 [Eh]
	 Same-Spin Energy          =      -0.4133897142660141 [Eh]
	 Opposite-Spin Energy      =      -1.2913025521057278 [Eh]
	 Correlation Energy        =      -1.7046922663717419 [Eh]
	 Total Energy              =    -380.4332484049821801 [Eh]

	 ================> DF-SCS-MP2 Energies <==================
	-----------------------------------------------------------
	 SCS Same-Spin Scale       =       0.3333333333333333 [-]
	 SCS Opposite-Spin Scale   =       1.2000000000000000 [-]
	 SCS Same-Spin Energy      =      -0.1377965714220047 [Eh]
	 SCS Opposite-Spin Energy  =      -1.5495630625268733 [Eh]
	 SCS Correlation Energy    =      -1.6873596339488779 [Eh]
	 SCS Total Energy          =    -380.4159157725592877 [Eh]
	-----------------------------------------------------------

  Dipole Moment: [D]
     X:     1.4089      Y:     0.5637      Z:    -0.0000     Total:     1.5175

*** Psi4 exiting successfully. Buy a developer a beer!
