                               Psi4 1.3.2 release

  ==> Input File <==

--------------------------------------------------------------------------
#psi4
#
memory 32 gb

molecule  {
0 1
  N        0.2222710     1.0128310     0.0000010
  N        0.7926860    -1.3208380    -0.0000020
  C       -1.5206760    -0.6557300    -0.0000030
  C       -2.4976210     0.2265170     0.7463830
  C       -2.4976210     0.2265190    -0.7463820
  C       -0.0883020    -0.2997600     0.0000010
  C        1.5276990     1.3180910     0.0000010
  C        2.0920280    -0.9819740     0.0000030
  C        2.5210310     0.3421130     0.0000010
  H       -1.7051520    -1.7251160     0.0000010
  H       -2.0735420     1.0920370     1.2438350
  H       -3.3111280    -0.2648640     1.2701610
  H       -3.3111290    -0.2648490    -1.2701700
  H       -2.0735380     1.0920430    -1.2438240
  H        1.7737980     2.3789750    -0.0000070
  H        2.8018760    -1.8077390    -0.0000100
  H        3.5748870     0.6009090    -0.0000030
units angstrom
no_reorient  #important for SAPT in psi4, default
symmetry c1  #important for SAPT in psi4, default
}

set PROPERTIES_ORIGIN ["COM"]
properties('MP2/aug-cc-pvtz', properties = ['dipole'])
--------------------------------------------------------------------------

    Molecular point group: c1
  Charge       = 0
  Multiplicity = 1
  Basis Set: AUG-CC-PVTZ
    Blend: AUG-CC-PVTZ
  Basis Set: (AUG-CC-PVTZ AUX)
    Blend: AUG-CC-PVTZ-JKFIT

    Orbital Energies [Eh]
    ---------------------

    Doubly Occupied:

       1A    -15.566806     2A    -15.566743     3A    -11.319873
       4A    -11.298944     5A    -11.297604     6A    -11.241936
       7A    -11.234066     8A    -11.228602     9A    -11.227918
      10A     -1.305262    11A     -1.186800    12A     -1.149044
      13A     -1.064344    14A     -0.911486    15A     -0.890460
      16A     -0.821142    17A     -0.802677    18A     -0.718116
      19A     -0.698268    20A     -0.656369    21A     -0.634991
      22A     -0.607214    23A     -0.587488    24A     -0.577034
      25A     -0.527211    26A     -0.514196    27A     -0.477273
      28A     -0.441376    29A     -0.427185    30A     -0.417828
      31A     -0.407817    32A     -0.348202

  @DF-RHF Final Energy:  -378.73015756435058

   => Energetics <=

    Nuclear Repulsion Energy =            413.3976363970837156
    One-Electron Energy =               -1331.9470382088975384
    Two-Electron Energy =                 539.8192442474633026
    Total Energy =                       -378.7301575643505203
  Basis Set: (AUG-CC-PVTZ AUX)
    Blend: AUG-CC-PVTZ-RI
    Molecular point group: c1

    Geometry (in Angstrom), charge = 0, multiplicity = 1:

       Center              X                  Y                   Z               Mass
    ------------   -----------------  -----------------  -----------------  -----------------
         N            0.186514725629     1.021940101006     0.000000859548    14.003074004430
         N            0.756929725629    -1.311728898994    -0.000002140452    14.003074004430
         C           -1.556432274371    -0.646620898994    -0.000003140452    12.000000000000
         C           -2.533377274371     0.235626101006     0.746382859548    12.000000000000
         C           -2.533377274371     0.235628101006    -0.746382140452    12.000000000000
         C           -0.124058274371    -0.290650898994     0.000000859548    12.000000000000
         C            1.491942725629     1.327200101006     0.000000859548    12.000000000000
         C            2.056271725629    -0.972864898994     0.000002859548    12.000000000000
         C            2.485274725629     0.351222101006     0.000000859548    12.000000000000
         H           -1.740908274371    -1.716006898994     0.000000859548     1.007825032230
         H           -2.109298274371     1.101146101006     1.243834859548     1.007825032230
         H           -3.346884274371    -0.255754898994     1.270160859548     1.007825032230
         H           -3.346885274371    -0.255739898994    -1.270170140452     1.007825032230
         H           -2.109294274371     1.101152101006    -1.243824140452     1.007825032230
         H            1.738041725629     2.388084101006    -0.000007140452     1.007825032230
         H            2.766119725629    -1.798629898994    -0.000010140452     1.007825032230
         H            3.539130725629     0.610018101006    -0.000003140452     1.007825032230

  Basis Set: AUG-CC-PVTZ
    Blend: AUG-CC-PVTZ
  Basis Set: (AUG-CC-PVTZ AUX)
    Blend: AUG-CC-PVTZ-JKFIT
	 Reference Energy          =    -378.7301575643505771 [Eh]
	 Singles Energy            =      -0.0000000000000000 [Eh]
	 Same-Spin Energy          =      -0.4132542005670084 [Eh]
	 Opposite-Spin Energy      =      -1.2907041690661976 [Eh]
	 Correlation Energy        =      -1.7039583696332059 [Eh]
	 Total Energy              =    -380.4341159339837759 [Eh]

	 ================> DF-SCS-MP2 Energies <==================
	-----------------------------------------------------------
	 SCS Same-Spin Scale       =       0.3333333333333333 [-]
	 SCS Opposite-Spin Scale   =       1.2000000000000000 [-]
	 SCS Same-Spin Energy      =      -0.1377514001890028 [Eh]
	 SCS Opposite-Spin Energy  =      -1.5488450028794369 [Eh]
	 SCS Correlation Energy    =      -1.6865964030684397 [Eh]
	 SCS Total Energy          =    -380.4167539674190266 [Eh]
	-----------------------------------------------------------

  Dipole Moment: [D]
     X:     1.4305      Y:     0.6091      Z:    -0.0000     Total:     1.5547

*** Psi4 exiting successfully. Buy a developer a beer!
