                               Psi4 1.4a3.dev225

  ==> Input File <==

--------------------------------------------------------------------------
#psi4
#
memory 32 gb

molecule  {
0 1
  N        0.2222710     1.0128310     0.0000010
  N        0.7926860    -1.3208380    -0.0000020
  C       -1.5206760    -0.6557300    -0.0000030
  C       -2.4976210     0.2265170     0.7463830
  C       -2.4976210     0.2265190    -0.7463820
  C       -0.0883020    -0.2997600     0.0000010
  C        1.5276990     1.3180910     0.0000010
  C        2.0920280    -0.9819740     0.0000030
  C        2.5352972     0.3280960     0.0000010
  H       -1.7051520    -1.7251160     0.0000010
  H       -2.0735420     1.0920370     1.2438350
  H       -3.3111280    -0.2648640     1.2701610
  H       -3.3111290    -0.2648490    -1.2701700
  H       -2.0735380     1.0920430    -1.2438240
  H        1.7737980     2.3789750    -0.0000070
  H        2.8018760    -1.8077390    -0.0000100
  H        3.5748870     0.6009090    -0.0000030
units angstrom
no_reorient  #important for SAPT in psi4, default
symmetry c1  #important for SAPT in psi4, default
}

set PROPERTIES_ORIGIN ["COM"]
properties('MP2/aug-cc-pvtz', properties = ['dipole'])
--------------------------------------------------------------------------

    Molecular point group: c1
  Charge       = 0
  Multiplicity = 1
  Basis Set: AUG-CC-PVTZ
    Blend: AUG-CC-PVTZ
  Basis Set: (AUG-CC-PVTZ AUX)
    Blend: AUG-CC-PVTZ-JKFIT

    Orbital Energies [Eh]
    ---------------------

    Doubly Occupied:

       1A    -15.567738     2A    -15.566088     3A    -11.320196
       4A    -11.302238     5A    -11.295539     6A    -11.242182
       7A    -11.234245     8A    -11.228800     9A    -11.228117
      10A     -1.304895    11A     -1.186719    12A     -1.149012
      13A     -1.063686    14A     -0.911284    15A     -0.890348
      16A     -0.821343    17A     -0.802547    18A     -0.718184
      19A     -0.697258    20A     -0.658608    21A     -0.635712
      22A     -0.608279    23A     -0.585239    24A     -0.576617
      25A     -0.527308    26A     -0.514371    27A     -0.478311
      28A     -0.441051    29A     -0.427296    30A     -0.417992
      31A     -0.407526    32A     -0.347760

  @DF-RHF Final Energy:  -378.72965489765340

   => Energetics <=

    Nuclear Repulsion Energy =            413.1806031095479170
    One-Electron Energy =               -1331.5075377425157512
    Two-Electron Energy =                 539.5972797353143733
    Total Energy =                       -378.7296548976534041
  Basis Set: (AUG-CC-PVTZ AUX)
    Blend: AUG-CC-PVTZ-RI
    Molecular point group: c1

    Geometry (in Angstrom), charge = 0, multiplicity = 1:

       Center              X                  Y                   Z               Mass
    ------------   -----------------  -----------------  -----------------  -----------------
         N            0.185088922475     1.023340998429     0.000000859548    14.003074004430
         N            0.755503922475    -1.310328001571    -0.000002140452    14.003074004430
         C           -1.557858077525    -0.645220001571    -0.000003140452    12.000000000000
         C           -2.534803077525     0.237026998429     0.746382859548    12.000000000000
         C           -2.534803077525     0.237028998429    -0.746382140452    12.000000000000
         C           -0.125484077525    -0.289250001571     0.000000859548    12.000000000000
         C            1.490516922475     1.328600998429     0.000000859548    12.000000000000
         C            2.054845922475    -0.971464001571     0.000002859548    12.000000000000
         C            2.498115122475     0.338605998429     0.000000859548    12.000000000000
         H           -1.742334077525    -1.714606001571     0.000000859548     1.007825032230
         H           -2.110724077525     1.102546998429     1.243834859548     1.007825032230
         H           -3.348310077525    -0.254354001571     1.270160859548     1.007825032230
         H           -3.348311077525    -0.254339001571    -1.270170140452     1.007825032230
         H           -2.110720077525     1.102552998429    -1.243824140452     1.007825032230
         H            1.736615922475     2.389484998429    -0.000007140452     1.007825032230
         H            2.764693922475    -1.797229001571    -0.000010140452     1.007825032230
         H            3.537704922475     0.611418998429    -0.000003140452     1.007825032230

  Basis Set: AUG-CC-PVTZ
    Blend: AUG-CC-PVTZ
  Basis Set: (AUG-CC-PVTZ AUX)
    Blend: AUG-CC-PVTZ-JKFIT
	 Reference Energy          =    -378.7296548976534041 [Eh]
	 Singles Energy            =      -0.0000000000000000 [Eh]
	 Same-Spin Energy          =      -0.4131858157261284 [Eh]
	 Opposite-Spin Energy      =      -1.2907119493466306 [Eh]
	 Correlation Energy        =      -1.7038977650727589 [Eh]
	 Total Energy              =    -380.4335526627261856 [Eh]

	 ================> DF-SCS-MP2 Energies <==================
	-----------------------------------------------------------
	 SCS Same-Spin Scale       =       0.3333333333333333 [-]
	 SCS Opposite-Spin Scale   =       1.2000000000000000 [-]
	 SCS Same-Spin Energy      =      -0.1377286052420428 [Eh]
	 SCS Opposite-Spin Energy  =      -1.5488543392159566 [Eh]
	 SCS Correlation Energy    =      -1.6865829444579994 [Eh]
	 SCS Total Energy          =    -380.4162378421113999 [Eh]
	-----------------------------------------------------------

  Dipole Moment: [D]
     X:     1.4193      Y:     0.6403      Z:    -0.0000     Total:     1.5570

*** Psi4 exiting successfully. Buy a developer a beer!
