                               Psi4 1.3.2 release

  ==> Input File <==

--------------------------------------------------------------------------
#psi4
#
memory 32 gb

molecule  {
0 1
  N        0.2222710     1.0128310     0.0000010
  N        0.7926860    -1.3208380    -0.0000020
  C       -1.5206760    -0.6557300    -0.0000030
  C       -2.4976210     0.2265170     0.7463830
  C       -2.4976210     0.2265190    -0.7463820
  C       -0.0883020    -0.2997600     0.0000010
  C        1.4303258     1.2953213     0.0000010
  C        2.0920280    -0.9819740     0.0000030
  C        2.5210310     0.3421130     0.0000010
  H       -1.7051520    -1.7251160     0.0000010
  H       -2.0735420     1.0920370     1.2438350
  H       -3.3111280    -0.2648640     1.2701610
  H       -3.3111290    -0.2648490    -1.2701700
  H       -2.0735380     1.0920430    -1.2438240
  H        1.7737980     2.3789750    -0.0000070
  H        2.8018760    -1.8077390    -0.0000100
  H        3.5748870     0.6009090    -0.0000030
units angstrom
no_reorient  #important for SAPT in psi4, default
symmetry c1  #important for SAPT in psi4, default
}

set PROPERTIES_ORIGIN ["COM"]
properties('MP2/aug-cc-pvtz', properties = ['dipole'])
--------------------------------------------------------------------------

    Molecular point group: c1
  Charge       = 0
  Multiplicity = 1
  Basis Set: AUG-CC-PVTZ
    Blend: AUG-CC-PVTZ
  Basis Set: (AUG-CC-PVTZ AUX)
    Blend: AUG-CC-PVTZ-JKFIT

    Orbital Energies [Eh]
    ---------------------

    Doubly Occupied:

       1A    -15.565350     2A    -15.563997     3A    -11.324696
       4A    -11.298573     5A    -11.291387     6A    -11.242314
       7A    -11.236597     8A    -11.231270     9A    -11.230587
      10A     -1.325244    11A     -1.206317    12A     -1.152715
      13A     -1.054167    14A     -0.918209    15A     -0.882026
      16A     -0.823821    17A     -0.807439    18A     -0.718744
      19A     -0.701003    20A     -0.656518    21A     -0.638573
      22A     -0.604585    23A     -0.587399    24A     -0.580740
      25A     -0.527165    26A     -0.516745    27A     -0.481485
      28A     -0.444843    29A     -0.432311    30A     -0.429364
      31A     -0.401390    32A     -0.340766

  @DF-RHF Final Energy:  -378.72003760242001

   => Energetics <=

    Nuclear Repulsion Energy =            414.9029230911917239
    One-Electron Energy =               -1334.8132416866340009
    Two-Electron Energy =                 541.1902809930222702
    Total Energy =                       -378.7200376024200068
  Basis Set: (AUG-CC-PVTZ AUX)
    Blend: AUG-CC-PVTZ-RI
    Molecular point group: c1

    Geometry (in Angstrom), charge = 0, multiplicity = 1:

       Center              X                  Y                   Z               Mass
    ------------   -----------------  -----------------  -----------------  -----------------
         N            0.196246470291     1.024215767272     0.000000859548    14.003074004430
         N            0.766661470291    -1.309453232728    -0.000002140452    14.003074004430
         C           -1.546700529709    -0.644345232728    -0.000003140452    12.000000000000
         C           -2.523645529709     0.237901767272     0.746382859548    12.000000000000
         C           -2.523645529709     0.237903767272    -0.746382140452    12.000000000000
         C           -0.114326529709    -0.288375232728     0.000000859548    12.000000000000
         C            1.404301270291     1.306706067272     0.000000859548    12.000000000000
         C            2.066003470291    -0.970589232728     0.000002859548    12.000000000000
         C            2.495006470291     0.353497767272     0.000000859548    12.000000000000
         H           -1.731176529709    -1.713731232728     0.000000859548     1.007825032230
         H           -2.099566529709     1.103421767272     1.243834859548     1.007825032230
         H           -3.337152529709    -0.253479232728     1.270160859548     1.007825032230
         H           -3.337153529709    -0.253464232728    -1.270170140452     1.007825032230
         H           -2.099562529709     1.103427767272    -1.243824140452     1.007825032230
         H            1.747773470291     2.390359767272    -0.000007140452     1.007825032230
         H            2.775851470291    -1.796354232728    -0.000010140452     1.007825032230
         H            3.548862470291     0.612293767272    -0.000003140452     1.007825032230

  Basis Set: AUG-CC-PVTZ
    Blend: AUG-CC-PVTZ
  Basis Set: (AUG-CC-PVTZ AUX)
    Blend: AUG-CC-PVTZ-JKFIT
	 Reference Energy          =    -378.7200376024200068 [Eh]
	 Singles Energy            =      -0.0000000000000000 [Eh]
	 Same-Spin Energy          =      -0.4122793653742337 [Eh]
	 Opposite-Spin Energy      =      -1.2890008131347170 [Eh]
	 Correlation Energy        =      -1.7012801785089509 [Eh]
	 Total Energy              =    -380.4213177809289732 [Eh]

	 ================> DF-SCS-MP2 Energies <==================
	-----------------------------------------------------------
	 SCS Same-Spin Scale       =       0.3333333333333333 [-]
	 SCS Opposite-Spin Scale   =       1.2000000000000000 [-]
	 SCS Same-Spin Energy      =      -0.1374264551247446 [Eh]
	 SCS Opposite-Spin Energy  =      -1.5468009757616603 [Eh]
	 SCS Correlation Energy    =      -1.6842274308864049 [Eh]
	 SCS Total Energy          =    -380.4042650333063875 [Eh]
	-----------------------------------------------------------

  Dipole Moment: [D]
     X:     1.2125      Y:     0.6062      Z:    -0.0000     Total:     1.3556

*** Psi4 exiting successfully. Buy a developer a beer!
