                               Psi4 1.4a3.dev225

  ==> Input File <==

--------------------------------------------------------------------------
#psi4
#
memory 32 gb

molecule  {
0 1
  N        0.2222710     1.0128310     0.0000010
  N        0.7926860    -1.3208380    -0.0000020
  C       -1.5206760    -0.6557300    -0.0000030
  C       -2.4976210     0.2265170     0.7463830
  C       -2.4976210     0.2265190    -0.7463820
  C       -0.0883020    -0.2997600     0.0000010
  C        1.5276990     1.3180910     0.0000010
  C        2.0920280    -0.9819740     0.0000030
  C        2.5566965     0.3070706     0.0000010
  H       -1.7051520    -1.7251160     0.0000010
  H       -2.0735420     1.0920370     1.2438350
  H       -3.3111280    -0.2648640     1.2701610
  H       -3.3111290    -0.2648490    -1.2701700
  H       -2.0735380     1.0920430    -1.2438240
  H        1.7737980     2.3789750    -0.0000070
  H        2.8018760    -1.8077390    -0.0000100
  H        3.5748870     0.6009090    -0.0000030
units angstrom
no_reorient  #important for SAPT in psi4, default
symmetry c1  #important for SAPT in psi4, default
}

set PROPERTIES_ORIGIN ["COM"]
properties('MP2/aug-cc-pvtz', properties = ['dipole'])
--------------------------------------------------------------------------

    Molecular point group: c1
  Charge       = 0
  Multiplicity = 1
  Basis Set: AUG-CC-PVTZ
    Blend: AUG-CC-PVTZ
  Basis Set: (AUG-CC-PVTZ AUX)
    Blend: AUG-CC-PVTZ-JKFIT

    Orbital Energies [Eh]
    ---------------------

    Doubly Occupied:

       1A    -15.569168     2A    -15.565043     3A    -11.320697
       4A    -11.306835     5A    -11.292503     6A    -11.242520
       7A    -11.234519     8A    -11.229105     9A    -11.228421
      10A     -1.304377    11A     -1.186644    12A     -1.149002
      13A     -1.062910    14A     -0.911679    15A     -0.889528
      16A     -0.821648    17A     -0.802336    18A     -0.718396
      19A     -0.695687    20A     -0.662609    21A     -0.636731
      22A     -0.609608    23A     -0.581347    24A     -0.576040
      25A     -0.527433    26A     -0.514639    27A     -0.479516
      28A     -0.440715    29A     -0.427457    30A     -0.418370
      31A     -0.406918    32A     -0.347152

  @DF-RHF Final Energy:  -378.72713999149863

   => Energetics <=

    Nuclear Repulsion Energy =            412.8632239999873832
    One-Electron Energy =               -1330.8616179043428929
    Two-Electron Energy =                 539.2712539128568778
    Total Energy =                       -378.7271399914985750
  Basis Set: (AUG-CC-PVTZ AUX)
    Blend: AUG-CC-PVTZ-RI
    Molecular point group: c1

    Geometry (in Angstrom), charge = 0, multiplicity = 1:

       Center              X                  Y                   Z               Mass
    ------------   -----------------  -----------------  -----------------  -----------------
         N            0.182950217744     1.025442334569     0.000000859548    14.003074004430
         N            0.753365217744    -1.308226665431    -0.000002140452    14.003074004430
         C           -1.559996782256    -0.643118665431    -0.000003140452    12.000000000000
         C           -2.536941782256     0.239128334569     0.746382859548    12.000000000000
         C           -2.536941782256     0.239130334569    -0.746382140452    12.000000000000
         C           -0.127622782256    -0.287148665431     0.000000859548    12.000000000000
         C            1.488378217744     1.330702334569     0.000000859548    12.000000000000
         C            2.052707217744    -0.969362665431     0.000002859548    12.000000000000
         C            2.517375717744     0.319681934569     0.000000859548    12.000000000000
         H           -1.744472782256    -1.712504665431     0.000000859548     1.007825032230
         H           -2.112862782256     1.104648334569     1.243834859548     1.007825032230
         H           -3.350448782256    -0.252252665431     1.270160859548     1.007825032230
         H           -3.350449782256    -0.252237665431    -1.270170140452     1.007825032230
         H           -2.112858782256     1.104654334569    -1.243824140452     1.007825032230
         H            1.734477217744     2.391586334569    -0.000007140452     1.007825032230
         H            2.762555217744    -1.795127665431    -0.000010140452     1.007825032230
         H            3.535566217744     0.613520334569    -0.000003140452     1.007825032230

  Basis Set: AUG-CC-PVTZ
    Blend: AUG-CC-PVTZ
  Basis Set: (AUG-CC-PVTZ AUX)
    Blend: AUG-CC-PVTZ-JKFIT
	 Reference Energy          =    -378.7271399914986318 [Eh]
	 Singles Energy            =      -0.0000000000000000 [Eh]
	 Same-Spin Energy          =      -0.4130709520856377 [Eh]
	 Opposite-Spin Energy      =      -1.2907912848151066 [Eh]
	 Correlation Energy        =      -1.7038622369007443 [Eh]
	 Total Energy              =    -380.4310022283993931 [Eh]

	 ================> DF-SCS-MP2 Energies <==================
	-----------------------------------------------------------
	 SCS Same-Spin Scale       =       0.3333333333333333 [-]
	 SCS Opposite-Spin Scale   =       1.2000000000000000 [-]
	 SCS Same-Spin Energy      =      -0.1376903173618792 [Eh]
	 SCS Opposite-Spin Energy  =      -1.5489495417781278 [Eh]
	 SCS Correlation Energy    =      -1.6866398591400071 [Eh]
	 SCS Total Energy          =    -380.4137798506386616 [Eh]
	-----------------------------------------------------------

  Dipole Moment: [D]
     X:     1.3996      Y:     0.6865      Z:    -0.0000     Total:     1.5589

*** Psi4 exiting successfully. Buy a developer a beer!
