                               Psi4 1.4a3.dev225

  ==> Input File <==

--------------------------------------------------------------------------
#psi4
#
memory 32 gb

molecule  {
0 1
  N        0.2222710     1.0128310     0.0000010
  N        0.7926860    -1.3208380    -0.0000020
  C       -1.5206760    -0.6557300    -0.0000030
  C       -2.4976210     0.2265170     0.7463830
  C       -2.4976210     0.2265190    -0.7463820
  C       -0.0883020    -0.2997600     0.0000010
  C        1.5276990     1.3180910     0.0000010
  C        2.0920280    -0.9819740     0.0000030
  C        2.5210310     0.3421130     0.0000010
  H       -1.7051520    -1.7251160     0.0000010
  H       -2.0735420     1.0920370     1.2438350
  H       -3.3111280    -0.2648640     1.2701610
  H       -3.3111290    -0.2648490    -1.2701700
  H       -2.0735380     1.0920430    -1.2438240
  H        1.7737980     2.3789750    -0.0000070
  H        2.8018760    -1.8077390    -0.0000100
  H        3.5943099     0.6056787    -0.0000031
units angstrom
no_reorient  #important for SAPT in psi4, default
symmetry c1  #important for SAPT in psi4, default
}

set PROPERTIES_ORIGIN ["COM"]
properties('MP2/aug-cc-pvtz', properties = ['dipole'])
--------------------------------------------------------------------------

    Molecular point group: c1
  Charge       = 0
  Multiplicity = 1
  Basis Set: AUG-CC-PVTZ
    Blend: AUG-CC-PVTZ
  Basis Set: (AUG-CC-PVTZ AUX)
    Blend: AUG-CC-PVTZ-JKFIT

    Orbital Energies [Eh]
    ---------------------

    Doubly Occupied:

       1A    -15.566952     2A    -15.566888     3A    -11.319960
       4A    -11.299115     5A    -11.297773     6A    -11.244195
       7A    -11.234124     8A    -11.228649     9A    -11.227966
      10A     -1.305388    11A     -1.186930    12A     -1.149080
      13A     -1.063767    14A     -0.910853    15A     -0.890517
      16A     -0.821189    17A     -0.802567    18A     -0.717849
      19A     -0.697925    20A     -0.654762    21A     -0.633054
      22A     -0.606516    23A     -0.587632    24A     -0.577156
      25A     -0.527266    26A     -0.514246    27A     -0.476865
      28A     -0.441446    29A     -0.427216    30A     -0.417948
      31A     -0.407927    32A     -0.348279

  @DF-RHF Final Energy:  -378.72950615667719

   => Energetics <=

    Nuclear Repulsion Energy =            413.2970784387152889
    One-Electron Energy =               -1331.7491702558634188
    Two-Electron Energy =                 539.7225856604709406
    Total Energy =                       -378.7295061566771892
  Basis Set: (AUG-CC-PVTZ AUX)
    Blend: AUG-CC-PVTZ-RI
    Molecular point group: c1

    Geometry (in Angstrom), charge = 0, multiplicity = 1:

       Center              X                  Y                   Z               Mass
    ------------   -----------------  -----------------  -----------------  -----------------
         N            0.186351694990     1.021900065418     0.000000860387    14.003074004430
         N            0.756766694990    -1.311768934582    -0.000002139613    14.003074004430
         C           -1.556595305010    -0.646660934582    -0.000003139613    12.000000000000
         C           -2.533540305010     0.235586065418     0.746382860387    12.000000000000
         C           -2.533540305010     0.235588065418    -0.746382139613    12.000000000000
         C           -0.124221305010    -0.290690934582     0.000000860387    12.000000000000
         C            1.491779694990     1.327160065418     0.000000860387    12.000000000000
         C            2.056108694990    -0.972904934582     0.000002860387    12.000000000000
         C            2.485111694990     0.351182065418     0.000000860387    12.000000000000
         H           -1.741071305010    -1.716046934582     0.000000860387     1.007825032230
         H           -2.109461305010     1.101106065418     1.243834860387     1.007825032230
         H           -3.347047305010    -0.255794934582     1.270160860387     1.007825032230
         H           -3.347048305010    -0.255779934582    -1.270170139613     1.007825032230
         H           -2.109457305010     1.101112065418    -1.243824139613     1.007825032230
         H            1.737878694990     2.388044065418    -0.000007139613     1.007825032230
         H            2.765956694990    -1.798669934582    -0.000010139613     1.007825032230
         H            3.558390594990     0.614747765418    -0.000003239613     1.007825032230

  Basis Set: AUG-CC-PVTZ
    Blend: AUG-CC-PVTZ
  Basis Set: (AUG-CC-PVTZ AUX)
    Blend: AUG-CC-PVTZ-JKFIT
	 Reference Energy          =    -378.7295061566771892 [Eh]
	 Singles Energy            =      -0.0000000000000000 [Eh]
	 Same-Spin Energy          =      -0.4132932001301661 [Eh]
	 Opposite-Spin Energy      =      -1.2908440291186432 [Eh]
	 Correlation Energy        =      -1.7041372292488093 [Eh]
	 Total Energy              =    -380.4336433859260183 [Eh]

	 ================> DF-SCS-MP2 Energies <==================
	-----------------------------------------------------------
	 SCS Same-Spin Scale       =       0.3333333333333333 [-]
	 SCS Opposite-Spin Scale   =       1.2000000000000000 [-]
	 SCS Same-Spin Energy      =      -0.1377644000433887 [Eh]
	 SCS Opposite-Spin Energy  =      -1.5490128349423717 [Eh]
	 SCS Correlation Energy    =      -1.6867772349857604 [Eh]
	 SCS Total Energy          =    -380.4162833916629438 [Eh]
	-----------------------------------------------------------

  Dipole Moment: [D]
     X:     1.4252      Y:     0.6079      Z:    -0.0000     Total:     1.5494

*** Psi4 exiting successfully. Buy a developer a beer!
