                               Psi4 1.3.2 release

  ==> Input File <==

--------------------------------------------------------------------------
#psi4
#
memory 32 gb

molecule  {
0 1
  N        0.2222710     1.0128310     0.0000010
  N        0.7926860    -1.3208380    -0.0000020
  C       -1.5206760    -0.6557300    -0.0000030
  C       -2.4976210     0.2265170     0.7463830
  C       -2.4976210     0.2265190    -0.7463820
  C       -0.0589397    -0.4514339     0.0000018
  C        1.5276990     1.3180910     0.0000010
  C        2.0920280    -0.9819740     0.0000030
  C        2.5210310     0.3421130     0.0000010
  H       -1.7051520    -1.7251160     0.0000010
  H       -2.0735420     1.0920370     1.2438350
  H       -3.3111280    -0.2648640     1.2701610
  H       -3.3111290    -0.2648490    -1.2701700
  H       -2.0735380     1.0920430    -1.2438240
  H        1.7737980     2.3789750    -0.0000070
  H        2.8018760    -1.8077390    -0.0000100
  H        3.5748870     0.6009090    -0.0000030
units angstrom
no_reorient  #important for SAPT in psi4, default
symmetry c1  #important for SAPT in psi4, default
}

set PROPERTIES_ORIGIN ["COM"]
properties('MP2/aug-cc-pvtz', properties = ['dipole'])
--------------------------------------------------------------------------

    Molecular point group: c1
  Charge       = 0
  Multiplicity = 1
  Basis Set: AUG-CC-PVTZ
    Blend: AUG-CC-PVTZ
  Basis Set: (AUG-CC-PVTZ AUX)
    Blend: AUG-CC-PVTZ-JKFIT

    Orbital Energies [Eh]
    ---------------------

    Doubly Occupied:

       1A    -15.569638     2A    -15.559408     3A    -11.315435
       4A    -11.299999     5A    -11.293742     6A    -11.244028
       7A    -11.233496     8A    -11.229035     9A    -11.228361
      10A     -1.319998    11A     -1.182997    12A     -1.146454
      13A     -1.064525    14A     -0.920094    15A     -0.883416
      16A     -0.820249    17A     -0.804722    18A     -0.710582
      19A     -0.708502    20A     -0.645819    21A     -0.641152
      22A     -0.607127    23A     -0.588240    24A     -0.582552
      25A     -0.522090    26A     -0.513844    27A     -0.475116
      28A     -0.445422    29A     -0.434158    30A     -0.418359
      31A     -0.392682    32A     -0.346951

  @DF-RHF Final Energy:  -378.70296572093474

   => Energetics <=

    Nuclear Repulsion Energy =            413.1186778977244671
    One-Electron Energy =               -1331.3469069438872339
    Two-Electron Energy =                 539.5252633252280248
    Total Energy =                       -378.7029657209347988
  Basis Set: (AUG-CC-PVTZ AUX)
    Blend: AUG-CC-PVTZ-RI
    Molecular point group: c1

    Geometry (in Angstrom), charge = 0, multiplicity = 1:

       Center              X                  Y                   Z               Mass
    ------------   -----------------  -----------------  -----------------  -----------------
         N            0.183580176839     1.037098806550     0.000000779594    14.003074004430
         N            0.753995176839    -1.296570193450    -0.000002220406    14.003074004430
         C           -1.559366823161    -0.631462193450    -0.000003220406    12.000000000000
         C           -2.536311823161     0.250784806550     0.746382779594    12.000000000000
         C           -2.536311823161     0.250786806550    -0.746382220406    12.000000000000
         C           -0.097630523161    -0.427166093450     0.000001579594    12.000000000000
         C            1.489008176839     1.342358806550     0.000000779594    12.000000000000
         C            2.053337176839    -0.957706193450     0.000002779594    12.000000000000
         C            2.482340176839     0.366380806550     0.000000779594    12.000000000000
         H           -1.743842823161    -1.700848193450     0.000000779594     1.007825032230
         H           -2.112232823161     1.116304806550     1.243834779594     1.007825032230
         H           -3.349818823161    -0.240596193450     1.270160779594     1.007825032230
         H           -3.349819823161    -0.240581193450    -1.270170220406     1.007825032230
         H           -2.112228823161     1.116310806550    -1.243824220406     1.007825032230
         H            1.735107176839     2.403242806550    -0.000007220406     1.007825032230
         H            2.763185176839    -1.783471193450    -0.000010220406     1.007825032230
         H            3.536196176839     0.625176806550    -0.000003220406     1.007825032230

  Basis Set: AUG-CC-PVTZ
    Blend: AUG-CC-PVTZ
  Basis Set: (AUG-CC-PVTZ AUX)
    Blend: AUG-CC-PVTZ-JKFIT
	 Reference Energy          =    -378.7029657209347420 [Eh]
	 Singles Energy            =      -0.0000000000000000 [Eh]
	 Same-Spin Energy          =      -0.4125913111260714 [Eh]
	 Opposite-Spin Energy      =      -1.2921908087733778 [Eh]
	 Correlation Energy        =      -1.7047821198994493 [Eh]
	 Total Energy              =    -380.4077478408341904 [Eh]

	 ================> DF-SCS-MP2 Energies <==================
	-----------------------------------------------------------
	 SCS Same-Spin Scale       =       0.3333333333333333 [-]
	 SCS Opposite-Spin Scale   =       1.2000000000000000 [-]
	 SCS Same-Spin Energy      =      -0.1375304370420238 [Eh]
	 SCS Opposite-Spin Energy  =      -1.5506289705280534 [Eh]
	 SCS Correlation Energy    =      -1.6881594075700772 [Eh]
	 SCS Total Energy          =    -380.3911251285048252 [Eh]
	-----------------------------------------------------------

  Dipole Moment: [D]
     X:     1.4179      Y:     0.4756      Z:    -0.0000     Total:     1.4955

*** Psi4 exiting successfully. Buy a developer a beer!
