                               Psi4 1.3.2 release

  ==> Input File <==

--------------------------------------------------------------------------
#psi4
#
memory 32 gb

molecule  {
0 1
  N        0.2222710     1.0128310     0.0000010
  N        0.7926860    -1.3208380    -0.0000020
  C       -1.5206760    -0.6557300    -0.0000030
  C       -2.4976210     0.2265170     0.7463830
  C       -2.4976210     0.2265190    -0.7463820
  C       -0.0883020    -0.2997600     0.0000010
  C        1.4311231     1.2089130     0.0000012
  C        2.0920280    -0.9819740     0.0000030
  C        2.5210310     0.3421130     0.0000010
  H       -1.7051520    -1.7251160     0.0000010
  H       -2.0735420     1.0920370     1.2438350
  H       -3.3111280    -0.2648640     1.2701610
  H       -3.3111290    -0.2648490    -1.2701700
  H       -2.0735380     1.0920430    -1.2438240
  H        1.7737980     2.3789750    -0.0000070
  H        2.8018760    -1.8077390    -0.0000100
  H        3.5748870     0.6009090    -0.0000030
units angstrom
no_reorient  #important for SAPT in psi4, default
symmetry c1  #important for SAPT in psi4, default
}

set PROPERTIES_ORIGIN ["COM"]
properties('MP2/aug-cc-pvtz', properties = ['dipole'])
--------------------------------------------------------------------------

    Molecular point group: c1
  Charge       = 0
  Multiplicity = 1
  Basis Set: AUG-CC-PVTZ
    Blend: AUG-CC-PVTZ
  Basis Set: (AUG-CC-PVTZ AUX)
    Blend: AUG-CC-PVTZ-JKFIT

    Orbital Energies [Eh]
    ---------------------

    Doubly Occupied:

       1A    -15.566494     2A    -15.563870     3A    -11.326142
       4A    -11.295859     5A    -11.294726     6A    -11.239306
       7A    -11.237382     8A    -11.232492     9A    -11.231812
      10A     -1.336101    11A     -1.210582    12A     -1.154654
      13A     -1.063896    14A     -0.923687    15A     -0.878853
      16A     -0.824945    17A     -0.808747    18A     -0.714539
      19A     -0.708855    20A     -0.658583    21A     -0.641393
      22A     -0.602169    23A     -0.594945    24A     -0.565929
      25A     -0.520807    26A     -0.518106    27A     -0.489133
      28A     -0.448621    29A     -0.434527    30A     -0.430900
      31A     -0.399696    32A     -0.346865

  @DF-RHF Final Energy:  -378.70576911358597

   => Energetics <=

    Nuclear Repulsion Energy =            416.4537483129482212
    One-Electron Energy =               -1337.7898039172659992
    Two-Electron Energy =                 542.6302864907319190
    Total Energy =                       -378.7057691135859159
  Basis Set: (AUG-CC-PVTZ AUX)
    Blend: AUG-CC-PVTZ-RI
    Molecular point group: c1

    Geometry (in Angstrom), charge = 0, multiplicity = 1:

       Center              X                  Y                   Z               Mass
    ------------   -----------------  -----------------  -----------------  -----------------
         N            0.196166785943     1.032851649756     0.000000839559    14.003074004430
         N            0.766581785943    -1.300817350244    -0.000002160441    14.003074004430
         C           -1.546780214057    -0.635709350244    -0.000003160441    12.000000000000
         C           -2.523725214057     0.246537649756     0.746382839559    12.000000000000
         C           -2.523725214057     0.246539649756    -0.746382160441    12.000000000000
         C           -0.114406214057    -0.279739350244     0.000000839559    12.000000000000
         C            1.405018885943     1.228933649756     0.000001039559    12.000000000000
         C            2.065923785943    -0.961953350244     0.000002839559    12.000000000000
         C            2.494926785943     0.362133649756     0.000000839559    12.000000000000
         H           -1.731256214057    -1.705095350244     0.000000839559     1.007825032230
         H           -2.099646214057     1.112057649756     1.243834839559     1.007825032230
         H           -3.337232214057    -0.244843350244     1.270160839559     1.007825032230
         H           -3.337233214057    -0.244828350244    -1.270170160441     1.007825032230
         H           -2.099642214057     1.112063649756    -1.243824160441     1.007825032230
         H            1.747693785943     2.398995649756    -0.000007160441     1.007825032230
         H            2.775771785943    -1.787718350244    -0.000010160441     1.007825032230
         H            3.548782785943     0.620929649756    -0.000003160441     1.007825032230

  Basis Set: AUG-CC-PVTZ
    Blend: AUG-CC-PVTZ
  Basis Set: (AUG-CC-PVTZ AUX)
    Blend: AUG-CC-PVTZ-JKFIT
	 Reference Energy          =    -378.7057691135859727 [Eh]
	 Singles Energy            =      -0.0000000000000000 [Eh]
	 Same-Spin Energy          =      -0.4124773125431795 [Eh]
	 Opposite-Spin Energy      =      -1.2890900927700992 [Eh]
	 Correlation Energy        =      -1.7015674053132788 [Eh]
	 Total Energy              =    -380.4073365188992284 [Eh]

	 ================> DF-SCS-MP2 Energies <==================
	-----------------------------------------------------------
	 SCS Same-Spin Scale       =       0.3333333333333333 [-]
	 SCS Opposite-Spin Scale   =       1.2000000000000000 [-]
	 SCS Same-Spin Energy      =      -0.1374924375143932 [Eh]
	 SCS Opposite-Spin Energy  =      -1.5469081113241190 [Eh]
	 SCS Correlation Energy    =      -1.6844005488385121 [Eh]
	 SCS Total Energy          =    -380.3901696624245119 [Eh]
	-----------------------------------------------------------

  Dipole Moment: [D]
     X:     1.1366      Y:     0.3366      Z:    -0.0000     Total:     1.1854

*** Psi4 exiting successfully. Buy a developer a beer!
