                               Psi4 1.3.2 release

  ==> Input File <==

--------------------------------------------------------------------------
#psi4
#
memory 32 gb

molecule  {
0 1
  N        0.2222710     1.0128310     0.0000010
  N        0.7926860    -1.3208380    -0.0000020
  C       -1.5206760    -0.6557300    -0.0000030
  C       -2.4976210     0.2265170     0.7463830
  C       -2.4976210     0.2265190    -0.7463820
  C       -0.1343526    -0.4943862     0.0000010
  C        1.5276990     1.3180910     0.0000010
  C        2.0920280    -0.9819740     0.0000030
  C        2.5210310     0.3421130     0.0000010
  H       -1.7051520    -1.7251160     0.0000010
  H       -2.0735420     1.0920370     1.2438350
  H       -3.3111280    -0.2648640     1.2701610
  H       -3.3111290    -0.2648490    -1.2701700
  H       -2.0735380     1.0920430    -1.2438240
  H        1.7737980     2.3789750    -0.0000070
  H        2.8018760    -1.8077390    -0.0000100
  H        3.5748870     0.6009090    -0.0000030
units angstrom
no_reorient  #important for SAPT in psi4, default
symmetry c1  #important for SAPT in psi4, default
}

set PROPERTIES_ORIGIN ["COM"]
properties('MP2/aug-cc-pvtz', properties = ['dipole'])
--------------------------------------------------------------------------

    Molecular point group: c1
  Charge       = 0
  Multiplicity = 1
  Basis Set: AUG-CC-PVTZ
    Blend: AUG-CC-PVTZ
  Basis Set: (AUG-CC-PVTZ AUX)
    Blend: AUG-CC-PVTZ-JKFIT

    Orbital Energies [Eh]
    ---------------------

    Doubly Occupied:

       1A    -15.565295     2A    -15.558711     3A    -11.321571
       4A    -11.295921     5A    -11.288136     6A    -11.240239
       7A    -11.237202     8A    -11.236311     9A    -11.235760
      10A     -1.303717    11A     -1.170243    12A     -1.156446
      13A     -1.060738    14A     -0.932453    15A     -0.880930
      16A     -0.827143    17A     -0.806195    18A     -0.712324
      19A     -0.704960    20A     -0.650770    21A     -0.641985
      22A     -0.605600    23A     -0.584330    24A     -0.574731
      25A     -0.527566    26A     -0.519631    27A     -0.475006
      28A     -0.453318    29A     -0.441372    30A     -0.413689
      31A     -0.376812    32A     -0.337329

  @DF-RHF Final Energy:  -378.68741365605257

   => Energetics <=

    Nuclear Repulsion Energy =            412.6071902678228298
    One-Electron Energy =               -1330.3163354112557499
    Two-Electron Energy =                 539.0217314873802934
    Total Energy =                       -378.6874136560526267
  Basis Set: (AUG-CC-PVTZ AUX)
    Blend: AUG-CC-PVTZ-RI
    Molecular point group: c1

    Geometry (in Angstrom), charge = 0, multiplicity = 1:

       Center              X                  Y                   Z               Mass
    ------------   -----------------  -----------------  -----------------  -----------------
         N            0.191117148891     1.041391577213     0.000000859548    14.003074004430
         N            0.761532148891    -1.292277422787    -0.000002140452    14.003074004430
         C           -1.551829851109    -0.627169422787    -0.000003140452    12.000000000000
         C           -2.528774851109     0.255077577213     0.746382859548    12.000000000000
         C           -2.528774851109     0.255079577213    -0.746382140452    12.000000000000
         C           -0.165506451109    -0.465825622787     0.000000859548    12.000000000000
         C            1.496545148891     1.346651577213     0.000000859548    12.000000000000
         C            2.060874148891    -0.953413422787     0.000002859548    12.000000000000
         C            2.489877148891     0.370673577213     0.000000859548    12.000000000000
         H           -1.736305851109    -1.696555422787     0.000000859548     1.007825032230
         H           -2.104695851109     1.120597577213     1.243834859548     1.007825032230
         H           -3.342281851109    -0.236303422787     1.270160859548     1.007825032230
         H           -3.342282851109    -0.236288422787    -1.270170140452     1.007825032230
         H           -2.104691851109     1.120603577213    -1.243824140452     1.007825032230
         H            1.742644148891     2.407535577213    -0.000007140452     1.007825032230
         H            2.770722148891    -1.779178422787    -0.000010140452     1.007825032230
         H            3.543733148891     0.629469577213    -0.000003140452     1.007825032230

  Basis Set: AUG-CC-PVTZ
    Blend: AUG-CC-PVTZ
  Basis Set: (AUG-CC-PVTZ AUX)
    Blend: AUG-CC-PVTZ-JKFIT
	 Reference Energy          =    -378.6874136560525699 [Eh]
	 Singles Energy            =      -0.0000000000000000 [Eh]
	 Same-Spin Energy          =      -0.4145165674892873 [Eh]
	 Opposite-Spin Energy      =      -1.2958803804520844 [Eh]
	 Correlation Energy        =      -1.7103969479413719 [Eh]
	 Total Energy              =    -380.3978106039939462 [Eh]

	 ================> DF-SCS-MP2 Energies <==================
	-----------------------------------------------------------
	 SCS Same-Spin Scale       =       0.3333333333333333 [-]
	 SCS Opposite-Spin Scale   =       1.2000000000000000 [-]
	 SCS Same-Spin Energy      =      -0.1381721891630958 [Eh]
	 SCS Opposite-Spin Energy  =      -1.5550564565425014 [Eh]
	 SCS Correlation Energy    =      -1.6932286457055972 [Eh]
	 SCS Total Energy          =    -380.3806423017581437 [Eh]
	-----------------------------------------------------------

  Dipole Moment: [D]
     X:     0.8319      Y:     0.3992      Z:    -0.0000     Total:     0.9227

*** Psi4 exiting successfully. Buy a developer a beer!
