                               Psi4 1.4a3.dev225

  ==> Input File <==

--------------------------------------------------------------------------
#psi4
#
memory 32 gb

molecule  {
0 1
  N        0.2222710     1.0128310     0.0000010
  N        0.7926860    -1.3208380    -0.0000020
  C       -1.5206760    -0.6557300    -0.0000030
  C       -2.4976210     0.2265170     0.7463830
  C       -2.4976210     0.2265190    -0.7463820
  C       -0.0883020    -0.2997600     0.0000010
  C        1.5276990     1.3180910     0.0000010
  C        2.0920280    -0.9819740     0.0000030
  C        2.5210310     0.3421130     0.0000010
  H       -1.7051520    -1.7251160     0.0000010
  H       -2.0735420     1.0920370     1.2438350
  H       -3.3111280    -0.2648640     1.2701610
  H       -3.3111290    -0.2648490    -1.2701700
  H       -2.0735380     1.0920430    -1.2438240
  H        1.7737980     2.3789750    -0.0000070
  H        2.8018760    -1.8077390    -0.0000100
  H        3.6234443     0.6128332    -0.0000032
units angstrom
no_reorient  #important for SAPT in psi4, default
symmetry c1  #important for SAPT in psi4, default
}

set PROPERTIES_ORIGIN ["COM"]
properties('MP2/aug-cc-pvtz', properties = ['dipole'])
--------------------------------------------------------------------------

    Molecular point group: c1
  Charge       = 0
  Multiplicity = 1
  Basis Set: AUG-CC-PVTZ
    Blend: AUG-CC-PVTZ
  Basis Set: (AUG-CC-PVTZ AUX)
    Blend: AUG-CC-PVTZ-JKFIT

    Orbital Energies [Eh]
    ---------------------

    Doubly Occupied:

       1A    -15.567183     2A    -15.567118     3A    -11.320105
       4A    -11.299390     5A    -11.298046     6A    -11.247519
       7A    -11.234218     8A    -11.228727     9A    -11.228043
      10A     -1.305592    11A     -1.187138    12A     -1.149145
      13A     -1.063007    14A     -0.910007    15A     -0.890615
      16A     -0.821265    17A     -0.802441    18A     -0.717548
      19A     -0.697517    20A     -0.652941    21A     -0.629872
      22A     -0.605117    23A     -0.587857    24A     -0.577353
      25A     -0.527352    26A     -0.514327    27A     -0.476199
      28A     -0.441564    29A     -0.427267    30A     -0.418142
      31A     -0.408104    32A     -0.348411

  @DF-RHF Final Energy:  -378.72766678144308

   => Energetics <=

    Nuclear Repulsion Energy =            413.1506433310088937
    One-Electron Energy =               -1331.4583598117565089
    Two-Electron Energy =                 539.5800496993044817
    Total Energy =                       -378.7276667814430766
  Basis Set: (AUG-CC-PVTZ AUX)
    Blend: AUG-CC-PVTZ-RI
    Molecular point group: c1

    Geometry (in Angstrom), charge = 0, multiplicity = 1:

       Center              X                  Y                   Z               Mass
    ------------   -----------------  -----------------  -----------------  -----------------
         N            0.186107148611     1.021840012454     0.000000861227    14.003074004430
         N            0.756522148611    -1.311828987546    -0.000002138773    14.003074004430
         C           -1.556839851389    -0.646720987546    -0.000003138773    12.000000000000
         C           -2.533784851389     0.235526012454     0.746382861227    12.000000000000
         C           -2.533784851389     0.235528012454    -0.746382138773    12.000000000000
         C           -0.124465851389    -0.290750987546     0.000000861227    12.000000000000
         C            1.491535148611     1.327100012454     0.000000861227    12.000000000000
         C            2.055864148611    -0.972964987546     0.000002861227    12.000000000000
         C            2.484867148611     0.351122012454     0.000000861227    12.000000000000
         H           -1.741315851389    -1.716106987546     0.000000861227     1.007825032230
         H           -2.109705851389     1.101046012454     1.243834861227     1.007825032230
         H           -3.347291851389    -0.255854987546     1.270160861227     1.007825032230
         H           -3.347292851389    -0.255839987546    -1.270170138773     1.007825032230
         H           -2.109701851389     1.101052012454    -1.243824138773     1.007825032230
         H            1.737634148611     2.387984012454    -0.000007138773     1.007825032230
         H            2.765712148611    -1.798729987546    -0.000010138773     1.007825032230
         H            3.587280448611     0.621842212454    -0.000003338773     1.007825032230

  Basis Set: AUG-CC-PVTZ
    Blend: AUG-CC-PVTZ
  Basis Set: (AUG-CC-PVTZ AUX)
    Blend: AUG-CC-PVTZ-JKFIT
	 Reference Energy          =    -378.7276667814430766 [Eh]
	 Singles Energy            =      -0.0000000000000000 [Eh]
	 Same-Spin Energy          =      -0.4133563004858070 [Eh]
	 Opposite-Spin Energy      =      -1.2910860943235287 [Eh]
	 Correlation Energy        =      -1.7044423948093357 [Eh]
	 Total Energy              =    -380.4321091762524247 [Eh]

	 ================> DF-SCS-MP2 Energies <==================
	-----------------------------------------------------------
	 SCS Same-Spin Scale       =       0.3333333333333333 [-]
	 SCS Opposite-Spin Scale   =       1.2000000000000000 [-]
	 SCS Same-Spin Energy      =      -0.1377854334952690 [Eh]
	 SCS Opposite-Spin Energy  =      -1.5493033131882343 [Eh]
	 SCS Correlation Energy    =      -1.6870887466835034 [Eh]
	 SCS Total Energy          =    -380.4147555281265909 [Eh]
	-----------------------------------------------------------

  Dipole Moment: [D]
     X:     1.4161      Y:     0.6058      Z:    -0.0000     Total:     1.5403

*** Psi4 exiting successfully. Buy a developer a beer!
