                               Psi4 1.4a3.dev225

  ==> Input File <==

--------------------------------------------------------------------------
#psi4
#
memory 32 gb

molecule  {
0 1
  N        0.2222710     1.0128310     0.0000010
  N        0.7926860    -1.3208380    -0.0000020
  C       -1.5206760    -0.6557300    -0.0000030
  C       -2.4976210     0.2265170     0.7463830
  C       -2.4976210     0.2265190    -0.7463820
  C       -0.0883020    -0.2997600     0.0000010
  C        1.4790124     1.3067062     0.0000010
  C        2.0920280    -0.9819740     0.0000030
  C        2.5210310     0.3421130     0.0000010
  H       -1.7051520    -1.7251160     0.0000010
  H       -2.0735420     1.0920370     1.2438350
  H       -3.3111280    -0.2648640     1.2701610
  H       -3.3111290    -0.2648490    -1.2701700
  H       -2.0735380     1.0920430    -1.2438240
  H        1.7737980     2.3789750    -0.0000070
  H        2.8018760    -1.8077390    -0.0000100
  H        3.5748870     0.6009090    -0.0000030
units angstrom
no_reorient  #important for SAPT in psi4, default
symmetry c1  #important for SAPT in psi4, default
}

set PROPERTIES_ORIGIN ["COM"]
properties('MP2/aug-cc-pvtz', properties = ['dipole'])
--------------------------------------------------------------------------

    Molecular point group: c1
  Charge       = 0
  Multiplicity = 1
  Basis Set: AUG-CC-PVTZ
    Blend: AUG-CC-PVTZ
  Basis Set: (AUG-CC-PVTZ AUX)
    Blend: AUG-CC-PVTZ-JKFIT

    Orbital Energies [Eh]
    ---------------------

    Doubly Occupied:

       1A    -15.565908     2A    -15.565604     3A    -11.322187
       4A    -11.299076     5A    -11.294505     6A    -11.242130
       7A    -11.235263     8A    -11.229877     9A    -11.229194
      10A     -1.313799    11A     -1.196541    12A     -1.150934
      13A     -1.059228    14A     -0.914276    15A     -0.886691
      16A     -0.822421    17A     -0.804797    18A     -0.718586
      19A     -0.699412    20A     -0.656416    21A     -0.636928
      22A     -0.605774    23A     -0.583498    24A     -0.581558
      25A     -0.527321    26A     -0.515398    27A     -0.480274
      28A     -0.441957    29A     -0.428270    30A     -0.425625
      31A     -0.405171    32A     -0.344452

  @DF-RHF Final Energy:  -378.72883035025859

   => Energetics <=

    Nuclear Repulsion Energy =            414.1228784826547553
    One-Electron Energy =               -1333.3372752452373788
    Two-Electron Energy =                 540.4855664123240331
    Total Energy =                       -378.7288303502585904
  Basis Set: (AUG-CC-PVTZ AUX)
    Blend: AUG-CC-PVTZ-RI
    Molecular point group: c1

    Geometry (in Angstrom), charge = 0, multiplicity = 1:

       Center              X                  Y                   Z               Mass
    ------------   -----------------  -----------------  -----------------  -----------------
         N            0.191380597960     1.023077929142     0.000000859548    14.003074004430
         N            0.761795597960    -1.310591070858    -0.000002140452    14.003074004430
         C           -1.551566402040    -0.645483070858    -0.000003140452    12.000000000000
         C           -2.528511402040     0.236763929142     0.746382859548    12.000000000000
         C           -2.528511402040     0.236765929142    -0.746382140452    12.000000000000
         C           -0.119192402040    -0.289513070858     0.000000859548    12.000000000000
         C            1.448121997960     1.316953129142     0.000000859548    12.000000000000
         C            2.061137597960    -0.971727070858     0.000002859548    12.000000000000
         C            2.490140597960     0.352359929142     0.000000859548    12.000000000000
         H           -1.736042402040    -1.714869070858     0.000000859548     1.007825032230
         H           -2.104432402040     1.102283929142     1.243834859548     1.007825032230
         H           -3.342018402040    -0.254617070858     1.270160859548     1.007825032230
         H           -3.342019402040    -0.254602070858    -1.270170140452     1.007825032230
         H           -2.104428402040     1.102289929142    -1.243824140452     1.007825032230
         H            1.742907597960     2.389221929142    -0.000007140452     1.007825032230
         H            2.770985597960    -1.797492070858    -0.000010140452     1.007825032230
         H            3.543996597960     0.611155929142    -0.000003140452     1.007825032230

  Basis Set: AUG-CC-PVTZ
    Blend: AUG-CC-PVTZ
  Basis Set: (AUG-CC-PVTZ AUX)
    Blend: AUG-CC-PVTZ-JKFIT
	 Reference Energy          =    -378.7288303502585904 [Eh]
	 Singles Energy            =      -0.0000000000000000 [Eh]
	 Same-Spin Energy          =      -0.4127896006172357 [Eh]
	 Opposite-Spin Energy      =      -1.2897016377860409 [Eh]
	 Correlation Energy        =      -1.7024912384032764 [Eh]
	 Total Energy              =    -380.4313215886618877 [Eh]

	 ================> DF-SCS-MP2 Energies <==================
	-----------------------------------------------------------
	 SCS Same-Spin Scale       =       0.3333333333333333 [-]
	 SCS Opposite-Spin Scale   =       1.2000000000000000 [-]
	 SCS Same-Spin Energy      =      -0.1375965335390786 [Eh]
	 SCS Opposite-Spin Energy  =      -1.5476419653432489 [Eh]
	 SCS Correlation Energy    =      -1.6852384988823275 [Eh]
	 SCS Total Energy          =    -380.4140688491409037 [Eh]
	-----------------------------------------------------------

  Dipole Moment: [D]
     X:     1.3325      Y:     0.6114      Z:    -0.0000     Total:     1.4661

*** Psi4 exiting successfully. Buy a developer a beer!
