                               Psi4 1.3.2 release

  ==> Input File <==

--------------------------------------------------------------------------
#psi4
#
memory 32 gb

molecule  {
0 1
  N        0.2222710     1.0128310     0.0000010
  N        0.7926860    -1.3208380    -0.0000020
  C       -1.5206760    -0.6557300    -0.0000030
  C       -2.4976210     0.2265170     0.7463830
  C       -2.4976210     0.2265190    -0.7463820
  C       -0.0422514    -0.1051338     0.0000010
  C        1.5276990     1.3180910     0.0000010
  C        2.0920280    -0.9819740     0.0000030
  C        2.5210310     0.3421130     0.0000010
  H       -1.7051520    -1.7251160     0.0000010
  H       -2.0735420     1.0920370     1.2438350
  H       -3.3111280    -0.2648640     1.2701610
  H       -3.3111290    -0.2648490    -1.2701700
  H       -2.0735380     1.0920430    -1.2438240
  H        1.7737980     2.3789750    -0.0000070
  H        2.8018760    -1.8077390    -0.0000100
  H        3.5748870     0.6009090    -0.0000030
units angstrom
no_reorient  #important for SAPT in psi4, default
symmetry c1  #important for SAPT in psi4, default
}

set PROPERTIES_ORIGIN ["COM"]
properties('MP2/aug-cc-pvtz', properties = ['dipole'])
--------------------------------------------------------------------------

    Molecular point group: c1
  Charge       = 0
  Multiplicity = 1
  Basis Set: AUG-CC-PVTZ
    Blend: AUG-CC-PVTZ
  Basis Set: (AUG-CC-PVTZ AUX)
    Blend: AUG-CC-PVTZ-JKFIT

    Orbital Energies [Eh]
    ---------------------

    Doubly Occupied:

       1A    -15.574608     2A    -15.558220     3A    -11.307577
       4A    -11.306945     5A    -11.296816     6A    -11.249175
       7A    -11.230089     8A    -11.219803     9A    -11.219103
      10A     -1.353922    11A     -1.196687    12A     -1.138242
      13A     -1.068395    14A     -0.917602    15A     -0.882431
      16A     -0.814259    17A     -0.792184    18A     -0.729159
      19A     -0.693139    20A     -0.662163    21A     -0.630273
      22A     -0.601779    23A     -0.597489    24A     -0.594029
      25A     -0.529195    26A     -0.508377    27A     -0.476951
      28A     -0.442915    29A     -0.421357    30A     -0.419082
      31A     -0.395182    32A     -0.355446

  @DF-RHF Final Energy:  -378.67305441201341

   => Energetics <=

    Nuclear Repulsion Energy =            414.7539272457860307
    One-Electron Energy =               -1334.4887755391691826
    Two-Electron Energy =                 541.0617938813697947
    Total Energy =                       -378.6730544120133573
  Basis Set: (AUG-CC-PVTZ AUX)
    Blend: AUG-CC-PVTZ-RI
    Molecular point group: c1

    Geometry (in Angstrom), charge = 0, multiplicity = 1:

       Center              X                  Y                   Z               Mass
    ------------   -----------------  -----------------  -----------------  -----------------
         N            0.181912302368     1.002488624800     0.000000859548    14.003074004430
         N            0.752327302368    -1.331180375200    -0.000002140452    14.003074004430
         C           -1.561034697632    -0.666072375200    -0.000003140452    12.000000000000
         C           -2.537979697632     0.216174624800     0.746382859548    12.000000000000
         C           -2.537979697632     0.216176624800    -0.746382140452    12.000000000000
         C           -0.082610097632    -0.115476175200     0.000000859548    12.000000000000
         C            1.487340302368     1.307748624800     0.000000859548    12.000000000000
         C            2.051669302368    -0.992316375200     0.000002859548    12.000000000000
         C            2.480672302368     0.331770624800     0.000000859548    12.000000000000
         H           -1.745510697632    -1.735458375200     0.000000859548     1.007825032230
         H           -2.113900697632     1.081694624800     1.243834859548     1.007825032230
         H           -3.351486697632    -0.275206375200     1.270160859548     1.007825032230
         H           -3.351487697632    -0.275191375200    -1.270170140452     1.007825032230
         H           -2.113896697632     1.081700624800    -1.243824140452     1.007825032230
         H            1.733439302368     2.368632624800    -0.000007140452     1.007825032230
         H            2.761517302368    -1.818081375200    -0.000010140452     1.007825032230
         H            3.534528302368     0.590566624800    -0.000003140452     1.007825032230

  Basis Set: AUG-CC-PVTZ
    Blend: AUG-CC-PVTZ
  Basis Set: (AUG-CC-PVTZ AUX)
    Blend: AUG-CC-PVTZ-JKFIT
	 Reference Energy          =    -378.6730544120134141 [Eh]
	 Singles Energy            =      -0.0000000000000000 [Eh]
	 Same-Spin Energy          =      -0.4118966921460642 [Eh]
	 Opposite-Spin Energy      =      -1.2916014436392620 [Eh]
	 Correlation Energy        =      -1.7034981357853263 [Eh]
	 Total Energy              =    -380.3765525477987239 [Eh]

	 ================> DF-SCS-MP2 Energies <==================
	-----------------------------------------------------------
	 SCS Same-Spin Scale       =       0.3333333333333333 [-]
	 SCS Opposite-Spin Scale   =       1.2000000000000000 [-]
	 SCS Same-Spin Energy      =      -0.1372988973820214 [Eh]
	 SCS Opposite-Spin Energy  =      -1.5499217323671144 [Eh]
	 SCS Correlation Energy    =      -1.6872206297491359 [Eh]
	 SCS Total Energy          =    -380.3602750417625771 [Eh]
	-----------------------------------------------------------

  Dipole Moment: [D]
     X:     1.9890      Y:     0.7846      Z:    -0.0000     Total:     2.1382

*** Psi4 exiting successfully. Buy a developer a beer!
