                               Psi4 1.3.2 release

  ==> Input File <==

--------------------------------------------------------------------------
#psi4
#
memory 32 gb

molecule  {
0 1
  N        0.2222710     1.0128310     0.0000010
  N        0.7926860    -1.3208380    -0.0000020
  C       -1.5206760    -0.6557300    -0.0000030
  C       -2.4976210     0.2265170     0.7463830
  C       -2.4976210     0.2265190    -0.7463820
  C       -0.1015977    -0.2499877     0.0000007
  C        1.5276990     1.3180910     0.0000010
  C        2.0920280    -0.9819740     0.0000030
  C        2.5210310     0.3421130     0.0000010
  H       -1.7051520    -1.7251160     0.0000010
  H       -2.0735420     1.0920370     1.2438350
  H       -3.3111280    -0.2648640     1.2701610
  H       -3.3111290    -0.2648490    -1.2701700
  H       -2.0735380     1.0920430    -1.2438240
  H        1.7737980     2.3789750    -0.0000070
  H        2.8018760    -1.8077390    -0.0000100
  H        3.5748870     0.6009090    -0.0000030
units angstrom
no_reorient  #important for SAPT in psi4, default
symmetry c1  #important for SAPT in psi4, default
}

set PROPERTIES_ORIGIN ["COM"]
properties('MP2/aug-cc-pvtz', properties = ['dipole'])
--------------------------------------------------------------------------

    Molecular point group: c1
  Charge       = 0
  Multiplicity = 1
  Basis Set: AUG-CC-PVTZ
    Blend: AUG-CC-PVTZ
  Basis Set: (AUG-CC-PVTZ AUX)
    Blend: AUG-CC-PVTZ-JKFIT

    Orbital Energies [Eh]
    ---------------------

    Doubly Occupied:

       1A    -15.568534     2A    -15.564373     3A    -11.319453
       4A    -11.299931     5A    -11.296244     6A    -11.241999
       7A    -11.234450     8A    -11.228527     9A    -11.227839
      10A     -1.307407    11A     -1.185688    12A     -1.149996
      13A     -1.064091    14A     -0.909583    15A     -0.892861
      16A     -0.821530    17A     -0.801127    18A     -0.720484
      19A     -0.694702    20A     -0.660622    21A     -0.633628
      22A     -0.605329    23A     -0.587558    24A     -0.578028
      25A     -0.530027    26A     -0.514391    27A     -0.478413
      28A     -0.441615    29A     -0.424765    30A     -0.418330
      31A     -0.406869    32A     -0.347822

  @DF-RHF Final Energy:  -378.72707175821881

   => Energetics <=

    Nuclear Repulsion Energy =            413.5557098634808426
    One-Electron Energy =               -1332.2531303513744660
    Two-Electron Energy =                 539.9703487296748108
    Total Energy =                       -378.7270717582188126
  Basis Set: (AUG-CC-PVTZ AUX)
    Blend: AUG-CC-PVTZ-RI
    Molecular point group: c1

    Geometry (in Angstrom), charge = 0, multiplicity = 1:

       Center              X                  Y                   Z               Mass
    ------------   -----------------  -----------------  -----------------  -----------------
         N            0.187843534352     1.016965720840     0.000000889531    14.003074004430
         N            0.758258534352    -1.316703279160    -0.000002110469    14.003074004430
         C           -1.555103465648    -0.651595279160    -0.000003110469    12.000000000000
         C           -2.532048465648     0.230651720840     0.746382889531    12.000000000000
         C           -2.532048465648     0.230653720840    -0.746382110469    12.000000000000
         C           -0.136025165648    -0.245852979160     0.000000589531    12.000000000000
         C            1.493271534352     1.322225720840     0.000000889531    12.000000000000
         C            2.057600534352    -0.977839279160     0.000002889531    12.000000000000
         C            2.486603534352     0.346247720840     0.000000889531    12.000000000000
         H           -1.739579465648    -1.720981279160     0.000000889531     1.007825032230
         H           -2.107969465648     1.096171720840     1.243834889531     1.007825032230
         H           -3.345555465648    -0.260729279160     1.270160889531     1.007825032230
         H           -3.345556465648    -0.260714279160    -1.270170110469     1.007825032230
         H           -2.107965465648     1.096177720840    -1.243824110469     1.007825032230
         H            1.739370534352     2.383109720840    -0.000007110469     1.007825032230
         H            2.767448534352    -1.803604279160    -0.000010110469     1.007825032230
         H            3.540459534352     0.605043720840    -0.000003110469     1.007825032230

  Basis Set: AUG-CC-PVTZ
    Blend: AUG-CC-PVTZ
  Basis Set: (AUG-CC-PVTZ AUX)
    Blend: AUG-CC-PVTZ-JKFIT
	 Reference Energy          =    -378.7270717582188126 [Eh]
	 Singles Energy            =      -0.0000000000000000 [Eh]
	 Same-Spin Energy          =      -0.4133173614409096 [Eh]
	 Opposite-Spin Energy      =      -1.2909910300998086 [Eh]
	 Correlation Energy        =      -1.7043083915407182 [Eh]
	 Total Energy              =    -380.4313801497595477 [Eh]

	 ================> DF-SCS-MP2 Energies <==================
	-----------------------------------------------------------
	 SCS Same-Spin Scale       =       0.3333333333333333 [-]
	 SCS Opposite-Spin Scale   =       1.2000000000000000 [-]
	 SCS Same-Spin Energy      =      -0.1377724538136365 [Eh]
	 SCS Opposite-Spin Energy  =      -1.5491892361197703 [Eh]
	 SCS Correlation Energy    =      -1.6869616899334068 [Eh]
	 SCS Total Energy          =    -380.4140334481522245 [Eh]
	-----------------------------------------------------------

  Dipole Moment: [D]
     X:     1.4060      Y:     0.6318      Z:    -0.0000     Total:     1.5414

*** Psi4 exiting successfully. Buy a developer a beer!
