                               Psi4 1.4a3.dev225

  ==> Input File <==

--------------------------------------------------------------------------
#psi4
#
memory 32 gb

molecule  {
0 1
  N        0.2222710     1.0128310     0.0000010
  N        0.7926860    -1.3208380    -0.0000020
  C       -1.5206760    -0.6557300    -0.0000030
  C       -2.4976210     0.2265170     0.7463830
  C       -2.4976210     0.2265190    -0.7463820
  C       -0.0883020    -0.2997600     0.0000010
  C        1.5276990     1.3180910     0.0000010
  C        2.0920280    -0.9819740     0.0000030
  C        2.5210310     0.3421130     0.0000010
  H       -1.7051520    -1.7251160     0.0000010
  H       -2.0735420     1.0920370     1.2438350
  H       -3.3111280    -0.2648640     1.2701610
  H       -3.3111290    -0.2648490    -1.2701700
  H       -2.0735380     1.0920430    -1.2438240
  H        1.7783175     2.3984577    -0.0000071
  H        2.8018760    -1.8077390    -0.0000100
  H        3.5748870     0.6009090    -0.0000030
units angstrom
no_reorient  #important for SAPT in psi4, default
symmetry c1  #important for SAPT in psi4, default
}

set PROPERTIES_ORIGIN ["COM"]
properties('MP2/aug-cc-pvtz', properties = ['dipole'])
--------------------------------------------------------------------------

    Molecular point group: c1
  Charge       = 0
  Multiplicity = 1
  Basis Set: AUG-CC-PVTZ
    Blend: AUG-CC-PVTZ
  Basis Set: (AUG-CC-PVTZ AUX)
    Blend: AUG-CC-PVTZ-JKFIT

    Orbital Energies [Eh]
    ---------------------

    Doubly Occupied:

       1A    -15.566944     2A    -15.566866     3A    -11.320047
       4A    -11.301201     5A    -11.297734     6A    -11.242124
       7A    -11.234143     8A    -11.228656     9A    -11.227972
      10A     -1.305364    11A     -1.186795    12A     -1.149061
      13A     -1.064232    14A     -0.911589    15A     -0.888983
      16A     -0.821194    17A     -0.802200    18A     -0.716725
      19A     -0.698280    20A     -0.656432    21A     -0.634979
      22A     -0.605888    23A     -0.585944    24A     -0.577159
      25A     -0.527062    26A     -0.514248    27A     -0.477398
      28A     -0.441451    29A     -0.427239    30A     -0.417938
      31A     -0.407675    32A     -0.348302

  @DF-RHF Final Energy:  -378.72950012843359

   => Energetics <=

    Nuclear Repulsion Energy =            413.2953186458757386
    One-Electron Energy =               -1331.7459932119613768
    Two-Electron Energy =                 539.7211744376519391
    Total Energy =                       -378.7295001284336422
  Basis Set: (AUG-CC-PVTZ AUX)
    Blend: AUG-CC-PVTZ-RI
    Molecular point group: c1

    Geometry (in Angstrom), charge = 0, multiplicity = 1:

       Center              X                  Y                   Z               Mass
    ------------   -----------------  -----------------  -----------------  -----------------
         N            0.186476790152     1.021776568422     0.000000860387    14.003074004430
         N            0.756891790152    -1.311892431578    -0.000002139613    14.003074004430
         C           -1.556470209848    -0.646784431578    -0.000003139613    12.000000000000
         C           -2.533415209848     0.235462568422     0.746382860387    12.000000000000
         C           -2.533415209848     0.235464568422    -0.746382139613    12.000000000000
         C           -0.124096209848    -0.290814431578     0.000000860387    12.000000000000
         C            1.491904790152     1.327036568422     0.000000860387    12.000000000000
         C            2.056233790152    -0.973028431578     0.000002860387    12.000000000000
         C            2.485236790152     0.351058568422     0.000000860387    12.000000000000
         H           -1.740946209848    -1.716170431578     0.000000860387     1.007825032230
         H           -2.109336209848     1.100982568422     1.243834860387     1.007825032230
         H           -3.346922209848    -0.255918431578     1.270160860387     1.007825032230
         H           -3.346923209848    -0.255903431578    -1.270170139613     1.007825032230
         H           -2.109332209848     1.100988568422    -1.243824139613     1.007825032230
         H            1.742523290152     2.407403268422    -0.000007239613     1.007825032230
         H            2.766081790152    -1.798793431578    -0.000010139613     1.007825032230
         H            3.539092790152     0.609854568422    -0.000003139613     1.007825032230

  Basis Set: AUG-CC-PVTZ
    Blend: AUG-CC-PVTZ
  Basis Set: (AUG-CC-PVTZ AUX)
    Blend: AUG-CC-PVTZ-JKFIT
	 Reference Energy          =    -378.7295001284335854 [Eh]
	 Singles Energy            =      -0.0000000000000000 [Eh]
	 Same-Spin Energy          =      -0.4133022974446227 [Eh]
	 Opposite-Spin Energy      =      -1.2908671007155292 [Eh]
	 Correlation Energy        =      -1.7041693981601518 [Eh]
	 Total Energy              =    -380.4336695265937465 [Eh]

	 ================> DF-SCS-MP2 Energies <==================
	-----------------------------------------------------------
	 SCS Same-Spin Scale       =       0.3333333333333333 [-]
	 SCS Opposite-Spin Scale   =       1.2000000000000000 [-]
	 SCS Same-Spin Energy      =      -0.1377674324815409 [Eh]
	 SCS Opposite-Spin Energy  =      -1.5490405208586351 [Eh]
	 SCS Correlation Energy    =      -1.6868079533401759 [Eh]
	 SCS Total Energy          =    -380.4163080817737637 [Eh]
	-----------------------------------------------------------

  Dipole Moment: [D]
     X:     1.4242      Y:     0.6020      Z:    -0.0000     Total:     1.5462

*** Psi4 exiting successfully. Buy a developer a beer!
