                               Psi4 1.3.2 release

  ==> Input File <==

--------------------------------------------------------------------------
#psi4
#
memory 32 gb

molecule  {
0 1
  N        0.2222710     1.0128310     0.0000010
  N        0.7926860    -1.3208380    -0.0000020
  C       -1.5206760    -0.6557300    -0.0000030
  C       -2.4976210     0.2265170     0.7463830
  C       -2.4976210     0.2265190    -0.7463820
  C       -0.0883020    -0.2997600     0.0000010
  C        1.5276990     1.3180910     0.0000010
  C        2.0920280    -0.9819740     0.0000030
  C        2.4497000     0.4121978     0.0000010
  H       -1.7051520    -1.7251160     0.0000010
  H       -2.0735420     1.0920370     1.2438350
  H       -3.3111280    -0.2648640     1.2701610
  H       -3.3111290    -0.2648490    -1.2701700
  H       -2.0735380     1.0920430    -1.2438240
  H        1.7737980     2.3789750    -0.0000070
  H        2.8018760    -1.8077390    -0.0000100
  H        3.5748870     0.6009090    -0.0000030
units angstrom
no_reorient  #important for SAPT in psi4, default
symmetry c1  #important for SAPT in psi4, default
}

set PROPERTIES_ORIGIN ["COM"]
properties('MP2/aug-cc-pvtz', properties = ['dipole'])
--------------------------------------------------------------------------

    Molecular point group: c1
  Charge       = 0
  Multiplicity = 1
  Basis Set: AUG-CC-PVTZ
    Blend: AUG-CC-PVTZ
  Basis Set: (AUG-CC-PVTZ AUX)
    Blend: AUG-CC-PVTZ-JKFIT

    Orbital Energies [Eh]
    ---------------------

    Doubly Occupied:

       1A    -15.570530     2A    -15.561517     3A    -11.318432
       4A    -11.308000     5A    -11.280019     6A    -11.240181
       7A    -11.233265     8A    -11.227697     9A    -11.227013
      10A     -1.307438    11A     -1.187850    12A     -1.149600
      13A     -1.069398    14A     -0.917817    15A     -0.885639
      16A     -0.820201    17A     -0.802973    18A     -0.718703
      19A     -0.702414    20A     -0.650417    21A     -0.632322
      22A     -0.605002    23A     -0.588306    24A     -0.579670
      25A     -0.526626    26A     -0.513415    27A     -0.469197
      28A     -0.444638    29A     -0.426561    30A     -0.418209
      31A     -0.408117    32A     -0.350648

  @DF-RHF Final Energy:  -378.71598194632031

   => Energetics <=

    Nuclear Repulsion Energy =            414.5634637709368349
    One-Electron Energy =               -1334.2752634121934534
    Two-Electron Energy =                 540.9958176949363633
    Total Energy =                       -378.7159819463203121
  Basis Set: (AUG-CC-PVTZ AUX)
    Blend: AUG-CC-PVTZ-RI
    Molecular point group: c1

    Geometry (in Angstrom), charge = 0, multiplicity = 1:

       Center              X                  Y                   Z               Mass
    ------------   -----------------  -----------------  -----------------  -----------------
         N            0.193643741400     1.014935633881     0.000000859548    14.003074004430
         N            0.764058741400    -1.318733366119    -0.000002140452    14.003074004430
         C           -1.549303258600    -0.653625366119    -0.000003140452    12.000000000000
         C           -2.526248258600     0.228621633881     0.746382859548    12.000000000000
         C           -2.526248258600     0.228623633881    -0.746382140452    12.000000000000
         C           -0.116929258600    -0.297655366119     0.000000859548    12.000000000000
         C            1.499071741400     1.320195633881     0.000000859548    12.000000000000
         C            2.063400741400    -0.979869366119     0.000002859548    12.000000000000
         C            2.421072741400     0.414302433881     0.000000859548    12.000000000000
         H           -1.733779258600    -1.723011366119     0.000000859548     1.007825032230
         H           -2.102169258600     1.094141633881     1.243834859548     1.007825032230
         H           -3.339755258600    -0.262759366119     1.270160859548     1.007825032230
         H           -3.339756258600    -0.262744366119    -1.270170140452     1.007825032230
         H           -2.102165258600     1.094147633881    -1.243824140452     1.007825032230
         H            1.745170741400     2.381079633881    -0.000007140452     1.007825032230
         H            2.773248741400    -1.805634366119    -0.000010140452     1.007825032230
         H            3.546259741400     0.603013633881    -0.000003140452     1.007825032230

  Basis Set: AUG-CC-PVTZ
    Blend: AUG-CC-PVTZ
  Basis Set: (AUG-CC-PVTZ AUX)
    Blend: AUG-CC-PVTZ-JKFIT
	 Reference Energy          =    -378.7159819463203121 [Eh]
	 Singles Energy            =      -0.0000000000000000 [Eh]
	 Same-Spin Energy          =      -0.4134673513678384 [Eh]
	 Opposite-Spin Energy      =      -1.2912177791921322 [Eh]
	 Correlation Energy        =      -1.7046851305599706 [Eh]
	 Total Energy              =    -380.4206670768803065 [Eh]

	 ================> DF-SCS-MP2 Energies <==================
	-----------------------------------------------------------
	 SCS Same-Spin Scale       =       0.3333333333333333 [-]
	 SCS Opposite-Spin Scale   =       1.2000000000000000 [-]
	 SCS Same-Spin Energy      =      -0.1378224504559461 [Eh]
	 SCS Opposite-Spin Energy  =      -1.5494613350305586 [Eh]
	 SCS Correlation Energy    =      -1.6872837854865048 [Eh]
	 SCS Total Energy          =    -380.4032657318068118 [Eh]
	-----------------------------------------------------------

  Dipole Moment: [D]
     X:     1.4606      Y:     0.4472      Z:    -0.0000     Total:     1.5276

*** Psi4 exiting successfully. Buy a developer a beer!
