                               Psi4 1.3.2 release

  ==> Input File <==

--------------------------------------------------------------------------
#psi4
#
memory 32 gb

molecule  {
0 1
  N        0.2222710     1.0128310     0.0000010
  N        0.7926860    -1.3208380    -0.0000020
  C       -1.5206760    -0.6557300    -0.0000030
  C       -2.4976210     0.2265170     0.7463830
  C       -2.4976210     0.2265190    -0.7463820
  C       -0.0767514    -0.3499660     0.0000013
  C        1.5276990     1.3180910     0.0000010
  C        2.0920280    -0.9819740     0.0000030
  C        2.5210310     0.3421130     0.0000010
  H       -1.7051520    -1.7251160     0.0000010
  H       -2.0735420     1.0920370     1.2438350
  H       -3.3111280    -0.2648640     1.2701610
  H       -3.3111290    -0.2648490    -1.2701700
  H       -2.0735380     1.0920430    -1.2438240
  H        1.7737980     2.3789750    -0.0000070
  H        2.8018760    -1.8077390    -0.0000100
  H        3.5748870     0.6009090    -0.0000030
units angstrom
no_reorient  #important for SAPT in psi4, default
symmetry c1  #important for SAPT in psi4, default
}

set PROPERTIES_ORIGIN ["COM"]
properties('MP2/aug-cc-pvtz', properties = ['dipole'])
--------------------------------------------------------------------------

    Molecular point group: c1
  Charge       = 0
  Multiplicity = 1
  Basis Set: AUG-CC-PVTZ
    Blend: AUG-CC-PVTZ
  Basis Set: (AUG-CC-PVTZ AUX)
    Blend: AUG-CC-PVTZ-JKFIT

    Orbital Energies [Eh]
    ---------------------

    Doubly Occupied:

       1A    -15.568555     2A    -15.564572     3A    -11.319236
       4A    -11.298667     5A    -11.297641     6A    -11.242271
       7A    -11.233744     8A    -11.228698     9A    -11.228018
      10A     -1.306791    11A     -1.186677    12A     -1.148129
      13A     -1.064496    14A     -0.914152    15A     -0.887700
      16A     -0.820791    17A     -0.803853    18A     -0.715656
      19A     -0.701863    20A     -0.652337    21A     -0.636720
      22A     -0.608197    23A     -0.587600    24A     -0.577413
      25A     -0.524859    26A     -0.514035    27A     -0.476309
      28A     -0.441995    29A     -0.429968    30A     -0.417722
      31A     -0.405397    32A     -0.348185

  @DF-RHF Final Energy:  -378.72723319178220

   => Energetics <=

    Nuclear Repulsion Energy =            413.2729837839152083
    One-Electron Energy =               -1331.6959394590139709
    Two-Electron Energy =                 539.6957224833165583
    Total Energy =                       -378.7272331917822612
  Basis Set: (AUG-CC-PVTZ AUX)
    Blend: AUG-CC-PVTZ-RI
    Molecular point group: c1

    Geometry (in Angstrom), charge = 0, multiplicity = 1:

       Center              X                  Y                   Z               Mass
    ------------   -----------------  -----------------  -----------------  -----------------
         N            0.185360326987     1.026957826340     0.000000829565    14.003074004430
         N            0.755775326987    -1.306711173660    -0.000002170435    14.003074004430
         C           -1.557586673013    -0.641603173660    -0.000003170435    12.000000000000
         C           -2.534531673013     0.240643826340     0.746382829565    12.000000000000
         C           -2.534531673013     0.240645826340    -0.746382170435    12.000000000000
         C           -0.113662073013    -0.335839173660     0.000001129565    12.000000000000
         C            1.490788326987     1.332217826340     0.000000829565    12.000000000000
         C            2.055117326987    -0.967847173660     0.000002829565    12.000000000000
         C            2.484120326987     0.356239826340     0.000000829565    12.000000000000
         H           -1.742062673013    -1.710989173660     0.000000829565     1.007825032230
         H           -2.110452673013     1.106163826340     1.243834829565     1.007825032230
         H           -3.348038673013    -0.250737173660     1.270160829565     1.007825032230
         H           -3.348039673013    -0.250722173660    -1.270170170435     1.007825032230
         H           -2.110448673013     1.106169826340    -1.243824170435     1.007825032230
         H            1.736887326987     2.393101826340    -0.000007170435     1.007825032230
         H            2.764965326987    -1.793612173660    -0.000010170435     1.007825032230
         H            3.537976326987     0.615035826340    -0.000003170435     1.007825032230

  Basis Set: AUG-CC-PVTZ
    Blend: AUG-CC-PVTZ
  Basis Set: (AUG-CC-PVTZ AUX)
    Blend: AUG-CC-PVTZ-JKFIT
	 Reference Energy          =    -378.7272331917822044 [Eh]
	 Singles Energy            =      -0.0000000000000000 [Eh]
	 Same-Spin Energy          =      -0.4130800637912436 [Eh]
	 Opposite-Spin Energy      =      -1.2908058981926684 [Eh]
	 Correlation Energy        =      -1.7038859619839120 [Eh]
	 Total Energy              =    -380.4311191537661330 [Eh]

	 ================> DF-SCS-MP2 Energies <==================
	-----------------------------------------------------------
	 SCS Same-Spin Scale       =       0.3333333333333333 [-]
	 SCS Opposite-Spin Scale   =       1.2000000000000000 [-]
	 SCS Same-Spin Energy      =      -0.1376933545970812 [Eh]
	 SCS Opposite-Spin Energy  =      -1.5489670778312021 [Eh]
	 SCS Correlation Energy    =      -1.6866604324282832 [Eh]
	 SCS Total Energy          =    -380.4138936242104592 [Eh]
	-----------------------------------------------------------

  Dipole Moment: [D]
     X:     1.4389      Y:     0.5823      Z:    -0.0000     Total:     1.5522

*** Psi4 exiting successfully. Buy a developer a beer!
