                               Psi4 1.4a3.dev225

  ==> Input File <==

--------------------------------------------------------------------------
#psi4
#
memory 32 gb

molecule  {
0 1
  N        0.2222710     1.0128310     0.0000010
  N        0.7926860    -1.3208380    -0.0000020
  C       -1.5206760    -0.6557300    -0.0000030
  C       -2.4976210     0.2265170     0.7463830
  C       -2.4976210     0.2265190    -0.7463820
  C       -0.1368260    -0.3118191     0.0000009
  C        1.5276990     1.3180910     0.0000010
  C        2.0920280    -0.9819740     0.0000030
  C        2.5210310     0.3421130     0.0000010
  H       -1.7051520    -1.7251160     0.0000010
  H       -2.0735420     1.0920370     1.2438350
  H       -3.3111280    -0.2648640     1.2701610
  H       -3.3111290    -0.2648490    -1.2701700
  H       -2.0735380     1.0920430    -1.2438240
  H        1.7737980     2.3789750    -0.0000070
  H        2.8018760    -1.8077390    -0.0000100
  H        3.5748870     0.6009090    -0.0000030
units angstrom
no_reorient  #important for SAPT in psi4, default
symmetry c1  #important for SAPT in psi4, default
}

set PROPERTIES_ORIGIN ["COM"]
properties('MP2/aug-cc-pvtz', properties = ['dipole'])
--------------------------------------------------------------------------

    Molecular point group: c1
  Charge       = 0
  Multiplicity = 1
  Basis Set: AUG-CC-PVTZ
    Blend: AUG-CC-PVTZ
  Basis Set: (AUG-CC-PVTZ AUX)
    Blend: AUG-CC-PVTZ-JKFIT

    Orbital Energies [Eh]
    ---------------------

    Doubly Occupied:

       1A    -15.565509     2A    -15.565320     3A    -11.323232
       4A    -11.296333     5A    -11.294952     6A    -11.239186
       7A    -11.235545     8A    -11.233317     9A    -11.232693
      10A     -1.295189    11A     -1.177396    12A     -1.156126
      13A     -1.061692    14A     -0.920348    15A     -0.884069
      16A     -0.825519    17A     -0.804706    18A     -0.718871
      19A     -0.695416    20A     -0.657771    21A     -0.637084
      22A     -0.607166    23A     -0.585091    24A     -0.571871
      25A     -0.534249    26A     -0.517662    27A     -0.476989
      28A     -0.447629    29A     -0.432246    30A     -0.413610
      31A     -0.398537    32A     -0.342100

  @DF-RHF Final Energy:  -378.72420965681658

   => Energetics <=

    Nuclear Repulsion Energy =            413.1463791019922382
    One-Electron Energy =               -1331.4463316893013598
    Two-Electron Energy =                 539.5757429304925381
    Total Energy =                       -378.7242096568165834
  Basis Set: (AUG-CC-PVTZ AUX)
    Blend: AUG-CC-PVTZ-RI
    Molecular point group: c1

    Geometry (in Angstrom), charge = 0, multiplicity = 1:

       Center              X                  Y                   Z               Mass
    ------------   -----------------  -----------------  -----------------  -----------------
         N            0.191364347270     1.023145320534     0.000000869542    14.003074004430
         N            0.761779347270    -1.310523679466    -0.000002130458    14.003074004430
         C           -1.551582652730    -0.645415679466    -0.000003130458    12.000000000000
         C           -2.528527652730     0.236831320534     0.746382869542    12.000000000000
         C           -2.528527652730     0.236833320534    -0.746382130458    12.000000000000
         C           -0.167732652730    -0.301504779466     0.000000769542    12.000000000000
         C            1.496792347270     1.328405320534     0.000000869542    12.000000000000
         C            2.061121347270    -0.971659679466     0.000002869542    12.000000000000
         C            2.490124347270     0.352427320534     0.000000869542    12.000000000000
         H           -1.736058652730    -1.714801679466     0.000000869542     1.007825032230
         H           -2.104448652730     1.102351320534     1.243834869542     1.007825032230
         H           -3.342034652730    -0.254549679466     1.270160869542     1.007825032230
         H           -3.342035652730    -0.254534679466    -1.270170130458     1.007825032230
         H           -2.104444652730     1.102357320534    -1.243824130458     1.007825032230
         H            1.742891347270     2.389289320534    -0.000007130458     1.007825032230
         H            2.770969347270    -1.797424679466    -0.000010130458     1.007825032230
         H            3.543980347270     0.611223320534    -0.000003130458     1.007825032230

  Basis Set: AUG-CC-PVTZ
    Blend: AUG-CC-PVTZ
  Basis Set: (AUG-CC-PVTZ AUX)
    Blend: AUG-CC-PVTZ-JKFIT
	 Reference Energy          =    -378.7242096568165834 [Eh]
	 Singles Energy            =      -0.0000000000000000 [Eh]
	 Same-Spin Energy          =      -0.4142552888891908 [Eh]
	 Opposite-Spin Energy      =      -1.2923292013618994 [Eh]
	 Correlation Energy        =      -1.7065844902510903 [Eh]
	 Total Energy              =    -380.4307941470676724 [Eh]

	 ================> DF-SCS-MP2 Energies <==================
	-----------------------------------------------------------
	 SCS Same-Spin Scale       =       0.3333333333333333 [-]
	 SCS Opposite-Spin Scale   =       1.2000000000000000 [-]
	 SCS Same-Spin Energy      =      -0.1380850962963969 [Eh]
	 SCS Opposite-Spin Energy  =      -1.5507950416342793 [Eh]
	 SCS Correlation Energy    =      -1.6888801379306762 [Eh]
	 SCS Total Energy          =    -380.4130897947472363 [Eh]
	-----------------------------------------------------------

  Dipole Moment: [D]
     X:     1.0781      Y:     0.5864      Z:    -0.0000     Total:     1.2273

*** Psi4 exiting successfully. Buy a developer a beer!
