                               Psi4 1.3.2 release

  ==> Input File <==

--------------------------------------------------------------------------
#psi4
#
memory 32 gb

molecule  {
0 1
  O       -1.3267430     1.3986080    -0.4043610
  N        1.4095890     0.5516460     0.0718950
  N       -2.0120760    -0.7164460     0.1311050
  C        0.3280180    -0.2917100    -0.0638180
  C        0.8200520    -1.5979270    -0.1446940
  C        2.5591820    -0.1927100     0.0828840
  C        2.2225030    -1.5310870    -0.0531270
  C       -1.0355575     0.2393181    -0.3209518
  C        1.3775260     2.0070720     0.1804590
  C       -3.4119730    -0.3353390     0.1671430
  H        0.2239390    -2.4879400    -0.3067250
  H        3.5227950     0.2883690     0.1888050
  H        2.9194420    -2.3581700    -0.0891670
  H        0.6999810     2.3106600     0.9777950
  H        2.3913760     2.3394710     0.4091260
  H        1.0337950     2.4512300    -0.7527080
  H       -1.7260750    -1.5572290     0.6147920
  H       -4.0269330    -1.2262470     0.0275940
  H       -3.5972090     0.3657440    -0.6460440
  H       -3.6872220     0.1511560     1.1097960
units angstrom
no_reorient  #important for SAPT in psi4, default
symmetry c1  #important for SAPT in psi4, default
}

set PROPERTIES_ORIGIN ["COM"]
properties('MP2/aug-cc-pvtz', properties = ['dipole'])
--------------------------------------------------------------------------

    Molecular point group: c1
  Charge       = 0
  Multiplicity = 1
  Basis Set: AUG-CC-PVTZ
    Blend: AUG-CC-PVTZ
  Basis Set: (AUG-CC-PVTZ AUX)
    Blend: AUG-CC-PVTZ-JKFIT

    Orbital Energies [Eh]
    ---------------------

    Doubly Occupied:

       1A    -20.531215     2A    -15.621702     3A    -15.568429
       4A    -11.361291     5A    -11.268286     6A    -11.266042
       7A    -11.264295     8A    -11.249280     9A    -11.233220
      10A    -11.221298    11A     -1.401984    12A     -1.309246
      13A     -1.202320    14A     -1.083402    15A     -1.012915
      16A     -0.939978    17A     -0.927154    18A     -0.823450
      19A     -0.787134    20A     -0.750946    21A     -0.724615
      22A     -0.655705    23A     -0.641095    24A     -0.637406
      25A     -0.609529    26A     -0.593116    27A     -0.582508
      28A     -0.579902    29A     -0.551526    30A     -0.544362
      31A     -0.540068    32A     -0.533457    33A     -0.520159
      34A     -0.433983    35A     -0.382764    36A     -0.348640
      37A     -0.306586

  @DF-RHF Final Energy:  -454.80076211975307

   => Energetics <=

    Nuclear Repulsion Energy =            522.2206963227329197
    One-Electron Energy =               -1654.0248932090132712
    Two-Electron Energy =                 677.0034347665273344
    Total Energy =                       -454.8007621197530170
  Basis Set: (AUG-CC-PVTZ AUX)
    Blend: AUG-CC-PVTZ-RI
    Molecular point group: c1

    Geometry (in Angstrom), charge = 0, multiplicity = 1:

       Center              X                  Y                   Z               Mass
    ------------   -----------------  -----------------  -----------------  -----------------
         O           -1.344091783123     1.399234263048    -0.376079490454    15.994914619570
         N            1.392240216877     0.552272263048     0.100176509546    14.003074004430
         N           -2.029424783123    -0.715819736952     0.159386509546    14.003074004430
         C            0.310669216877    -0.291083736952    -0.035536490454    12.000000000000
         C            0.802703216877    -1.597300736952    -0.116412490454    12.000000000000
         C            2.541833216877    -0.192083736952     0.111165509546    12.000000000000
         C            2.205154216877    -1.530460736952    -0.024845490454    12.000000000000
         C           -1.052906283123     0.239944363048    -0.292670290454    12.000000000000
         C            1.360177216877     2.007698263048     0.208740509546    12.000000000000
         C           -3.429321783123    -0.334712736952     0.195424509546    12.000000000000
         H            0.206590216877    -2.487313736952    -0.278443490454     1.007825032230
         H            3.505446216877     0.288995263048     0.217086509546     1.007825032230
         H            2.902093216877    -2.357543736952    -0.060885490454     1.007825032230
         H            0.682632216877     2.311286263048     1.006076509546     1.007825032230
         H            2.374027216877     2.340097263048     0.437407509546     1.007825032230
         H            1.016446216877     2.451856263048    -0.724426490454     1.007825032230
         H           -1.743423783123    -1.556602736952     0.643073509546     1.007825032230
         H           -4.044281783123    -1.225620736952     0.055875509546     1.007825032230
         H           -3.614557783123     0.366370263048    -0.617762490454     1.007825032230
         H           -3.704570783123     0.151782263048     1.138077509546     1.007825032230

  Basis Set: AUG-CC-PVTZ
    Blend: AUG-CC-PVTZ
  Basis Set: (AUG-CC-PVTZ AUX)
    Blend: AUG-CC-PVTZ-JKFIT
	 Reference Energy          =    -454.8007621197530739 [Eh]
	 Singles Energy            =      -0.0000000000000000 [Eh]
	 Same-Spin Energy          =      -0.4852400625429980 [Eh]
	 Opposite-Spin Energy      =      -1.5175732865527751 [Eh]
	 Correlation Energy        =      -2.0028133490957729 [Eh]
	 Total Energy              =    -456.8035754688488623 [Eh]

	 ================> DF-SCS-MP2 Energies <==================
	-----------------------------------------------------------
	 SCS Same-Spin Scale       =       0.3333333333333333 [-]
	 SCS Opposite-Spin Scale   =       1.2000000000000000 [-]
	 SCS Same-Spin Energy      =      -0.1617466875143326 [Eh]
	 SCS Opposite-Spin Energy  =      -1.8210879438633301 [Eh]
	 SCS Correlation Energy    =      -1.9828346313776626 [Eh]
	 SCS Total Energy          =    -456.7835967511307445 [Eh]
	-----------------------------------------------------------

  Dipole Moment: [D]
     X:     0.6668      Y:    -0.7544      Z:     1.0153     Total:     1.4299

*** Psi4 exiting successfully. Buy a developer a beer!
