                               Psi4 1.3.2 release

  ==> Input File <==

--------------------------------------------------------------------------
#psi4
#
memory 32 gb

molecule  {
0 1
  O       -1.3267430     1.3986080    -0.4043610
  N        1.4095890     0.5516460     0.0718950
  N       -2.0120760    -0.7164460     0.1311050
  C        0.3357285    -0.2450128     0.1305011
  C        0.8200520    -1.5979270    -0.1446940
  C        2.5591820    -0.1927100     0.0828840
  C        2.2225030    -1.5310870    -0.0531270
  C       -1.0490640     0.2229840    -0.1220780
  C        1.3775260     2.0070720     0.1804590
  C       -3.4119730    -0.3353390     0.1671430
  H        0.2239390    -2.4879400    -0.3067250
  H        3.5227950     0.2883690     0.1888050
  H        2.9194420    -2.3581700    -0.0891670
  H        0.6999810     2.3106600     0.9777950
  H        2.3913760     2.3394710     0.4091260
  H        1.0337950     2.4512300    -0.7527080
  H       -1.7260750    -1.5572290     0.6147920
  H       -4.0269330    -1.2262470     0.0275940
  H       -3.5972090     0.3657440    -0.6460440
  H       -3.6872220     0.1511560     1.1097960
units angstrom
no_reorient  #important for SAPT in psi4, default
symmetry c1  #important for SAPT in psi4, default
}

set PROPERTIES_ORIGIN ["COM"]
properties('MP2/aug-cc-pvtz', properties = ['dipole'])
--------------------------------------------------------------------------

    Molecular point group: c1
  Charge       = 0
  Multiplicity = 1
  Basis Set: AUG-CC-PVTZ
    Blend: AUG-CC-PVTZ
  Basis Set: (AUG-CC-PVTZ AUX)
    Blend: AUG-CC-PVTZ-JKFIT

    Orbital Energies [Eh]
    ---------------------

    Doubly Occupied:

       1A    -20.514343     2A    -15.626630     3A    -15.580752
       4A    -11.354487     5A    -11.267030     6A    -11.265362
       7A    -11.264750     8A    -11.256332     9A    -11.238714
      10A    -11.224167    11A     -1.371312    12A     -1.317457
      13A     -1.223741    14A     -1.079540    15A     -1.014614
      16A     -0.944965    17A     -0.937275    18A     -0.822285
      19A     -0.787500    20A     -0.760587    21A     -0.724943
      22A     -0.654326    23A     -0.644865    24A     -0.634644
      25A     -0.614993    26A     -0.594081    27A     -0.583636
      28A     -0.572339    29A     -0.549202    30A     -0.544320
      31A     -0.537176    32A     -0.530412    33A     -0.513388
      34A     -0.426780    35A     -0.391205    36A     -0.349155
      37A     -0.301671

  @DF-RHF Final Energy:  -454.80466852023386

   => Energetics <=

    Nuclear Repulsion Energy =            522.6018356811566719
    One-Electron Energy =               -1654.7750517310028044
    Two-Electron Energy =                 677.3685475296122149
    Total Energy =                       -454.8046685202339177
  Basis Set: (AUG-CC-PVTZ AUX)
    Blend: AUG-CC-PVTZ-RI
    Molecular point group: c1

    Geometry (in Angstrom), charge = 0, multiplicity = 1:

       Center              X                  Y                   Z               Mass
    ------------   -----------------  -----------------  -----------------  -----------------
         O           -1.343588072622     1.396595510058    -0.410250538232    15.994914619570
         N            1.392743927378     0.549633510058     0.066005461768    14.003074004430
         N           -2.028921072622    -0.718458489942     0.125215461768    14.003074004430
         C            0.318883427378    -0.247025289942     0.124611561768    12.000000000000
         C            0.803206927378    -1.599939489942    -0.150583538232    12.000000000000
         C            2.542336927378    -0.194722489942     0.076994461768    12.000000000000
         C            2.205657927378    -1.533099489942    -0.059016538232    12.000000000000
         C           -1.065909072622     0.220971510058    -0.127967538232    12.000000000000
         C            1.360680927378     2.005059510058     0.174569461768    12.000000000000
         C           -3.428818072622    -0.337351489942     0.161253461768    12.000000000000
         H            0.207093927378    -2.489952489942    -0.312614538232     1.007825032230
         H            3.505949927378     0.286356510058     0.182915461768     1.007825032230
         H            2.902596927378    -2.360182489942    -0.095056538232     1.007825032230
         H            0.683135927378     2.308647510058     0.971905461768     1.007825032230
         H            2.374530927378     2.337458510058     0.403236461768     1.007825032230
         H            1.016949927378     2.449217510058    -0.758597538232     1.007825032230
         H           -1.742920072622    -1.559241489942     0.608902461768     1.007825032230
         H           -4.043778072622    -1.228259489942     0.021704461768     1.007825032230
         H           -3.614054072622     0.363731510058    -0.651933538232     1.007825032230
         H           -3.704067072622     0.149143510058     1.103906461768     1.007825032230

  Basis Set: AUG-CC-PVTZ
    Blend: AUG-CC-PVTZ
  Basis Set: (AUG-CC-PVTZ AUX)
    Blend: AUG-CC-PVTZ-JKFIT
	 Reference Energy          =    -454.8046685202338608 [Eh]
	 Singles Energy            =      -0.0000000000000000 [Eh]
	 Same-Spin Energy          =      -0.4863994491855670 [Eh]
	 Opposite-Spin Energy      =      -1.5187825514341264 [Eh]
	 Correlation Energy        =      -2.0051820006196932 [Eh]
	 Total Energy              =    -456.8098505208535585 [Eh]

	 ================> DF-SCS-MP2 Energies <==================
	-----------------------------------------------------------
	 SCS Same-Spin Scale       =       0.3333333333333333 [-]
	 SCS Opposite-Spin Scale   =       1.2000000000000000 [-]
	 SCS Same-Spin Energy      =      -0.1621331497285223 [Eh]
	 SCS Opposite-Spin Energy  =      -1.8225390617209516 [Eh]
	 SCS Correlation Energy    =      -1.9846722114494739 [Eh]
	 SCS Total Energy          =    -456.7893407316833532 [Eh]
	-----------------------------------------------------------

  Dipole Moment: [D]
     X:     0.4446      Y:    -1.1410      Z:     1.3283     Total:     1.8066

*** Psi4 exiting successfully. Buy a developer a beer!
