                               Psi4 1.3.2 release

  ==> Input File <==

--------------------------------------------------------------------------
#psi4
#
memory 32 gb

molecule  {
0 1
  O       -1.3267430     1.3986080    -0.4043610
  N        1.4095890     0.5516460     0.0718950
  N       -2.0120760    -0.7164460     0.1311050
  C        0.3338009    -0.2566871     0.0819213
  C        0.8200520    -1.5979270    -0.1446940
  C        2.5591820    -0.1927100     0.0828840
  C        2.2225030    -1.5310870    -0.0531270
  C       -1.0490640     0.2229840    -0.1220780
  C        1.3775260     2.0070720     0.1804590
  C       -3.4119730    -0.3353390     0.1671430
  H        0.2239390    -2.4879400    -0.3067250
  H        3.5227950     0.2883690     0.1888050
  H        2.9194420    -2.3581700    -0.0891670
  H        0.6999810     2.3106600     0.9777950
  H        2.3913760     2.3394710     0.4091260
  H        1.0337950     2.4512300    -0.7527080
  H       -1.7260750    -1.5572290     0.6147920
  H       -4.0269330    -1.2262470     0.0275940
  H       -3.5972090     0.3657440    -0.6460440
  H       -3.6872220     0.1511560     1.1097960
units angstrom
no_reorient  #important for SAPT in psi4, default
symmetry c1  #important for SAPT in psi4, default
}

set PROPERTIES_ORIGIN ["COM"]
properties('MP2/aug-cc-pvtz', properties = ['dipole'])
--------------------------------------------------------------------------

    Molecular point group: c1
  Charge       = 0
  Multiplicity = 1
  Basis Set: AUG-CC-PVTZ
    Blend: AUG-CC-PVTZ
  Basis Set: (AUG-CC-PVTZ AUX)
    Blend: AUG-CC-PVTZ-JKFIT

    Orbital Energies [Eh]
    ---------------------

    Doubly Occupied:

       1A    -20.514922     2A    -15.625223     3A    -15.581443
       4A    -11.354620     5A    -11.266492     6A    -11.264592
       7A    -11.264556     8A    -11.256643     9A    -11.236650
      10A    -11.223092    11A     -1.371785    12A     -1.315308
      13A     -1.224394    14A     -1.080158    15A     -1.015435
      16A     -0.944133    17A     -0.937791    18A     -0.823544
      19A     -0.787719    20A     -0.761124    21A     -0.725152
      22A     -0.652923    23A     -0.644754    24A     -0.635014
      25A     -0.615597    26A     -0.594088    27A     -0.582789
      28A     -0.573158    29A     -0.549278    30A     -0.545156
      31A     -0.537464    32A     -0.531706    33A     -0.513931
      34A     -0.427914    35A     -0.391899    36A     -0.348605
      37A     -0.302939

  @DF-RHF Final Energy:  -454.81119743979241

   => Energetics <=

    Nuclear Repulsion Energy =            522.7423252221576604
    One-Electron Energy =               -1655.0630662524679337
    Two-Electron Energy =                 677.5095435905178647
    Total Energy =                       -454.8111974397924087
  Basis Set: (AUG-CC-PVTZ AUX)
    Blend: AUG-CC-PVTZ-RI
    Molecular point group: c1

    Geometry (in Angstrom), charge = 0, multiplicity = 1:

       Center              X                  Y                   Z               Mass
    ------------   -----------------  -----------------  -----------------  -----------------
         O           -1.343420551510     1.397610083472    -0.406028634258    15.994914619570
         N            1.392911448490     0.550648083472     0.070227365742    14.003074004430
         N           -2.028753551510    -0.717443916528     0.129437365742    14.003074004430
         C            0.317123348490    -0.257685016528     0.080253665742    12.000000000000
         C            0.803374448490    -1.598924916528    -0.146361634258    12.000000000000
         C            2.542504448490    -0.193707916528     0.081216365742    12.000000000000
         C            2.205825448490    -1.532084916528    -0.054794634258    12.000000000000
         C           -1.065741551510     0.221986083472    -0.123745634258    12.000000000000
         C            1.360848448490     2.006074083472     0.178791365742    12.000000000000
         C           -3.428650551510    -0.336336916528     0.165475365742    12.000000000000
         H            0.207261448490    -2.488937916528    -0.308392634258     1.007825032230
         H            3.506117448490     0.287371083472     0.187137365742     1.007825032230
         H            2.902764448490    -2.359167916528    -0.090834634258     1.007825032230
         H            0.683303448490     2.309662083472     0.976127365742     1.007825032230
         H            2.374698448490     2.338473083472     0.407458365742     1.007825032230
         H            1.017117448490     2.450232083472    -0.754375634258     1.007825032230
         H           -1.742752551510    -1.558226916528     0.613124365742     1.007825032230
         H           -4.043610551510    -1.227244916528     0.025926365742     1.007825032230
         H           -3.613886551510     0.364746083472    -0.647711634258     1.007825032230
         H           -3.703899551510     0.150158083472     1.108128365742     1.007825032230

  Basis Set: AUG-CC-PVTZ
    Blend: AUG-CC-PVTZ
  Basis Set: (AUG-CC-PVTZ AUX)
    Blend: AUG-CC-PVTZ-JKFIT
	 Reference Energy          =    -454.8111974397924087 [Eh]
	 Singles Energy            =      -0.0000000000000000 [Eh]
	 Same-Spin Energy          =      -0.4860159482954546 [Eh]
	 Opposite-Spin Energy      =      -1.5179959089074473 [Eh]
	 Correlation Energy        =      -2.0040118572029018 [Eh]
	 Total Energy              =    -456.8152092969953060 [Eh]

	 ================> DF-SCS-MP2 Energies <==================
	-----------------------------------------------------------
	 SCS Same-Spin Scale       =       0.3333333333333333 [-]
	 SCS Opposite-Spin Scale   =       1.2000000000000000 [-]
	 SCS Same-Spin Energy      =      -0.1620053160984848 [Eh]
	 SCS Opposite-Spin Energy  =      -1.8215950906889367 [Eh]
	 SCS Correlation Energy    =      -1.9836004067874216 [Eh]
	 SCS Total Energy          =    -456.7947978465798542 [Eh]
	-----------------------------------------------------------

  Dipole Moment: [D]
     X:     0.3955      Y:    -1.1455      Z:     1.3390     Total:     1.8060

*** Psi4 exiting successfully. Buy a developer a beer!
