                               Psi4 1.3.2 release

  ==> Input File <==

--------------------------------------------------------------------------
#psi4
#
memory 32 gb

molecule  {
0 1
  O       -1.3267430     1.3986080    -0.4043610
  N        1.4095890     0.5516460     0.0718950
  N       -2.0120760    -0.7164460     0.1311050
  C        0.3280180    -0.2917100    -0.0638180
  C        0.8200520    -1.5979270    -0.1446940
  C        2.5591820    -0.1927100     0.0828840
  C        2.2225030    -1.5310870    -0.0531270
  C       -1.0321809     0.2434016    -0.3706702
  C        1.3775260     2.0070720     0.1804590
  C       -3.4119730    -0.3353390     0.1671430
  H        0.2239390    -2.4879400    -0.3067250
  H        3.5227950     0.2883690     0.1888050
  H        2.9194420    -2.3581700    -0.0891670
  H        0.6999810     2.3106600     0.9777950
  H        2.3913760     2.3394710     0.4091260
  H        1.0337950     2.4512300    -0.7527080
  H       -1.7260750    -1.5572290     0.6147920
  H       -4.0269330    -1.2262470     0.0275940
  H       -3.5972090     0.3657440    -0.6460440
  H       -3.6872220     0.1511560     1.1097960
units angstrom
no_reorient  #important for SAPT in psi4, default
symmetry c1  #important for SAPT in psi4, default
}

set PROPERTIES_ORIGIN ["COM"]
properties('MP2/aug-cc-pvtz', properties = ['dipole'])
--------------------------------------------------------------------------

    Molecular point group: c1
  Charge       = 0
  Multiplicity = 1
  Basis Set: AUG-CC-PVTZ
    Blend: AUG-CC-PVTZ
  Basis Set: (AUG-CC-PVTZ AUX)
    Blend: AUG-CC-PVTZ-JKFIT

    Orbital Energies [Eh]
    ---------------------

    Doubly Occupied:

       1A    -20.535734     2A    -15.621818     3A    -15.564930
       4A    -11.364308     5A    -11.268649     6A    -11.266673
       7A    -11.265352     8A    -11.247225     9A    -11.233282
      10A    -11.221516    11A     -1.407729    12A     -1.309664
      13A     -1.195468    14A     -1.083644    15A     -1.011657
      16A     -0.940406    17A     -0.923224    18A     -0.822473
      19A     -0.787149    20A     -0.748120    21A     -0.723990
      22A     -0.658106    23A     -0.640727    24A     -0.636595
      25A     -0.607481    26A     -0.592931    27A     -0.583124
      28A     -0.580143    29A     -0.551739    30A     -0.544692
      31A     -0.539680    32A     -0.533216    33A     -0.520916
      34A     -0.433423    35A     -0.379230    36A     -0.348845
      37A     -0.306176

  @DF-RHF Final Energy:  -454.78928693142598

   => Energetics <=

    Nuclear Repulsion Energy =            521.9060517220450492
    One-Electron Energy =               -1653.3906061838581536
    Two-Electron Energy =                 676.6952675303871274
    Total Energy =                       -454.7892869314259769
  Basis Set: (AUG-CC-PVTZ AUX)
    Blend: AUG-CC-PVTZ-RI
    Molecular point group: c1

    Geometry (in Angstrom), charge = 0, multiplicity = 1:

       Center              X                  Y                   Z               Mass
    ------------   -----------------  -----------------  -----------------  -----------------
         O           -1.344385231860     1.398879380054    -0.371758634655    15.994914619570
         N            1.391946768140     0.551917380054     0.104497365345    14.003074004430
         N           -2.029718231860    -0.716174619946     0.163707365345    14.003074004430
         C            0.310375768140    -0.291438619946    -0.031215634655    12.000000000000
         C            0.802409768140    -1.597655619946    -0.112091634655    12.000000000000
         C            2.541539768140    -0.192438619946     0.115486365345    12.000000000000
         C            2.204860768140    -1.530815619946    -0.020524634655    12.000000000000
         C           -1.049823131860     0.243672980054    -0.338067834655    12.000000000000
         C            1.359883768140     2.007343380054     0.213061365345    12.000000000000
         C           -3.429615231860    -0.335067619946     0.199745365345    12.000000000000
         H            0.206296768140    -2.487668619946    -0.274122634655     1.007825032230
         H            3.505152768140     0.288640380054     0.221407365345     1.007825032230
         H            2.901799768140    -2.357898619946    -0.056564634655     1.007825032230
         H            0.682338768140     2.310931380054     1.010397365345     1.007825032230
         H            2.373733768140     2.339742380054     0.441728365345     1.007825032230
         H            1.016152768140     2.451501380054    -0.720105634655     1.007825032230
         H           -1.743717231860    -1.556957619946     0.647394365345     1.007825032230
         H           -4.044575231860    -1.225975619946     0.060196365345     1.007825032230
         H           -3.614851231860     0.366015380054    -0.613441634655     1.007825032230
         H           -3.704864231860     0.151427380054     1.142398365345     1.007825032230

  Basis Set: AUG-CC-PVTZ
    Blend: AUG-CC-PVTZ
  Basis Set: (AUG-CC-PVTZ AUX)
    Blend: AUG-CC-PVTZ-JKFIT
	 Reference Energy          =    -454.7892869314259769 [Eh]
	 Singles Energy            =      -0.0000000000000000 [Eh]
	 Same-Spin Energy          =      -0.4856033074281136 [Eh]
	 Opposite-Spin Energy      =      -1.5187040999331574 [Eh]
	 Correlation Energy        =      -2.0043074073612708 [Eh]
	 Total Energy              =    -456.7935943387872726 [Eh]

	 ================> DF-SCS-MP2 Energies <==================
	-----------------------------------------------------------
	 SCS Same-Spin Scale       =       0.3333333333333333 [-]
	 SCS Opposite-Spin Scale   =       1.2000000000000000 [-]
	 SCS Same-Spin Energy      =      -0.1618677691427045 [Eh]
	 SCS Opposite-Spin Energy  =      -1.8224449199197887 [Eh]
	 SCS Correlation Energy    =      -1.9843126890624934 [Eh]
	 SCS Total Energy          =    -456.7735996204884827 [Eh]
	-----------------------------------------------------------

  Dipole Moment: [D]
     X:     0.7622      Y:    -0.6417      Z:     0.9236     Total:     1.3586

*** Psi4 exiting successfully. Buy a developer a beer!
