                               Psi4 1.3.2 release

  ==> Input File <==

--------------------------------------------------------------------------
#psi4
#
memory 32 gb

molecule  {
0 1
  O       -1.3267430     1.3986080    -0.4043610
  N        1.4095890     0.5516460     0.0718950
  N       -2.0120760    -0.7164460     0.1311050
  C        0.3280180    -0.2917100    -0.0638180
  C        0.8200520    -1.5979270    -0.1446940
  C        2.5591820    -0.1927100     0.0828840
  C        2.2225030    -1.5310870    -0.0531270
  C       -1.0490640     0.2229840    -0.1220780
  C        1.3775260     2.0070720     0.1804590
  C       -3.4119730    -0.3353390     0.1671430
  H        0.2464427    -2.4561072    -0.6041813
  H        3.5227950     0.2883690     0.1888050
  H        2.9194420    -2.3581700    -0.0891670
  H        0.6999810     2.3106600     0.9777950
  H        2.3913760     2.3394710     0.4091260
  H        1.0337950     2.4512300    -0.7527080
  H       -1.7260750    -1.5572290     0.6147920
  H       -4.0269330    -1.2262470     0.0275940
  H       -3.5972090     0.3657440    -0.6460440
  H       -3.6872220     0.1511560     1.1097960
units angstrom
no_reorient  #important for SAPT in psi4, default
symmetry c1  #important for SAPT in psi4, default
}

set PROPERTIES_ORIGIN ["COM"]
properties('MP2/aug-cc-pvtz', properties = ['dipole'])
--------------------------------------------------------------------------

    Molecular point group: c1
  Charge       = 0
  Multiplicity = 1
  Basis Set: AUG-CC-PVTZ
    Blend: AUG-CC-PVTZ
  Basis Set: (AUG-CC-PVTZ AUX)
    Blend: AUG-CC-PVTZ-JKFIT

    Orbital Energies [Eh]
    ---------------------

    Doubly Occupied:

       1A    -20.516383     2A    -15.622165     3A    -15.582958
       4A    -11.355084     5A    -11.267294     6A    -11.264557
       7A    -11.263908     8A    -11.257087     9A    -11.235338
      10A    -11.221112    11A     -1.372630    12A     -1.307728
      13A     -1.225539    14A     -1.082302    15A     -1.016449
      16A     -0.941633    17A     -0.937349    18A     -0.824743
      19A     -0.784928    20A     -0.761912    21A     -0.721015
      22A     -0.651259    23A     -0.642512    24A     -0.634656
      25A     -0.617164    26A     -0.591844    27A     -0.576998
      28A     -0.574216    29A     -0.550442    30A     -0.547144
      31A     -0.536982    32A     -0.529068    33A     -0.512402
      34A     -0.430013    35A     -0.393069    36A     -0.347608
      37A     -0.307205

  @DF-RHF Final Energy:  -454.81324432689559

   => Energetics <=

    Nuclear Repulsion Energy =            522.5551396853097685
    One-Electron Energy =               -1654.7273734270106615
    Two-Electron Energy =                 677.3589894148052508
    Total Energy =                       -454.8132443268956422
  Basis Set: (AUG-CC-PVTZ AUX)
    Blend: AUG-CC-PVTZ-RI
    Molecular point group: c1

    Geometry (in Angstrom), charge = 0, multiplicity = 1:

       Center              X                  Y                   Z               Mass
    ------------   -----------------  -----------------  -----------------  -----------------
         O           -1.343082231404     1.400421459768    -0.391191831689    15.994914619570
         N            1.393249768596     0.553459459768     0.085064168311    14.003074004430
         N           -2.028415231404    -0.714632540232     0.144274168311    14.003074004430
         C            0.311678768596    -0.289896540232    -0.050648831689    12.000000000000
         C            0.803712768596    -1.596113540232    -0.131524831689    12.000000000000
         C            2.542842768596    -0.190896540232     0.096053168311    12.000000000000
         C            2.206163768596    -1.529273540232    -0.039957831689    12.000000000000
         C           -1.065403231404     0.224797459768    -0.108908831689    12.000000000000
         C            1.361186768596     2.008885459768     0.193628168311    12.000000000000
         C           -3.428312231404    -0.333525540232     0.180312168311    12.000000000000
         H            0.230103468596    -2.454293740232    -0.591012131689     1.007825032230
         H            3.506455768596     0.290182459768     0.201974168311     1.007825032230
         H            2.903102768596    -2.356356540232    -0.075997831689     1.007825032230
         H            0.683641768596     2.312473459768     0.990964168311     1.007825032230
         H            2.375036768596     2.341284459768     0.422295168311     1.007825032230
         H            1.017455768596     2.453043459768    -0.739538831689     1.007825032230
         H           -1.742414231404    -1.555415540232     0.627961168311     1.007825032230
         H           -4.043272231404    -1.224433540232     0.040763168311     1.007825032230
         H           -3.613548231404     0.367557459768    -0.632874831689     1.007825032230
         H           -3.703561231404     0.152969459768     1.122965168311     1.007825032230

  Basis Set: AUG-CC-PVTZ
    Blend: AUG-CC-PVTZ
  Basis Set: (AUG-CC-PVTZ AUX)
    Blend: AUG-CC-PVTZ-JKFIT
	 Reference Energy          =    -454.8132443268955853 [Eh]
	 Singles Energy            =      -0.0000000000000000 [Eh]
	 Same-Spin Energy          =      -0.4857274086178247 [Eh]
	 Opposite-Spin Energy      =      -1.5178859180739708 [Eh]
	 Correlation Energy        =      -2.0036133266917955 [Eh]
	 Total Energy              =    -456.8168576535873626 [Eh]

	 ================> DF-SCS-MP2 Energies <==================
	-----------------------------------------------------------
	 SCS Same-Spin Scale       =       0.3333333333333333 [-]
	 SCS Opposite-Spin Scale   =       1.2000000000000000 [-]
	 SCS Same-Spin Energy      =      -0.1619091362059416 [Eh]
	 SCS Opposite-Spin Energy  =      -1.8214631016887648 [Eh]
	 SCS Correlation Energy    =      -1.9833722378947063 [Eh]
	 SCS Total Energy          =    -456.7966165647902699 [Eh]
	-----------------------------------------------------------

  Dipole Moment: [D]
     X:     0.3457      Y:    -1.0855      Z:     1.1516     Total:     1.6199

*** Psi4 exiting successfully. Buy a developer a beer!
