                               Psi4 1.3.2 release

  ==> Input File <==

--------------------------------------------------------------------------
#psi4
#
memory 32 gb

molecule  {
0 1
  O       -1.3267430     1.3986080    -0.4043610
  N        1.4095890     0.5516460     0.0718950
  N       -2.0120760    -0.7164460     0.1311050
  C        0.3280180    -0.2917100    -0.0638180
  C        0.8200520    -1.5979270    -0.1446940
  C        2.5591820    -0.1927100     0.0828840
  C        2.2225030    -1.5310870    -0.0531270
  C       -1.0490640     0.2229840    -0.1220780
  C        1.3775260     2.0070720     0.1804590
  C       -3.4119730    -0.3353390     0.1671430
  H        0.2276896    -2.4826345    -0.3563011
  H        3.5227950     0.2883690     0.1888050
  H        2.9194420    -2.3581700    -0.0891670
  H        0.6999810     2.3106600     0.9777950
  H        2.3913760     2.3394710     0.4091260
  H        1.0337950     2.4512300    -0.7527080
  H       -1.7260750    -1.5572290     0.6147920
  H       -4.0269330    -1.2262470     0.0275940
  H       -3.5972090     0.3657440    -0.6460440
  H       -3.6872220     0.1511560     1.1097960
units angstrom
no_reorient  #important for SAPT in psi4, default
symmetry c1  #important for SAPT in psi4, default
}

set PROPERTIES_ORIGIN ["COM"]
properties('MP2/aug-cc-pvtz', properties = ['dipole'])
--------------------------------------------------------------------------

    Molecular point group: c1
  Charge       = 0
  Multiplicity = 1
  Basis Set: AUG-CC-PVTZ
    Blend: AUG-CC-PVTZ
  Basis Set: (AUG-CC-PVTZ AUX)
    Blend: AUG-CC-PVTZ-JKFIT

    Orbital Energies [Eh]
    ---------------------

    Doubly Occupied:

       1A    -20.516169     2A    -15.620986     3A    -15.582953
       4A    -11.354904     5A    -11.267028     6A    -11.263374
       7A    -11.263055     8A    -11.257175     9A    -11.232740
      10A    -11.220590    11A     -1.372360    12A     -1.306859
      13A     -1.225644    14A     -1.082373    15A     -1.016103
      16A     -0.941514    17A     -0.938059    18A     -0.825315
      19A     -0.786855    20A     -0.761975    21A     -0.724622
      22A     -0.651109    23A     -0.642131    24A     -0.634819
      25A     -0.617015    26A     -0.593671    27A     -0.579449
      28A     -0.574072    29A     -0.550637    30A     -0.547156
      31A     -0.537106    32A     -0.532506    33A     -0.513601
      34A     -0.429694    35A     -0.393317    36A     -0.347811
      37A     -0.306726

  @DF-RHF Final Energy:  -454.81963884971429

   => Energetics <=

    Nuclear Repulsion Energy =            522.7476183624008854
    One-Electron Energy =               -1655.1115735188527651
    Two-Electron Energy =                 677.5443163067377554
    Total Energy =                       -454.8196388497142379
  Basis Set: (AUG-CC-PVTZ AUX)
    Blend: AUG-CC-PVTZ-RI
    Molecular point group: c1

    Geometry (in Angstrom), charge = 0, multiplicity = 1:

       Center              X                  Y                   Z               Mass
    ------------   -----------------  -----------------  -----------------  -----------------
         O           -1.342945354683     1.400615079481    -0.393001080774    15.994914619570
         N            1.393386645317     0.553653079481     0.083254919226    14.003074004430
         N           -2.028278354683    -0.714438920519     0.142464919226    14.003074004430
         C            0.311815645317    -0.289702920519    -0.052458080774    12.000000000000
         C            0.803849645317    -1.595919920519    -0.133334080774    12.000000000000
         C            2.542979645317    -0.190702920519     0.094243919226    12.000000000000
         C            2.206300645317    -1.529079920519    -0.041767080774    12.000000000000
         C           -1.065266354683     0.224991079481    -0.110718080774    12.000000000000
         C            1.361323645317     2.009079079481     0.191818919226    12.000000000000
         C           -3.428175354683    -0.333331920519     0.178502919226    12.000000000000
         H            0.211487245317    -2.480627420519    -0.344941180774     1.007825032230
         H            3.506592645317     0.290376079481     0.200164919226     1.007825032230
         H            2.903239645317    -2.356162920519    -0.077807080774     1.007825032230
         H            0.683778645317     2.312667079481     0.989154919226     1.007825032230
         H            2.375173645317     2.341478079481     0.420485919226     1.007825032230
         H            1.017592645317     2.453237079481    -0.741348080774     1.007825032230
         H           -1.742277354683    -1.555221920519     0.626151919226     1.007825032230
         H           -4.043135354683    -1.224239920519     0.038953919226     1.007825032230
         H           -3.613411354683     0.367751079481    -0.634684080774     1.007825032230
         H           -3.703424354683     0.153163079481     1.121155919226     1.007825032230

  Basis Set: AUG-CC-PVTZ
    Blend: AUG-CC-PVTZ
  Basis Set: (AUG-CC-PVTZ AUX)
    Blend: AUG-CC-PVTZ-JKFIT
	 Reference Energy          =    -454.8196388497142948 [Eh]
	 Singles Energy            =      -0.0000000000000000 [Eh]
	 Same-Spin Energy          =      -0.4852826039832964 [Eh]
	 Opposite-Spin Energy      =      -1.5169040966790972 [Eh]
	 Correlation Energy        =      -2.0021867006623935 [Eh]
	 Total Energy              =    -456.8218255503766727 [Eh]

	 ================> DF-SCS-MP2 Energies <==================
	-----------------------------------------------------------
	 SCS Same-Spin Scale       =       0.3333333333333333 [-]
	 SCS Opposite-Spin Scale   =       1.2000000000000000 [-]
	 SCS Same-Spin Energy      =      -0.1617608679944321 [Eh]
	 SCS Opposite-Spin Energy  =      -1.8202849160149166 [Eh]
	 SCS Correlation Energy    =      -1.9820457840093488 [Eh]
	 SCS Total Energy          =    -456.8016846337236530 [Eh]
	-----------------------------------------------------------

  Dipole Moment: [D]
     X:     0.2890      Y:    -1.1759      Z:     1.3213     Total:     1.7922

*** Psi4 exiting successfully. Buy a developer a beer!
