                               Psi4 1.3.2 release

  ==> Input File <==

--------------------------------------------------------------------------
#psi4
#
memory 32 gb

molecule  {
0 1
  O       -1.3267430     1.3986080    -0.4043610
  N        1.4095890     0.5516460     0.0718950
  N       -2.0120760    -0.7164460     0.1311050
  C        0.3280180    -0.2917100    -0.0638180
  C        0.8200520    -1.5979270    -0.1446940
  C        2.5591820    -0.1927100     0.0828840
  C        2.2225030    -1.5310870    -0.0531270
  C       -1.0389341     0.2352346    -0.2712333
  C        1.3775260     2.0070720     0.1804590
  C       -3.4119730    -0.3353390     0.1671430
  H        0.2239390    -2.4879400    -0.3067250
  H        3.5227950     0.2883690     0.1888050
  H        2.9194420    -2.3581700    -0.0891670
  H        0.6999810     2.3106600     0.9777950
  H        2.3913760     2.3394710     0.4091260
  H        1.0337950     2.4512300    -0.7527080
  H       -1.7260750    -1.5572290     0.6147920
  H       -4.0269330    -1.2262470     0.0275940
  H       -3.5972090     0.3657440    -0.6460440
  H       -3.6872220     0.1511560     1.1097960
units angstrom
no_reorient  #important for SAPT in psi4, default
symmetry c1  #important for SAPT in psi4, default
}

set PROPERTIES_ORIGIN ["COM"]
properties('MP2/aug-cc-pvtz', properties = ['dipole'])
--------------------------------------------------------------------------

    Molecular point group: c1
  Charge       = 0
  Multiplicity = 1
  Basis Set: AUG-CC-PVTZ
    Blend: AUG-CC-PVTZ
  Basis Set: (AUG-CC-PVTZ AUX)
    Blend: AUG-CC-PVTZ-JKFIT

    Orbital Energies [Eh]
    ---------------------

    Doubly Occupied:

       1A    -20.526983     2A    -15.621558     3A    -15.572000
       4A    -11.358805     5A    -11.267946     6A    -11.265390
       7A    -11.263522     8A    -11.251321     9A    -11.233140
      10A    -11.221097    11A     -1.395364    12A     -1.308766
      13A     -1.208935    14A     -1.083157    15A     -1.014002
      16A     -0.939540    17A     -0.930972    18A     -0.824239
      19A     -0.787113    20A     -0.753889    21A     -0.724944
      22A     -0.653264    23A     -0.642058    24A     -0.637399
      25A     -0.611528    26A     -0.593367    27A     -0.581551
      28A     -0.579443    29A     -0.551308    30A     -0.544378
      31A     -0.540130    32A     -0.533469    33A     -0.519027
      34A     -0.433832    35A     -0.386051    36A     -0.348434
      37A     -0.306851

  @DF-RHF Final Energy:  -454.80971809551068

   => Energetics <=

    Nuclear Repulsion Energy =            522.4637299276298563
    One-Electron Energy =               -1654.5173488907166757
    Two-Electron Energy =                 677.2439008675761443
    Total Energy =                       -454.8097180955106751
  Basis Set: (AUG-CC-PVTZ AUX)
    Blend: AUG-CC-PVTZ-RI
    Molecular point group: c1

    Geometry (in Angstrom), charge = 0, multiplicity = 1:

       Center              X                  Y                   Z               Mass
    ------------   -----------------  -----------------  -----------------  -----------------
         O           -1.343798334386     1.399589146043    -0.380400354943    15.994914619570
         N            1.392533665614     0.552627146043     0.095855645057    14.003074004430
         N           -2.029131334386    -0.715464853957     0.155065645057    14.003074004430
         C            0.310962665614    -0.290728853957    -0.039857354943    12.000000000000
         C            0.802996665614    -1.596945853957    -0.120733354943    12.000000000000
         C            2.542126665614    -0.191728853957     0.106844645057    12.000000000000
         C            2.205447665614    -1.530105853957    -0.029166354943    12.000000000000
         C           -1.055989434386     0.236215746043    -0.247272654943    12.000000000000
         C            1.360470665614     2.008053146043     0.204419645057    12.000000000000
         C           -3.429028334386    -0.334357853957     0.191103645057    12.000000000000
         H            0.206883665614    -2.486958853957    -0.282764354943     1.007825032230
         H            3.505739665614     0.289350146043     0.212765645057     1.007825032230
         H            2.902386665614    -2.357188853957    -0.065206354943     1.007825032230
         H            0.682925665614     2.311641146043     1.001755645057     1.007825032230
         H            2.374320665614     2.340452146043     0.433086645057     1.007825032230
         H            1.016739665614     2.452211146043    -0.728747354943     1.007825032230
         H           -1.743130334386    -1.556247853957     0.638752645057     1.007825032230
         H           -4.043988334386    -1.225265853957     0.051554645057     1.007825032230
         H           -3.614264334386     0.366725146043    -0.622083354943     1.007825032230
         H           -3.704277334386     0.152137146043     1.133756645057     1.007825032230

  Basis Set: AUG-CC-PVTZ
    Blend: AUG-CC-PVTZ
  Basis Set: (AUG-CC-PVTZ AUX)
    Blend: AUG-CC-PVTZ-JKFIT
	 Reference Energy          =    -454.8097180955106751 [Eh]
	 Singles Energy            =      -0.0000000000000000 [Eh]
	 Same-Spin Energy          =      -0.4850241586143777 [Eh]
	 Opposite-Spin Energy      =      -1.5168368009279130 [Eh]
	 Correlation Energy        =      -2.0018609595422907 [Eh]
	 Total Energy              =    -456.8115790550529596 [Eh]

	 ================> DF-SCS-MP2 Energies <==================
	-----------------------------------------------------------
	 SCS Same-Spin Scale       =       0.3333333333333333 [-]
	 SCS Opposite-Spin Scale   =       1.2000000000000000 [-]
	 SCS Same-Spin Energy      =      -0.1616747195381259 [Eh]
	 SCS Opposite-Spin Energy  =      -1.8202041611134954 [Eh]
	 SCS Correlation Energy    =      -1.9818788806516212 [Eh]
	 SCS Total Energy          =    -456.7915969761622819 [Eh]
	-----------------------------------------------------------

  Dipole Moment: [D]
     X:     0.5708      Y:    -0.8661      Z:     1.1058     Total:     1.5161

*** Psi4 exiting successfully. Buy a developer a beer!
