                               Psi4 1.3.2 release

  ==> Input File <==

--------------------------------------------------------------------------
#psi4
#
memory 32 gb

molecule  {
0 1
  O       -1.3267430     1.3986080    -0.4043610
  N        1.4095890     0.5516460     0.0718950
  N       -2.0120760    -0.7164460     0.1311050
  C        0.3395838    -0.2216643     0.2276607
  C        0.8200520    -1.5979270    -0.1446940
  C        2.5591820    -0.1927100     0.0828840
  C        2.2225030    -1.5310870    -0.0531270
  C       -1.0490640     0.2229840    -0.1220780
  C        1.3775260     2.0070720     0.1804590
  C       -3.4119730    -0.3353390     0.1671430
  H        0.2239390    -2.4879400    -0.3067250
  H        3.5227950     0.2883690     0.1888050
  H        2.9194420    -2.3581700    -0.0891670
  H        0.6999810     2.3106600     0.9777950
  H        2.3913760     2.3394710     0.4091260
  H        1.0337950     2.4512300    -0.7527080
  H       -1.7260750    -1.5572290     0.6147920
  H       -4.0269330    -1.2262470     0.0275940
  H       -3.5972090     0.3657440    -0.6460440
  H       -3.6872220     0.1511560     1.1097960
units angstrom
no_reorient  #important for SAPT in psi4, default
symmetry c1  #important for SAPT in psi4, default
}

set PROPERTIES_ORIGIN ["COM"]
properties('MP2/aug-cc-pvtz', properties = ['dipole'])
--------------------------------------------------------------------------

    Molecular point group: c1
  Charge       = 0
  Multiplicity = 1
  Basis Set: AUG-CC-PVTZ
    Blend: AUG-CC-PVTZ
  Basis Set: (AUG-CC-PVTZ AUX)
    Blend: AUG-CC-PVTZ-JKFIT

    Orbital Energies [Eh]
    ---------------------

    Doubly Occupied:

       1A    -20.512951     2A    -15.629258     3A    -15.579077
       4A    -11.354020     5A    -11.269399     6A    -11.267068
       7A    -11.264794     8A    -11.255493     9A    -11.243809
      10A    -11.226673    11A     -1.369895    12A     -1.320507
      13A     -1.222079    14A     -1.078638    15A     -1.012021
      16A     -0.945887    17A     -0.936254    18A     -0.818951
      19A     -0.786529    20A     -0.759104    21A     -0.724040
      22A     -0.657883    23A     -0.644025    24A     -0.633450
      25A     -0.613650    26A     -0.593934    27A     -0.584439
      28A     -0.570669    29A     -0.549564    30A     -0.542851
      31A     -0.536153    32A     -0.526105    33A     -0.511030
      34A     -0.423645    35A     -0.389469    36A     -0.350518
      37A     -0.299463

  @DF-RHF Final Energy:  -454.78662446182597

   => Energetics <=

    Nuclear Repulsion Energy =            522.1235267272433020
    One-Electron Energy =               -1653.8137133872903632
    Two-Electron Energy =                 676.9035621982210387
    Total Energy =                       -454.7866244618259088
  Basis Set: (AUG-CC-PVTZ AUX)
    Blend: AUG-CC-PVTZ-RI
    Molecular point group: c1

    Geometry (in Angstrom), charge = 0, multiplicity = 1:

       Center              X                  Y                   Z               Mass
    ------------   -----------------  -----------------  -----------------  -----------------
         O           -1.343923123536     1.394566371920    -0.418694346179    15.994914619570
         N            1.392408876464     0.547604371920     0.057561653821    14.003074004430
         N           -2.029256123536    -0.720487628080     0.116771653821    14.003074004430
         C            0.322403676464    -0.225705928080     0.213327353821    12.000000000000
         C            0.802871876464    -1.601968628080    -0.159027346179    12.000000000000
         C            2.542001876464    -0.196751628080     0.068550653821    12.000000000000
         C            2.205322876464    -1.535128628080    -0.067460346179    12.000000000000
         C           -1.066244123536     0.218942371920    -0.136411346179    12.000000000000
         C            1.360345876464     2.003030371920     0.166125653821    12.000000000000
         C           -3.429153123536    -0.339380628080     0.152809653821    12.000000000000
         H            0.206758876464    -2.491981628080    -0.321058346179     1.007825032230
         H            3.505614876464     0.284327371920     0.174471653821     1.007825032230
         H            2.902261876464    -2.362211628080    -0.103500346179     1.007825032230
         H            0.682800876464     2.306618371920     0.963461653821     1.007825032230
         H            2.374195876464     2.335429371920     0.394792653821     1.007825032230
         H            1.016614876464     2.447188371920    -0.767041346179     1.007825032230
         H           -1.743255123536    -1.561270628080     0.600458653821     1.007825032230
         H           -4.044113123536    -1.230288628080     0.013260653821     1.007825032230
         H           -3.614389123536     0.361702371920    -0.660377346179     1.007825032230
         H           -3.704402123536     0.147114371920     1.095462653821     1.007825032230

  Basis Set: AUG-CC-PVTZ
    Blend: AUG-CC-PVTZ
  Basis Set: (AUG-CC-PVTZ AUX)
    Blend: AUG-CC-PVTZ-JKFIT
	 Reference Energy          =    -454.7866244618259657 [Eh]
	 Singles Energy            =      -0.0000000000000000 [Eh]
	 Same-Spin Energy          =      -0.4873378249895334 [Eh]
	 Opposite-Spin Energy      =      -1.5209993340081429 [Eh]
	 Correlation Energy        =      -2.0083371589976764 [Eh]
	 Total Energy              =    -456.7949616208236421 [Eh]

	 ================> DF-SCS-MP2 Energies <==================
	-----------------------------------------------------------
	 SCS Same-Spin Scale       =       0.3333333333333333 [-]
	 SCS Opposite-Spin Scale   =       1.2000000000000000 [-]
	 SCS Same-Spin Energy      =      -0.1624459416631778 [Eh]
	 SCS Opposite-Spin Energy  =      -1.8251992008097715 [Eh]
	 SCS Correlation Energy    =      -1.9876451424729493 [Eh]
	 SCS Total Energy          =    -456.7742696042989223 [Eh]
	-----------------------------------------------------------

  Dipole Moment: [D]
     X:     0.5562      Y:    -1.1430      Z:     1.2988     Total:     1.8173

*** Psi4 exiting successfully. Buy a developer a beer!
