                               Psi4 1.3.2 release

  ==> Input File <==

--------------------------------------------------------------------------
#psi4
#
memory 32 gb

molecule  {
0 1
  O       -1.3267430     1.3986080    -0.4043610
  N        1.4095890     0.5516460     0.0718950
  N       -2.0120760    -0.7164460     0.1311050
  C        0.3318733    -0.2683614     0.0333416
  C        0.8200520    -1.5979270    -0.1446940
  C        2.5591820    -0.1927100     0.0828840
  C        2.2225030    -1.5310870    -0.0531270
  C       -1.0490640     0.2229840    -0.1220780
  C        1.3775260     2.0070720     0.1804590
  C       -3.4119730    -0.3353390     0.1671430
  H        0.2239390    -2.4879400    -0.3067250
  H        3.5227950     0.2883690     0.1888050
  H        2.9194420    -2.3581700    -0.0891670
  H        0.6999810     2.3106600     0.9777950
  H        2.3913760     2.3394710     0.4091260
  H        1.0337950     2.4512300    -0.7527080
  H       -1.7260750    -1.5572290     0.6147920
  H       -4.0269330    -1.2262470     0.0275940
  H       -3.5972090     0.3657440    -0.6460440
  H       -3.6872220     0.1511560     1.1097960
units angstrom
no_reorient  #important for SAPT in psi4, default
symmetry c1  #important for SAPT in psi4, default
}

set PROPERTIES_ORIGIN ["COM"]
properties('MP2/aug-cc-pvtz', properties = ['dipole'])
--------------------------------------------------------------------------

    Molecular point group: c1
  Charge       = 0
  Multiplicity = 1
  Basis Set: AUG-CC-PVTZ
    Blend: AUG-CC-PVTZ
  Basis Set: (AUG-CC-PVTZ AUX)
    Blend: AUG-CC-PVTZ-JKFIT

    Orbital Energies [Eh]
    ---------------------

    Doubly Occupied:

       1A    -20.515423     2A    -15.623789     3A    -15.582038
       4A    -11.354723     5A    -11.266335     6A    -11.264257
       7A    -11.263911     8A    -11.256887     9A    -11.234950
      10A    -11.222135    11A     -1.372113    12A     -1.312789
      13A     -1.224930    14A     -1.080856    15A     -1.015947
      16A     -0.943126    17A     -0.938246    18A     -0.824492
      19A     -0.787718    20A     -0.761535    21A     -0.725204
      22A     -0.651930    23A     -0.644194    24A     -0.635205
      25A     -0.616139    26A     -0.594048    27A     -0.581710
      28A     -0.573869    29A     -0.549515    30A     -0.545980
      31A     -0.537611    32A     -0.532428    33A     -0.514132
      34A     -0.428772    35A     -0.392486    36A     -0.348182
      37A     -0.304236

  @DF-RHF Final Energy:  -454.81594597457871

   => Energetics <=

    Nuclear Repulsion Energy =            522.8157347775231756
    One-Electron Energy =               -1655.2196753306905066
    Two-Electron Energy =                 677.5879945785885639
    Total Energy =                       -454.8159459745787672
  Basis Set: (AUG-CC-PVTZ AUX)
    Blend: AUG-CC-PVTZ-RI
    Molecular point group: c1

    Geometry (in Angstrom), charge = 0, multiplicity = 1:

       Center              X                  Y                   Z               Mass
    ------------   -----------------  -----------------  -----------------  -----------------
         O           -1.343253030398     1.398624656887    -0.401806738975    15.994914619570
         N            1.393078969602     0.551662656887     0.074449261025    14.003074004430
         N           -2.028586030398    -0.716429343113     0.133659261025    14.003074004430
         C            0.315363269602    -0.268344743113     0.035895861025    12.000000000000
         C            0.803541969602    -1.597910343113    -0.142139738975    12.000000000000
         C            2.542671969602    -0.192693343113     0.085438261025    12.000000000000
         C            2.205992969602    -1.531070343113    -0.050572738975    12.000000000000
         C           -1.065574030398     0.223000656887    -0.119523738975    12.000000000000
         C            1.361015969602     2.007088656887     0.183013261025    12.000000000000
         C           -3.428483030398    -0.335322343113     0.169697261025    12.000000000000
         H            0.207428969602    -2.487923343113    -0.304170738975     1.007825032230
         H            3.506284969602     0.288385656887     0.191359261025     1.007825032230
         H            2.902931969602    -2.358153343113    -0.086612738975     1.007825032230
         H            0.683470969602     2.310676656887     0.980349261025     1.007825032230
         H            2.374865969602     2.339487656887     0.411680261025     1.007825032230
         H            1.017284969602     2.451246656887    -0.750153738975     1.007825032230
         H           -1.742585030398    -1.557212343113     0.617346261025     1.007825032230
         H           -4.043443030398    -1.226230343113     0.030148261025     1.007825032230
         H           -3.613719030398     0.365760656887    -0.643489738975     1.007825032230
         H           -3.703732030398     0.151172656887     1.112350261025     1.007825032230

  Basis Set: AUG-CC-PVTZ
    Blend: AUG-CC-PVTZ
  Basis Set: (AUG-CC-PVTZ AUX)
    Blend: AUG-CC-PVTZ-JKFIT
	 Reference Energy          =    -454.8159459745787103 [Eh]
	 Singles Energy            =      -0.0000000000000000 [Eh]
	 Same-Spin Energy          =      -0.4856959431896468 [Eh]
	 Opposite-Spin Energy      =      -1.5174223456410574 [Eh]
	 Correlation Energy        =      -2.0031182888307040 [Eh]
	 Total Energy              =    -456.8190642634094161 [Eh]

	 ================> DF-SCS-MP2 Energies <==================
	-----------------------------------------------------------
	 SCS Same-Spin Scale       =       0.3333333333333333 [-]
	 SCS Opposite-Spin Scale   =       1.2000000000000000 [-]
	 SCS Same-Spin Energy      =      -0.1618986477298823 [Eh]
	 SCS Opposite-Spin Energy  =      -1.8209068147692689 [Eh]
	 SCS Correlation Energy    =      -1.9828054624991511 [Eh]
	 SCS Total Energy          =    -456.7987514370778399 [Eh]
	-----------------------------------------------------------

  Dipole Moment: [D]
     X:     0.3521      Y:    -1.1540      Z:     1.3473     Total:     1.8085

*** Psi4 exiting successfully. Buy a developer a beer!
