                               Psi4 1.3.2 release

  ==> Input File <==

--------------------------------------------------------------------------
#psi4
#
memory 32 gb

molecule  {
0 1
  O       -1.3267430     1.3986080    -0.4043610
  N        1.4095890     0.5516460     0.0718950
  N       -2.0120760    -0.7164460     0.1311050
  C        0.3280180    -0.2917100    -0.0638180
  C        0.8200520    -1.5979270    -0.1446940
  C        2.5591820    -0.1927100     0.0828840
  C        2.2225030    -1.5310870    -0.0531270
  C       -1.0423108     0.2311510    -0.2215149
  C        1.3775260     2.0070720     0.1804590
  C       -3.4119730    -0.3353390     0.1671430
  H        0.2239390    -2.4879400    -0.3067250
  H        3.5227950     0.2883690     0.1888050
  H        2.9194420    -2.3581700    -0.0891670
  H        0.6999810     2.3106600     0.9777950
  H        2.3913760     2.3394710     0.4091260
  H        1.0337950     2.4512300    -0.7527080
  H       -1.7260750    -1.5572290     0.6147920
  H       -4.0269330    -1.2262470     0.0275940
  H       -3.5972090     0.3657440    -0.6460440
  H       -3.6872220     0.1511560     1.1097960
units angstrom
no_reorient  #important for SAPT in psi4, default
symmetry c1  #important for SAPT in psi4, default
}

set PROPERTIES_ORIGIN ["COM"]
properties('MP2/aug-cc-pvtz', properties = ['dipole'])
--------------------------------------------------------------------------

    Molecular point group: c1
  Charge       = 0
  Multiplicity = 1
  Basis Set: AUG-CC-PVTZ
    Blend: AUG-CC-PVTZ
  Basis Set: (AUG-CC-PVTZ AUX)
    Blend: AUG-CC-PVTZ-JKFIT

    Orbital Energies [Eh]
    ---------------------

    Doubly Occupied:

       1A    -20.523056     2A    -15.621381     3A    -15.575624
       4A    -11.356899     5A    -11.267624     6A    -11.264720
       7A    -11.263039     8A    -11.253332     9A    -11.233035
      10A    -11.220912    11A     -1.388060    12A     -1.308209
      13A     -1.215159    14A     -1.082907    15A     -1.014901
      16A     -0.939098    17A     -0.934642    18A     -0.824829
      19A     -0.787082    20A     -0.756795    21A     -0.725060
      22A     -0.651191    23A     -0.643065    24A     -0.636859
      25A     -0.613460    26A     -0.593616    27A     -0.580602
      28A     -0.578437    29A     -0.551089    30A     -0.545006
      31A     -0.539577    32A     -0.533285    33A     -0.517534
      34A     -0.433016    35A     -0.388986    36A     -0.348228
      37A     -0.306960

  @DF-RHF Final Energy:  -454.81598246588214

   => Energetics <=

    Nuclear Repulsion Energy =            522.6345641696324265
    One-Electron Energy =               -1654.8665462607289101
    Two-Electron Energy =                 677.4159996252144538
    Total Energy =                       -454.8159824658821435
  Basis Set: (AUG-CC-PVTZ AUX)
    Blend: AUG-CC-PVTZ-RI
    Molecular point group: c1

    Geometry (in Angstrom), charge = 0, multiplicity = 1:

       Center              X                  Y                   Z               Mass
    ------------   -----------------  -----------------  -----------------  -----------------
         O           -1.343504876959     1.399944037727    -0.384721210741    15.994914619570
         N            1.392827123041     0.552982037727     0.091534789259    14.003074004430
         N           -2.028837876959    -0.715109962273     0.150744789259    14.003074004430
         C            0.311256123041    -0.290373962273    -0.044178210741    12.000000000000
         C            0.803290123041    -1.596590962273    -0.125054210741    12.000000000000
         C            2.542420123041    -0.191373962273     0.102523789259    12.000000000000
         C            2.205741123041    -1.529750962273    -0.033487210741    12.000000000000
         C           -1.059072676959     0.232487037727    -0.201875110741    12.000000000000
         C            1.360764123041     2.008408037727     0.200098789259    12.000000000000
         C           -3.428734876959    -0.334002962273     0.186782789259    12.000000000000
         H            0.207177123041    -2.486603962273    -0.287085210741     1.007825032230
         H            3.506033123041     0.289705037727     0.208444789259     1.007825032230
         H            2.902680123041    -2.356833962273    -0.069527210741     1.007825032230
         H            0.683219123041     2.311996037727     0.997434789259     1.007825032230
         H            2.374614123041     2.340807037727     0.428765789259     1.007825032230
         H            1.017033123041     2.452566037727    -0.733068210741     1.007825032230
         H           -1.742836876959    -1.555892962273     0.634431789259     1.007825032230
         H           -4.043694876959    -1.224910962273     0.047233789259     1.007825032230
         H           -3.613970876959     0.367080037727    -0.626404210741     1.007825032230
         H           -3.703983876959     0.152492037727     1.129435789259     1.007825032230

  Basis Set: AUG-CC-PVTZ
    Blend: AUG-CC-PVTZ
  Basis Set: (AUG-CC-PVTZ AUX)
    Blend: AUG-CC-PVTZ-JKFIT
	 Reference Energy          =    -454.8159824658821435 [Eh]
	 Singles Energy            =      -0.0000000000000000 [Eh]
	 Same-Spin Energy          =      -0.4849551433576967 [Eh]
	 Opposite-Spin Energy      =      -1.5164784618548115 [Eh]
	 Correlation Energy        =      -2.0014336052125081 [Eh]
	 Total Energy              =    -456.8174160710946694 [Eh]

	 ================> DF-SCS-MP2 Energies <==================
	-----------------------------------------------------------
	 SCS Same-Spin Scale       =       0.3333333333333333 [-]
	 SCS Opposite-Spin Scale   =       1.2000000000000000 [-]
	 SCS Same-Spin Energy      =      -0.1616517144525656 [Eh]
	 SCS Opposite-Spin Energy  =      -1.8197741542257737 [Eh]
	 SCS Correlation Energy    =      -1.9814258686783393 [Eh]
	 SCS Total Energy          =    -456.7974083345604868 [Eh]
	-----------------------------------------------------------

  Dipole Moment: [D]
     X:     0.4747      Y:    -0.9755      Z:     1.1938     Total:     1.6131

*** Psi4 exiting successfully. Buy a developer a beer!
