                               Psi4 1.3.2 release

  ==> Input File <==

--------------------------------------------------------------------------
#psi4
#
memory 32 gb

molecule  {
0 1
  O       -1.3267430     1.3986080    -0.4043610
  N        1.4095890     0.5516460     0.0718950
  N       -2.0120760    -0.7164460     0.1311050
  C        0.3280180    -0.2917100    -0.0638180
  C        0.8200520    -1.5979270    -0.1446940
  C        2.5591820    -0.1927100     0.0828840
  C        2.2225030    -1.5310870    -0.0531270
  C       -1.0490640     0.2229840    -0.1220780
  C        1.3775260     2.0070720     0.1804590
  C       -3.4119730    -0.3353390     0.1671430
  H        0.2314402    -2.4773291    -0.4058771
  H        3.5227950     0.2883690     0.1888050
  H        2.9194420    -2.3581700    -0.0891670
  H        0.6999810     2.3106600     0.9777950
  H        2.3913760     2.3394710     0.4091260
  H        1.0337950     2.4512300    -0.7527080
  H       -1.7260750    -1.5572290     0.6147920
  H       -4.0269330    -1.2262470     0.0275940
  H       -3.5972090     0.3657440    -0.6460440
  H       -3.6872220     0.1511560     1.1097960
units angstrom
no_reorient  #important for SAPT in psi4, default
symmetry c1  #important for SAPT in psi4, default
}

set PROPERTIES_ORIGIN ["COM"]
properties('MP2/aug-cc-pvtz', properties = ['dipole'])
--------------------------------------------------------------------------

    Molecular point group: c1
  Charge       = 0
  Multiplicity = 1
  Basis Set: AUG-CC-PVTZ
    Blend: AUG-CC-PVTZ
  Basis Set: (AUG-CC-PVTZ AUX)
    Blend: AUG-CC-PVTZ-JKFIT

    Orbital Energies [Eh]
    ---------------------

    Doubly Occupied:

       1A    -20.516167     2A    -15.621120     3A    -15.582951
       4A    -11.354903     5A    -11.267046     6A    -11.263431
       7A    -11.263228     8A    -11.257156     9A    -11.232922
      10A    -11.220634    11A     -1.372374    12A     -1.306954
      13A     -1.225616    14A     -1.082357    15A     -1.016133
      16A     -0.941520    17A     -0.937975    18A     -0.825213
      19A     -0.786633    20A     -0.761944    21A     -0.724199
      22A     -0.651165    23A     -0.642147    24A     -0.634748
      25A     -0.617054    26A     -0.593387    27A     -0.579189
      28A     -0.574086    29A     -0.550680    30A     -0.547144
      31A     -0.536846    32A     -0.532323    33A     -0.513505
      34A     -0.429712    35A     -0.393265    36A     -0.347792
      37A     -0.306782

  @DF-RHF Final Energy:  -454.81909159783493

   => Energetics <=

    Nuclear Repulsion Energy =            522.7262042969350659
    One-Electron Energy =               -1655.0699884840371396
    Two-Electron Energy =                 677.5246925892671470
    Total Energy =                       -454.8190915978349267
  Basis Set: (AUG-CC-PVTZ AUX)
    Blend: AUG-CC-PVTZ-RI
    Molecular point group: c1

    Geometry (in Angstrom), charge = 0, multiplicity = 1:

       Center              X                  Y                   Z               Mass
    ------------   -----------------  -----------------  -----------------  -----------------
         O           -1.342972729881     1.400576355976    -0.392639231249    15.994914619570
         N            1.393359270119     0.553614355976     0.083616768751    14.003074004430
         N           -2.028305729881    -0.714477644024     0.142826768751    14.003074004430
         C            0.311788270119    -0.289741644024    -0.052096231249    12.000000000000
         C            0.803822270119    -1.595958644024    -0.132972231249    12.000000000000
         C            2.542952270119    -0.190741644024     0.094605768751    12.000000000000
         C            2.206273270119    -1.529118644024    -0.041405231249    12.000000000000
         C           -1.065293729881     0.224952355976    -0.110356231249    12.000000000000
         C            1.361296270119     2.009040355976     0.192180768751    12.000000000000
         C           -3.428202729881    -0.333370644024     0.178864768751    12.000000000000
         H            0.215210470119    -2.475360744024    -0.394155331249     1.007825032230
         H            3.506565270119     0.290337355976     0.200526768751     1.007825032230
         H            2.903212270119    -2.356201644024    -0.077445231249     1.007825032230
         H            0.683751270119     2.312628355976     0.989516768751     1.007825032230
         H            2.375146270119     2.341439355976     0.420847768751     1.007825032230
         H            1.017565270119     2.453198355976    -0.740986231249     1.007825032230
         H           -1.742304729881    -1.555260644024     0.626513768751     1.007825032230
         H           -4.043162729881    -1.224278644024     0.039315768751     1.007825032230
         H           -3.613438729881     0.367712355976    -0.634322231249     1.007825032230
         H           -3.703451729881     0.153124355976     1.121517768751     1.007825032230

  Basis Set: AUG-CC-PVTZ
    Blend: AUG-CC-PVTZ
  Basis Set: (AUG-CC-PVTZ AUX)
    Blend: AUG-CC-PVTZ-JKFIT
	 Reference Energy          =    -454.8190915978349267 [Eh]
	 Singles Energy            =      -0.0000000000000000 [Eh]
	 Same-Spin Energy          =      -0.4853341782067965 [Eh]
	 Opposite-Spin Energy      =      -1.5169996445259195 [Eh]
	 Correlation Energy        =      -2.0023338227327159 [Eh]
	 Total Energy              =    -456.8214254205676639 [Eh]

	 ================> DF-SCS-MP2 Energies <==================
	-----------------------------------------------------------
	 SCS Same-Spin Scale       =       0.3333333333333333 [-]
	 SCS Opposite-Spin Scale   =       1.2000000000000000 [-]
	 SCS Same-Spin Energy      =      -0.1617780594022655 [Eh]
	 SCS Opposite-Spin Energy  =      -1.8203995734311034 [Eh]
	 SCS Correlation Energy    =      -1.9821776328333689 [Eh]
	 SCS Total Energy          =    -456.8012692306683107 [Eh]
	-----------------------------------------------------------

  Dipole Moment: [D]
     X:     0.2962      Y:    -1.1648      Z:     1.2854     Total:     1.7598

*** Psi4 exiting successfully. Buy a developer a beer!
