                               Psi4 1.3.2 release

  ==> Input File <==

--------------------------------------------------------------------------
#psi4
#
memory 32 gb

molecule  {
0 1
  O       -1.3267430     1.3986080    -0.4043610
  N        1.4095890     0.5516460     0.0718950
  N       -2.0120760    -0.7164460     0.1311050
  C        0.3280180    -0.2917100    -0.0638180
  C        0.8200520    -1.5979270    -0.1446940
  C        2.5591820    -0.1927100     0.0828840
  C        2.2225030    -1.5310870    -0.0531270
  C       -1.0490640     0.2229840    -0.1220780
  C        1.3775260     2.0070720     0.1804590
  C       -3.4119730    -0.3353390     0.1671430
  H        0.2351908    -2.4720236    -0.4554532
  H        3.5227950     0.2883690     0.1888050
  H        2.9194420    -2.3581700    -0.0891670
  H        0.6999810     2.3106600     0.9777950
  H        2.3913760     2.3394710     0.4091260
  H        1.0337950     2.4512300    -0.7527080
  H       -1.7260750    -1.5572290     0.6147920
  H       -4.0269330    -1.2262470     0.0275940
  H       -3.5972090     0.3657440    -0.6460440
  H       -3.6872220     0.1511560     1.1097960
units angstrom
no_reorient  #important for SAPT in psi4, default
symmetry c1  #important for SAPT in psi4, default
}

set PROPERTIES_ORIGIN ["COM"]
properties('MP2/aug-cc-pvtz', properties = ['dipole'])
--------------------------------------------------------------------------

    Molecular point group: c1
  Charge       = 0
  Multiplicity = 1
  Basis Set: AUG-CC-PVTZ
    Blend: AUG-CC-PVTZ
  Basis Set: (AUG-CC-PVTZ AUX)
    Blend: AUG-CC-PVTZ-JKFIT

    Orbital Energies [Eh]
    ---------------------

    Doubly Occupied:

       1A    -20.516188     2A    -15.621307     3A    -15.582950
       4A    -11.354921     5A    -11.267081     6A    -11.263515
       7A    -11.263465     8A    -11.257138     9A    -11.233279
      10A    -11.220708    11A     -1.372409    12A     -1.307089
      13A     -1.225591    14A     -1.082340    15A     -1.016183
      16A     -0.941534    17A     -0.937858    18A     -0.825100
      19A     -0.786313    20A     -0.761923    21A     -0.723611
      22A     -0.651207    23A     -0.642195    24A     -0.634695
      25A     -0.617088    26A     -0.593033    27A     -0.578812
      28A     -0.574113    29A     -0.550682    30A     -0.547136
      31A     -0.536719    32A     -0.531880    33A     -0.513355
      34A     -0.429754    35A     -0.393214    36A     -0.347760
      37A     -0.306858

  @DF-RHF Final Energy:  -454.81821906203061

   => Energetics <=

    Nuclear Repulsion Energy =            522.6958441487851132
    One-Electron Energy =               -1655.0101247301586227
    Two-Electron Energy =                 677.4960615193430158
    Total Energy =                       -454.8182190620306073
  Basis Set: (AUG-CC-PVTZ AUX)
    Blend: AUG-CC-PVTZ-RI
    Molecular point group: c1

    Geometry (in Angstrom), charge = 0, multiplicity = 1:

       Center              X                  Y                   Z               Mass
    ------------   -----------------  -----------------  -----------------  -----------------
         O           -1.343000105079     1.400537631741    -0.392277380994    15.994914619570
         N            1.393331894921     0.553575631741     0.083978619006    14.003074004430
         N           -2.028333105079    -0.714516368259     0.143188619006    14.003074004430
         C            0.311760894921    -0.289780368259    -0.051734380994    12.000000000000
         C            0.803794894921    -1.595997368259    -0.132610380994    12.000000000000
         C            2.542924894921    -0.190780368259     0.094967619006    12.000000000000
         C            2.206245894921    -1.529157368259    -0.041043380994    12.000000000000
         C           -1.065321105079     0.224913631741    -0.109994380994    12.000000000000
         C            1.361268894921     2.009001631741     0.192542619006    12.000000000000
         C           -3.428230105079    -0.333409368259     0.179226619006    12.000000000000
         H            0.218933694921    -2.470093968259    -0.443369580994     1.007825032230
         H            3.506537894921     0.290298631741     0.200888619006     1.007825032230
         H            2.903184894921    -2.356240368259    -0.077083380994     1.007825032230
         H            0.683723894921     2.312589631741     0.989878619006     1.007825032230
         H            2.375118894921     2.341400631741     0.421209619006     1.007825032230
         H            1.017537894921     2.453159631741    -0.740624380994     1.007825032230
         H           -1.742332105079    -1.555299368259     0.626875619006     1.007825032230
         H           -4.043190105079    -1.224317368259     0.039677619006     1.007825032230
         H           -3.613466105079     0.367673631741    -0.633960380994     1.007825032230
         H           -3.703479105079     0.153085631741     1.121879619006     1.007825032230

  Basis Set: AUG-CC-PVTZ
    Blend: AUG-CC-PVTZ
  Basis Set: (AUG-CC-PVTZ AUX)
    Blend: AUG-CC-PVTZ-JKFIT
	 Reference Energy          =    -454.8182190620306073 [Eh]
	 Singles Energy            =      -0.0000000000000000 [Eh]
	 Same-Spin Energy          =      -0.4854054452725157 [Eh]
	 Opposite-Spin Energy      =      -1.5171450062586072 [Eh]
	 Correlation Energy        =      -2.0025504515311230 [Eh]
	 Total Energy              =    -456.8207695135617428 [Eh]

	 ================> DF-SCS-MP2 Energies <==================
	-----------------------------------------------------------
	 SCS Same-Spin Scale       =       0.3333333333333333 [-]
	 SCS Opposite-Spin Scale   =       1.2000000000000000 [-]
	 SCS Same-Spin Energy      =      -0.1618018150908385 [Eh]
	 SCS Opposite-Spin Energy  =      -1.8205740075103285 [Eh]
	 SCS Correlation Energy    =      -1.9823758226011670 [Eh]
	 SCS Total Energy          =    -456.8005948846317779 [Eh]
	-----------------------------------------------------------

  Dipole Moment: [D]
     X:     0.3055      Y:    -1.1501      Z:     1.2504     Total:     1.7262

*** Psi4 exiting successfully. Buy a developer a beer!
