                               Psi4 1.3.2 release

  ==> Input File <==

--------------------------------------------------------------------------
#psi4
#
memory 32 gb

molecule  {
0 1
  O       -1.3267430     1.3986080    -0.4043610
  N        1.4095890     0.5516460     0.0718950
  N       -2.0120760    -0.7164460     0.1311050
  C        0.3280180    -0.2917100    -0.0638180
  C        0.8200520    -1.5979270    -0.1446940
  C        2.5591820    -0.1927100     0.0828840
  C        2.2225030    -1.5310870    -0.0531270
  C       -1.0456874     0.2270675    -0.1717964
  C        1.3775260     2.0070720     0.1804590
  C       -3.4119730    -0.3353390     0.1671430
  H        0.2239390    -2.4879400    -0.3067250
  H        3.5227950     0.2883690     0.1888050
  H        2.9194420    -2.3581700    -0.0891670
  H        0.6999810     2.3106600     0.9777950
  H        2.3913760     2.3394710     0.4091260
  H        1.0337950     2.4512300    -0.7527080
  H       -1.7260750    -1.5572290     0.6147920
  H       -4.0269330    -1.2262470     0.0275940
  H       -3.5972090     0.3657440    -0.6460440
  H       -3.6872220     0.1511560     1.1097960
units angstrom
no_reorient  #important for SAPT in psi4, default
symmetry c1  #important for SAPT in psi4, default
}

set PROPERTIES_ORIGIN ["COM"]
properties('MP2/aug-cc-pvtz', properties = ['dipole'])
--------------------------------------------------------------------------

    Molecular point group: c1
  Charge       = 0
  Multiplicity = 1
  Basis Set: AUG-CC-PVTZ
    Blend: AUG-CC-PVTZ
  Basis Set: (AUG-CC-PVTZ AUX)
    Blend: AUG-CC-PVTZ-JKFIT

    Orbital Energies [Eh]
    ---------------------

    Doubly Occupied:

       1A    -20.519455     2A    -15.621164     3A    -15.579282
       4A    -11.355601     5A    -11.267318     6A    -11.264036
       7A    -11.262848     8A    -11.255295     9A    -11.232902
      10A    -11.220739    11A     -1.380303    12A     -1.307560
      13A     -1.220809    14A     -1.082651    15A     -1.015600
      16A     -0.938785    17A     -0.938001    18A     -0.825215
      19A     -0.787035    20A     -0.759538    21A     -0.725022
      22A     -0.650298    23A     -0.643218    24A     -0.636013
      25A     -0.615291    26A     -0.593796    27A     -0.580002
      28A     -0.576578    29A     -0.550851    30A     -0.546034
      31A     -0.538605    32A     -0.532944    33A     -0.515718
      34A     -0.431607    35A     -0.391459    36A     -0.348023
      37A     -0.306908

  @DF-RHF Final Energy:  -454.81940916787948

   => Energetics <=

    Nuclear Repulsion Energy =            522.7331319291032514
    One-Electron Energy =               -1655.0720783667006799
    Two-Electron Energy =                 677.5195372697178300
    Total Energy =                       -454.8194091678794848
  Basis Set: (AUG-CC-PVTZ AUX)
    Blend: AUG-CC-PVTZ-RI
    Molecular point group: c1

    Geometry (in Angstrom), charge = 0, multiplicity = 1:

       Center              X                  Y                   Z               Mass
    ------------   -----------------  -----------------  -----------------  -----------------
         O           -1.343211428222     1.400298920721    -0.389042075230    15.994914619570
         N            1.393120571778     0.553336920721     0.087213924770    14.003074004430
         N           -2.028544428222    -0.714755079279     0.146423924770    14.003074004430
         C            0.311549571778    -0.290019079279    -0.048499075230    12.000000000000
         C            0.803583571778    -1.596236079279    -0.129375075230    12.000000000000
         C            2.542713571778    -0.191019079279     0.098202924770    12.000000000000
         C            2.206034571778    -1.529396079279    -0.037808075230    12.000000000000
         C           -1.062155828222     0.228758420721    -0.156477475230    12.000000000000
         C            1.361057571778     2.008762920721     0.195777924770    12.000000000000
         C           -3.428441428222    -0.333648079279     0.182461924770    12.000000000000
         H            0.207470571778    -2.486249079279    -0.291406075230     1.007825032230
         H            3.506326571778     0.290059920721     0.204123924770     1.007825032230
         H            2.902973571778    -2.356479079279    -0.073848075230     1.007825032230
         H            0.683512571778     2.312350920721     0.993113924770     1.007825032230
         H            2.374907571778     2.341161920721     0.424444924770     1.007825032230
         H            1.017326571778     2.452920920721    -0.737389075230     1.007825032230
         H           -1.742543428222    -1.555538079279     0.630110924770     1.007825032230
         H           -4.043401428222    -1.224556079279     0.042912924770     1.007825032230
         H           -3.613677428222     0.367434920721    -0.630725075230     1.007825032230
         H           -3.703690428222     0.152846920721     1.125114924770     1.007825032230

  Basis Set: AUG-CC-PVTZ
    Blend: AUG-CC-PVTZ
  Basis Set: (AUG-CC-PVTZ AUX)
    Blend: AUG-CC-PVTZ-JKFIT
	 Reference Energy          =    -454.8194091678794848 [Eh]
	 Singles Energy            =      -0.0000000000000000 [Eh]
	 Same-Spin Energy          =      -0.4850315408459384 [Eh]
	 Opposite-Spin Energy      =      -1.5164854062361965 [Eh]
	 Correlation Energy        =      -2.0015169470821350 [Eh]
	 Total Energy              =    -456.8209261149615941 [Eh]

	 ================> DF-SCS-MP2 Energies <==================
	-----------------------------------------------------------
	 SCS Same-Spin Scale       =       0.3333333333333333 [-]
	 SCS Opposite-Spin Scale   =       1.2000000000000000 [-]
	 SCS Same-Spin Energy      =      -0.1616771802819794 [Eh]
	 SCS Opposite-Spin Energy  =      -1.8197824874834359 [Eh]
	 SCS Correlation Energy    =      -1.9814596677654153 [Eh]
	 SCS Total Energy          =    -456.8008688356449056 [Eh]
	-----------------------------------------------------------

  Dipole Moment: [D]
     X:     0.3790      Y:    -1.0816      Z:     1.2782     Total:     1.7167

*** Psi4 exiting successfully. Buy a developer a beer!
