                               Psi4 1.3.2 release

  ==> Input File <==

--------------------------------------------------------------------------
#psi4
#
memory 32 gb

molecule  {
0 1
  O       -1.3267430     1.3986080    -0.4043610
  N        1.4095890     0.5516460     0.0718950
  N       -2.0120760    -0.7164460     0.1311050
  C        0.3280180    -0.2917100    -0.0638180
  C        0.8200520    -1.5979270    -0.1446940
  C        2.5591820    -0.1927100     0.0828840
  C        2.2225030    -1.5310870    -0.0531270
  C       -1.0490640     0.2229840    -0.1220780
  C        1.3775260     2.0070720     0.1804590
  C       -3.4119730    -0.3353390     0.1671430
  H        0.2426921    -2.4614127    -0.5546053
  H        3.5227950     0.2883690     0.1888050
  H        2.9194420    -2.3581700    -0.0891670
  H        0.6999810     2.3106600     0.9777950
  H        2.3913760     2.3394710     0.4091260
  H        1.0337950     2.4512300    -0.7527080
  H       -1.7260750    -1.5572290     0.6147920
  H       -4.0269330    -1.2262470     0.0275940
  H       -3.5972090     0.3657440    -0.6460440
  H       -3.6872220     0.1511560     1.1097960
units angstrom
no_reorient  #important for SAPT in psi4, default
symmetry c1  #important for SAPT in psi4, default
}

set PROPERTIES_ORIGIN ["COM"]
properties('MP2/aug-cc-pvtz', properties = ['dipole'])
--------------------------------------------------------------------------

    Molecular point group: c1
  Charge       = 0
  Multiplicity = 1
  Basis Set: AUG-CC-PVTZ
    Blend: AUG-CC-PVTZ
  Basis Set: (AUG-CC-PVTZ AUX)
    Blend: AUG-CC-PVTZ-JKFIT

    Orbital Energies [Eh]
    ---------------------

    Doubly Occupied:

       1A    -20.516296     2A    -15.621831     3A    -15.582954
       4A    -11.355012     5A    -11.267205     6A    -11.264133
       7A    -11.263752     8A    -11.257103     9A    -11.234494
      10A    -11.220947    11A     -1.372537    12A     -1.307477
      13A     -1.225553    14A     -1.082310    15A     -1.016340
      16A     -0.941589    17A     -0.937538    18A     -0.824858
      19A     -0.785441    20A     -0.761907    21A     -0.721999
      22A     -0.651253    23A     -0.642379    24A     -0.634648
      25A     -0.617143    26A     -0.592231    27A     -0.577702
      28A     -0.574189    29A     -0.550563    30A     -0.547135
      31A     -0.536818    32A     -0.530225    33A     -0.512831
      34A     -0.429905    35A     -0.393116    36A     -0.347666
      37A     -0.307069

  @DF-RHF Final Energy:  -454.81534044468356

   => Energetics <=

    Nuclear Repulsion Energy =            522.6098195897510550
    One-Electron Energy =               -1654.8380159544399248
    Two-Electron Energy =                 677.4128559200051996
    Total Energy =                       -454.8153404446835566
  Basis Set: (AUG-CC-PVTZ AUX)
    Blend: AUG-CC-PVTZ-RI
    Molecular point group: c1

    Geometry (in Angstrom), charge = 0, multiplicity = 1:

       Center              X                  Y                   Z               Mass
    ------------   -----------------  -----------------  -----------------  -----------------
         O           -1.343054856206     1.400460184002    -0.391553681214    15.994914619570
         N            1.393277143794     0.553498184002     0.084702318786    14.003074004430
         N           -2.028387856206    -0.714593815998     0.143912318786    14.003074004430
         C            0.311706143794    -0.289857815998    -0.051010681214    12.000000000000
         C            0.803740143794    -1.596074815998    -0.131886681214    12.000000000000
         C            2.542870143794    -0.190857815998     0.095691318786    12.000000000000
         C            2.206191143794    -1.529234815998    -0.040319681214    12.000000000000
         C           -1.065375856206     0.224836184002    -0.109270681214    12.000000000000
         C            1.361214143794     2.008924184002     0.193266318786    12.000000000000
         C           -3.428284856206    -0.333486815998     0.179950318786    12.000000000000
         H            0.226380243794    -2.459560515998    -0.541797981214     1.007825032230
         H            3.506483143794     0.290221184002     0.201612318786     1.007825032230
         H            2.903130143794    -2.356317815998    -0.076359681214     1.007825032230
         H            0.683669143794     2.312512184002     0.990602318786     1.007825032230
         H            2.375064143794     2.341323184002     0.421933318786     1.007825032230
         H            1.017483143794     2.453082184002    -0.739900681214     1.007825032230
         H           -1.742386856206    -1.555376815998     0.627599318786     1.007825032230
         H           -4.043244856206    -1.224394815998     0.040401318786     1.007825032230
         H           -3.613520856206     0.367596184002    -0.633236681214     1.007825032230
         H           -3.703533856206     0.153008184002     1.122603318786     1.007825032230

  Basis Set: AUG-CC-PVTZ
    Blend: AUG-CC-PVTZ
  Basis Set: (AUG-CC-PVTZ AUX)
    Blend: AUG-CC-PVTZ-JKFIT
	 Reference Energy          =    -454.8153404446835566 [Eh]
	 Singles Energy            =      -0.0000000000000000 [Eh]
	 Same-Spin Energy          =      -0.4856033390454046 [Eh]
	 Opposite-Spin Energy      =      -1.5175885165156451 [Eh]
	 Correlation Energy        =      -2.0031918555610497 [Eh]
	 Total Energy              =    -456.8185323002446125 [Eh]

	 ================> DF-SCS-MP2 Energies <==================
	-----------------------------------------------------------
	 SCS Same-Spin Scale       =       0.3333333333333333 [-]
	 SCS Opposite-Spin Scale   =       1.2000000000000000 [-]
	 SCS Same-Spin Energy      =      -0.1618677796818015 [Eh]
	 SCS Opposite-Spin Energy  =      -1.8211062198187740 [Eh]
	 SCS Correlation Energy    =      -1.9829739995005755 [Eh]
	 SCS Total Energy          =    -456.7983144441841432 [Eh]
	-----------------------------------------------------------

  Dipole Moment: [D]
     X:     0.3304      Y:    -1.1102      Z:     1.1834     Total:     1.6559

*** Psi4 exiting successfully. Buy a developer a beer!
