                               Psi4 1.3.2 release

  ==> Input File <==

--------------------------------------------------------------------------
#psi4
#
memory 32 gb

molecule  {
0 1
  O       -1.3267430     1.3986080    -0.4043610
  N        1.4095890     0.5516460     0.0718950
  N       -2.0120760    -0.7164460     0.1311050
  C        0.3299456    -0.2800357    -0.0152382
  C        0.8200520    -1.5979270    -0.1446940
  C        2.5591820    -0.1927100     0.0828840
  C        2.2225030    -1.5310870    -0.0531270
  C       -1.0490640     0.2229840    -0.1220780
  C        1.3775260     2.0070720     0.1804590
  C       -3.4119730    -0.3353390     0.1671430
  H        0.2239390    -2.4879400    -0.3067250
  H        3.5227950     0.2883690     0.1888050
  H        2.9194420    -2.3581700    -0.0891670
  H        0.6999810     2.3106600     0.9777950
  H        2.3913760     2.3394710     0.4091260
  H        1.0337950     2.4512300    -0.7527080
  H       -1.7260750    -1.5572290     0.6147920
  H       -4.0269330    -1.2262470     0.0275940
  H       -3.5972090     0.3657440    -0.6460440
  H       -3.6872220     0.1511560     1.1097960
units angstrom
no_reorient  #important for SAPT in psi4, default
symmetry c1  #important for SAPT in psi4, default
}

set PROPERTIES_ORIGIN ["COM"]
properties('MP2/aug-cc-pvtz', properties = ['dipole'])
--------------------------------------------------------------------------

    Molecular point group: c1
  Charge       = 0
  Multiplicity = 1
  Basis Set: AUG-CC-PVTZ
    Blend: AUG-CC-PVTZ
  Basis Set: (AUG-CC-PVTZ AUX)
    Blend: AUG-CC-PVTZ-JKFIT

    Orbital Energies [Eh]
    ---------------------

    Doubly Occupied:

       1A    -20.515847     2A    -15.622346     3A    -15.582541
       4A    -11.354819     5A    -11.266525     6A    -11.263850
       7A    -11.263355     8A    -11.257070     9A    -11.233639
      10A    -11.221296    11A     -1.372304    12A     -1.309940
      13A     -1.225356    14A     -1.081607    15A     -1.016162
      16A     -0.942118    17A     -0.938480    18A     -0.825113
      19A     -0.787472    20A     -0.761828    21A     -0.725108
      22A     -0.651344    23A     -0.643256    24A     -0.635185
      25A     -0.616603    26A     -0.593969    27A     -0.580544
      28A     -0.574289    29A     -0.549937    30A     -0.546679
      31A     -0.537614    32A     -0.532657    33A     -0.514029
      34A     -0.429364    35A     -0.392974    36A     -0.347912
      37A     -0.305504

  @DF-RHF Final Energy:  -454.81885407946385

   => Energetics <=

    Nuclear Repulsion Energy =            522.8215938209057185
    One-Electron Energy =               -1655.2436277630092718
    Two-Electron Energy =                 677.6031798626397631
    Total Energy =                       -454.8188540794637902
  Basis Set: (AUG-CC-PVTZ AUX)
    Blend: AUG-CC-PVTZ-RI
    Molecular point group: c1

    Geometry (in Angstrom), charge = 0, multiplicity = 1:

       Center              X                  Y                   Z               Mass
    ------------   -----------------  -----------------  -----------------  -----------------
         O           -1.343085500596     1.399639230301    -0.397584835002    15.994914619570
         N            1.393246499404     0.552677230301     0.078671164998    14.003074004430
         N           -2.028418500596    -0.715414769699     0.137881164998    14.003074004430
         C            0.313603099404    -0.279004469699    -0.008462035002    12.000000000000
         C            0.803709499404    -1.596895769699    -0.137917835002    12.000000000000
         C            2.542839499404    -0.191678769699     0.089660164998    12.000000000000
         C            2.206160499404    -1.530055769699    -0.046350835002    12.000000000000
         C           -1.065406500596     0.224015230301    -0.115301835002    12.000000000000
         C            1.361183499404     2.008103230301     0.187235164998    12.000000000000
         C           -3.428315500596    -0.334307769699     0.173919164998    12.000000000000
         H            0.207596499404    -2.486908769699    -0.299948835002     1.007825032230
         H            3.506452499404     0.289400230301     0.195581164998     1.007825032230
         H            2.903099499404    -2.357138769699    -0.082390835002     1.007825032230
         H            0.683638499404     2.311691230301     0.984571164998     1.007825032230
         H            2.375033499404     2.340502230301     0.415902164998     1.007825032230
         H            1.017452499404     2.452261230301    -0.745931835002     1.007825032230
         H           -1.742417500596    -1.556197769699     0.621568164998     1.007825032230
         H           -4.043275500596    -1.225215769699     0.034370164998     1.007825032230
         H           -3.613551500596     0.366775230301    -0.639267835002     1.007825032230
         H           -3.703564500596     0.152187230301     1.116572164998     1.007825032230

  Basis Set: AUG-CC-PVTZ
    Blend: AUG-CC-PVTZ
  Basis Set: (AUG-CC-PVTZ AUX)
    Blend: AUG-CC-PVTZ-JKFIT
	 Reference Energy          =    -454.8188540794638470 [Eh]
	 Singles Energy            =      -0.0000000000000000 [Eh]
	 Same-Spin Energy          =      -0.4854410001375802 [Eh]
	 Opposite-Spin Energy      =      -1.5170472522303573 [Eh]
	 Correlation Energy        =      -2.0024882523679377 [Eh]
	 Total Energy              =    -456.8213423318317723 [Eh]

	 ================> DF-SCS-MP2 Energies <==================
	-----------------------------------------------------------
	 SCS Same-Spin Scale       =       0.3333333333333333 [-]
	 SCS Opposite-Spin Scale   =       1.2000000000000000 [-]
	 SCS Same-Spin Energy      =      -0.1618136667125267 [Eh]
	 SCS Opposite-Spin Energy  =      -1.8204567026764287 [Eh]
	 SCS Correlation Energy    =      -1.9822703693889554 [Eh]
	 SCS Total Energy          =    -456.8011244488528177 [Eh]
	-----------------------------------------------------------

  Dipole Moment: [D]
     X:     0.3149      Y:    -1.1666      Z:     1.3534     Total:     1.8143

*** Psi4 exiting successfully. Buy a developer a beer!
