                               Psi4 1.3.2 release

  ==> Input File <==

--------------------------------------------------------------------------
#psi4
#
memory 32 gb

molecule  {
0 1
  O       -1.3267430     1.3986080    -0.4043610
  N        1.4095890     0.5516460     0.0718950
  N       -2.0120760    -0.7164460     0.1311050
  C        0.3280180    -0.2917100    -0.0638180
  C        0.8200520    -1.5979270    -0.1446940
  C        2.5591820    -0.1927100     0.0828840
  C        2.2225030    -1.5310870    -0.0531270
  C       -1.0490640     0.2229840    -0.1220780
  C        1.3775260     2.0070720     0.1804590
  C       -3.4119730    -0.3353390     0.1671430
  H        0.2239390    -2.4879400    -0.3067250
  H        3.5227950     0.2883690     0.1888050
  H        2.9194420    -2.3581700    -0.0891670
  H        0.6999810     2.3106600     0.9777950
  H        2.3913760     2.3394710     0.4091260
  H        1.0337950     2.4512300    -0.7527080
  H       -1.7260750    -1.5572290     0.6147920
  H       -4.0269330    -1.2262470     0.0275940
  H       -3.5972090     0.3657440    -0.6460440
  H       -3.6872220     0.1511560     1.1097960
units angstrom
no_reorient  #important for SAPT in psi4, default
symmetry c1  #important for SAPT in psi4, default
}

set PROPERTIES_ORIGIN ["COM"]
properties('MP2/aug-cc-pvtz', properties = ['dipole'])
--------------------------------------------------------------------------

    Molecular point group: c1
  Charge       = 0
  Multiplicity = 1
  Basis Set: AUG-CC-PVTZ
    Blend: AUG-CC-PVTZ
  Basis Set: (AUG-CC-PVTZ AUX)
    Blend: AUG-CC-PVTZ-JKFIT

    Orbital Energies [Eh]
    ---------------------

    Doubly Occupied:

       1A    -20.516194     2A    -15.620905     3A    -15.582956
       4A    -11.354924     5A    -11.267027     6A    -11.263343
       7A    -11.262948     8A    -11.257195     9A    -11.232735
      10A    -11.220576    11A     -1.372366    12A     -1.306807
      13A     -1.225675    14A     -1.082387    15A     -1.016091
      16A     -0.941515    17A     -0.938105    18A     -0.825398
      19A     -0.786967    20A     -0.762013    21A     -0.724872
      22A     -0.651041    23A     -0.642145    24A     -0.634905
      25A     -0.616974    26A     -0.593863    27A     -0.579597
      28A     -0.574072    29A     -0.550556    30A     -0.547173
      31A     -0.537468    32A     -0.532466    33A     -0.513651
      34A     -0.429698    35A     -0.393369    36A     -0.347817
      37A     -0.306690

  @DF-RHF Final Energy:  -454.81988825465737

   => Energetics <=

    Nuclear Repulsion Energy =            522.7598357639823234
    One-Electron Energy =               -1655.1344842742007586
    Two-Electron Energy =                 677.5547602555609501
    Total Energy =                       -454.8198882546573714
  Basis Set: (AUG-CC-PVTZ AUX)
    Blend: AUG-CC-PVTZ-RI
    Molecular point group: c1

    Geometry (in Angstrom), charge = 0, multiplicity = 1:

       Center              X                  Y                   Z               Mass
    ------------   -----------------  -----------------  -----------------  -----------------
         O           -1.342917979485     1.400653803715    -0.393362931029    15.994914619570
         N            1.393414020515     0.553691803715     0.082893068971    14.003074004430
         N           -2.028250979485    -0.714400196285     0.142103068971    14.003074004430
         C            0.311843020515    -0.289664196285    -0.052819931029    12.000000000000
         C            0.803877020515    -1.595881196285    -0.133695931029    12.000000000000
         C            2.543007020515    -0.190664196285     0.093882068971    12.000000000000
         C            2.206328020515    -1.529041196285    -0.042128931029    12.000000000000
         C           -1.065238979485     0.225029803715    -0.111079931029    12.000000000000
         C            1.361351020515     2.009117803715     0.191457068971    12.000000000000
         C           -3.428147979485    -0.333293196285     0.178141068971    12.000000000000
         H            0.207764020515    -2.485894196285    -0.295726931029     1.007825032230
         H            3.506620020515     0.290414803715     0.199803068971     1.007825032230
         H            2.903267020515    -2.356124196285    -0.078168931029     1.007825032230
         H            0.683806020515     2.312705803715     0.988793068971     1.007825032230
         H            2.375201020515     2.341516803715     0.420124068971     1.007825032230
         H            1.017620020515     2.453275803715    -0.741709931029     1.007825032230
         H           -1.742249979485    -1.555183196285     0.625790068971     1.007825032230
         H           -4.043107979485    -1.224201196285     0.038592068971     1.007825032230
         H           -3.613383979485     0.367789803715    -0.635045931029     1.007825032230
         H           -3.703396979485     0.153201803715     1.120794068971     1.007825032230

  Basis Set: AUG-CC-PVTZ
    Blend: AUG-CC-PVTZ
  Basis Set: (AUG-CC-PVTZ AUX)
    Blend: AUG-CC-PVTZ-JKFIT
	 Reference Energy          =    -454.8198882546573714 [Eh]
	 Singles Energy            =      -0.0000000000000000 [Eh]
	 Same-Spin Energy          =      -0.4852512371176693 [Eh]
	 Opposite-Spin Energy      =      -1.5168563323102973 [Eh]
	 Correlation Energy        =      -2.0021075694279666 [Eh]
	 Total Energy              =    -456.8219958240853202 [Eh]

	 ================> DF-SCS-MP2 Energies <==================
	-----------------------------------------------------------
	 SCS Same-Spin Scale       =       0.3333333333333333 [-]
	 SCS Opposite-Spin Scale   =       1.2000000000000000 [-]
	 SCS Same-Spin Energy      =      -0.1617504123725564 [Eh]
	 SCS Opposite-Spin Energy  =      -1.8202275987723566 [Eh]
	 SCS Correlation Energy    =      -1.9819780111449130 [Eh]
	 SCS Total Energy          =    -456.8018662658022890 [Eh]
	-----------------------------------------------------------

  Dipole Moment: [D]
     X:     0.2842      Y:    -1.1830      Z:     1.3578     Total:     1.8232

*** Psi4 exiting successfully. Buy a developer a beer!
