                               Psi4 1.3.2 release

  ==> Input File <==

--------------------------------------------------------------------------
#psi4
#
memory 32 gb

molecule  {
0 1
  O       -1.3267430     1.3986080    -0.4043610
  N        1.4095890     0.5516460     0.0718950
  N       -2.0120760    -0.7164460     0.1311050
  C        0.3280180    -0.2917100    -0.0638180
  C        0.8200520    -1.5979270    -0.1446940
  C        2.5591820    -0.1927100     0.0828840
  C        2.2225030    -1.5310870    -0.0531270
  C       -1.0490640     0.2229840    -0.1220780
  C        1.3775260     2.0070720     0.1804590
  C       -3.4119730    -0.3353390     0.1671430
  H        0.2389415    -2.4667182    -0.5050292
  H        3.5227950     0.2883690     0.1888050
  H        2.9194420    -2.3581700    -0.0891670
  H        0.6999810     2.3106600     0.9777950
  H        2.3913760     2.3394710     0.4091260
  H        1.0337950     2.4512300    -0.7527080
  H       -1.7260750    -1.5572290     0.6147920
  H       -4.0269330    -1.2262470     0.0275940
  H       -3.5972090     0.3657440    -0.6460440
  H       -3.6872220     0.1511560     1.1097960
units angstrom
no_reorient  #important for SAPT in psi4, default
symmetry c1  #important for SAPT in psi4, default
}

set PROPERTIES_ORIGIN ["COM"]
properties('MP2/aug-cc-pvtz', properties = ['dipole'])
--------------------------------------------------------------------------

    Molecular point group: c1
  Charge       = 0
  Multiplicity = 1
  Basis Set: AUG-CC-PVTZ
    Blend: AUG-CC-PVTZ
  Basis Set: (AUG-CC-PVTZ AUX)
    Blend: AUG-CC-PVTZ-JKFIT

    Orbital Energies [Eh]
    ---------------------

    Doubly Occupied:

       1A    -20.516231     2A    -15.621545     3A    -15.582951
       4A    -11.354957     5A    -11.267134     6A    -11.263770
       7A    -11.263620     8A    -11.257120     9A    -11.233805
      10A    -11.220812    11A     -1.372463    12A     -1.307264
      13A     -1.225570    14A     -1.082323    15A     -1.016251
      16A     -0.941556    17A     -0.937710    18A     -0.824979
      19A     -0.785909    20A     -0.761911    21A     -0.722872
      22A     -0.651236    23A     -0.642272    24A     -0.634661
      25A     -0.617118    26A     -0.592638    27A     -0.578315
      28A     -0.574150    29A     -0.550643    30A     -0.547133
      31A     -0.536720    32A     -0.531173    33A     -0.513137
      34A     -0.429818    35A     -0.393165    36A     -0.347718
      37A     -0.306953

  @DF-RHF Final Energy:  -454.81698339754803

   => Energetics <=

    Nuclear Repulsion Energy =            522.6568976199922645
    One-Electron Energy =               -1654.9325556193705324
    Two-Electron Energy =                 677.4586746018303529
    Total Energy =                       -454.8169833975480287
  Basis Set: (AUG-CC-PVTZ AUX)
    Blend: AUG-CC-PVTZ-RI
    Molecular point group: c1

    Geometry (in Angstrom), charge = 0, multiplicity = 1:

       Center              X                  Y                   Z               Mass
    ------------   -----------------  -----------------  -----------------  -----------------
         O           -1.343027481007     1.400498908237    -0.391915531469    15.994914619570
         N            1.393304518993     0.553536908237     0.084340468531    14.003074004430
         N           -2.028360481007    -0.714555091763     0.143550468531    14.003074004430
         C            0.311733518993    -0.289819091763    -0.051372531469    12.000000000000
         C            0.803767518993    -1.596036091763    -0.132248531469    12.000000000000
         C            2.542897518993    -0.190819091763     0.095329468531    12.000000000000
         C            2.206218518993    -1.529196091763    -0.040681531469    12.000000000000
         C           -1.065348481007     0.224874908237    -0.109632531469    12.000000000000
         C            1.361241518993     2.008962908237     0.192904468531    12.000000000000
         C           -3.428257481007    -0.333448091763     0.179588468531    12.000000000000
         H            0.222657018993    -2.464827291763    -0.492583731469     1.007825032230
         H            3.506510518993     0.290259908237     0.201250468531     1.007825032230
         H            2.903157518993    -2.356279091763    -0.076721531469     1.007825032230
         H            0.683696518993     2.312550908237     0.990240468531     1.007825032230
         H            2.375091518993     2.341361908237     0.421571468531     1.007825032230
         H            1.017510518993     2.453120908237    -0.740262531469     1.007825032230
         H           -1.742359481007    -1.555338091763     0.627237468531     1.007825032230
         H           -4.043217481007    -1.224356091763     0.040039468531     1.007825032230
         H           -3.613493481007     0.367634908237    -0.633598531469     1.007825032230
         H           -3.703506481007     0.153046908237     1.122241468531     1.007825032230

  Basis Set: AUG-CC-PVTZ
    Blend: AUG-CC-PVTZ
  Basis Set: (AUG-CC-PVTZ AUX)
    Blend: AUG-CC-PVTZ-JKFIT
	 Reference Energy          =    -454.8169833975480287 [Eh]
	 Singles Energy            =      -0.0000000000000000 [Eh]
	 Same-Spin Energy          =      -0.4854955522231334 [Eh]
	 Opposite-Spin Energy      =      -1.5173412795552355 [Eh]
	 Correlation Energy        =      -2.0028368317783687 [Eh]
	 Total Energy              =    -456.8198202293264103 [Eh]

	 ================> DF-SCS-MP2 Energies <==================
	-----------------------------------------------------------
	 SCS Same-Spin Scale       =       0.3333333333333333 [-]
	 SCS Opposite-Spin Scale   =       1.2000000000000000 [-]
	 SCS Same-Spin Energy      =      -0.1618318507410444 [Eh]
	 SCS Opposite-Spin Energy  =      -1.8208095354662825 [Eh]
	 SCS Correlation Energy    =      -1.9826413862073271 [Eh]
	 SCS Total Energy          =    -456.7996247837553483 [Eh]
	-----------------------------------------------------------

  Dipole Moment: [D]
     X:     0.3169      Y:    -1.1319      Z:     1.2163     Total:     1.6915

*** Psi4 exiting successfully. Buy a developer a beer!
