                               Psi4 1.3.2 release

  ==> Input File <==

--------------------------------------------------------------------------
#psi4
#
memory 32 gb

molecule  {
0 1
  O       -1.3267430     1.3986080    -0.4043610
  N        1.4095890     0.5516460     0.0718950
  N       -2.0120760    -0.7164460     0.1311050
  C        0.3376561    -0.2333385     0.1790809
  C        0.8200520    -1.5979270    -0.1446940
  C        2.5591820    -0.1927100     0.0828840
  C        2.2225030    -1.5310870    -0.0531270
  C       -1.0490640     0.2229840    -0.1220780
  C        1.3775260     2.0070720     0.1804590
  C       -3.4119730    -0.3353390     0.1671430
  H        0.2239390    -2.4879400    -0.3067250
  H        3.5227950     0.2883690     0.1888050
  H        2.9194420    -2.3581700    -0.0891670
  H        0.6999810     2.3106600     0.9777950
  H        2.3913760     2.3394710     0.4091260
  H        1.0337950     2.4512300    -0.7527080
  H       -1.7260750    -1.5572290     0.6147920
  H       -4.0269330    -1.2262470     0.0275940
  H       -3.5972090     0.3657440    -0.6460440
  H       -3.6872220     0.1511560     1.1097960
units angstrom
no_reorient  #important for SAPT in psi4, default
symmetry c1  #important for SAPT in psi4, default
}

set PROPERTIES_ORIGIN ["COM"]
properties('MP2/aug-cc-pvtz', properties = ['dipole'])
--------------------------------------------------------------------------

    Molecular point group: c1
  Charge       = 0
  Multiplicity = 1
  Basis Set: AUG-CC-PVTZ
    Blend: AUG-CC-PVTZ
  Basis Set: (AUG-CC-PVTZ AUX)
    Blend: AUG-CC-PVTZ-JKFIT

    Orbital Energies [Eh]
    ---------------------

    Doubly Occupied:

       1A    -20.513685     2A    -15.627984     3A    -15.579963
       4A    -11.354297     5A    -11.267987     6A    -11.266197
       7A    -11.264830     8A    -11.255950     9A    -11.241112
      10A    -11.225360    11A     -1.370685    12A     -1.319199
      13A     -1.222970    14A     -1.079026    15A     -1.013478
      16A     -0.945557    17A     -0.936755    18A     -0.820741
      19A     -0.787092    20A     -0.759915    21A     -0.724573
      22A     -0.656023    23A     -0.644591    24A     -0.634119
      25A     -0.614341    26A     -0.594026    27A     -0.584194
      28A     -0.571500    29A     -0.549290    30A     -0.543548
      31A     -0.536742    32A     -0.528521    33A     -0.512447
      34A     -0.425360    35A     -0.390398    36A     -0.349801
      37A     -0.300492

  @DF-RHF Final Energy:  -454.79644294333400

   => Energetics <=

    Nuclear Repulsion Energy =            522.3951429522494436
    One-Electron Energy =               -1654.3576707994541266
    Two-Electron Energy =                 677.1660849038706829
    Total Energy =                       -454.7964429433340001
  Basis Set: (AUG-CC-PVTZ AUX)
    Blend: AUG-CC-PVTZ-RI
    Molecular point group: c1

    Geometry (in Angstrom), charge = 0, multiplicity = 1:

       Center              X                  Y                   Z               Mass
    ------------   -----------------  -----------------  -----------------  -----------------
         O           -1.343755593733     1.395580936643    -0.414472442205    15.994914619570
         N            1.392576406267     0.548618936643     0.061783557795    14.003074004430
         N           -2.029088593733    -0.719473063357     0.120993557795    14.003074004430
         C            0.320643506267    -0.236365563357     0.168969457795    12.000000000000
         C            0.803039406267    -1.600954063357    -0.154805442205    12.000000000000
         C            2.542169406267    -0.195737063357     0.072772557795    12.000000000000
         C            2.205490406267    -1.534114063357    -0.063238442205    12.000000000000
         C           -1.066076593733     0.219956936643    -0.132189442205    12.000000000000
         C            1.360513406267     2.004044936643     0.170347557795    12.000000000000
         C           -3.428985593733    -0.338366063357     0.157031557795    12.000000000000
         H            0.206926406267    -2.490967063357    -0.316836442205     1.007825032230
         H            3.505782406267     0.285341936643     0.178693557795     1.007825032230
         H            2.902429406267    -2.361197063357    -0.099278442205     1.007825032230
         H            0.682968406267     2.307632936643     0.967683557795     1.007825032230
         H            2.374363406267     2.336443936643     0.399014557795     1.007825032230
         H            1.016782406267     2.448202936643    -0.762819442205     1.007825032230
         H           -1.743087593733    -1.560256063357     0.604680557795     1.007825032230
         H           -4.043945593733    -1.229274063357     0.017482557795     1.007825032230
         H           -3.614221593733     0.362716936643    -0.656155442205     1.007825032230
         H           -3.704234593733     0.148128936643     1.099684557795     1.007825032230

  Basis Set: AUG-CC-PVTZ
    Blend: AUG-CC-PVTZ
  Basis Set: (AUG-CC-PVTZ AUX)
    Blend: AUG-CC-PVTZ-JKFIT
	 Reference Energy          =    -454.7964429433340001 [Eh]
	 Singles Energy            =      -0.0000000000000000 [Eh]
	 Same-Spin Energy          =      -0.4868424361501040 [Eh]
	 Opposite-Spin Energy      =      -1.5197869057702225 [Eh]
	 Correlation Energy        =      -2.0066293419203265 [Eh]
	 Total Energy              =    -456.8030722852543022 [Eh]

	 ================> DF-SCS-MP2 Energies <==================
	-----------------------------------------------------------
	 SCS Same-Spin Scale       =       0.3333333333333333 [-]
	 SCS Opposite-Spin Scale   =       1.2000000000000000 [-]
	 SCS Same-Spin Energy      =      -0.1622808120500347 [Eh]
	 SCS Opposite-Spin Energy  =      -1.8237442869242668 [Eh]
	 SCS Correlation Energy    =      -1.9860250989743016 [Eh]
	 SCS Total Energy          =    -456.7824680423083237 [Eh]
	-----------------------------------------------------------

  Dipole Moment: [D]
     X:     0.4985      Y:    -1.1403      Z:     1.3148     Total:     1.8104

*** Psi4 exiting successfully. Buy a developer a beer!
