                               Psi4 1.3.2 release

  ==> Input File <==

--------------------------------------------------------------------------
#psi4
#
memory 32 gb

molecule  {
0 1
  O       -1.3267430     1.3986080    -0.4043610
  N        1.4095890     0.5516460     0.0718950
  N       -2.0120760    -0.7164460     0.1311050
  C        0.3280180    -0.2917100    -0.0638180
  C        0.8200520    -1.5979270    -0.1446940
  C        2.5591820    -0.1927100     0.0828840
  C        2.2225030    -1.5310870    -0.0531270
  C       -1.0288043     0.2474851    -0.4203886
  C        1.3775260     2.0070720     0.1804590
  C       -3.4119730    -0.3353390     0.1671430
  H        0.2239390    -2.4879400    -0.3067250
  H        3.5227950     0.2883690     0.1888050
  H        2.9194420    -2.3581700    -0.0891670
  H        0.6999810     2.3106600     0.9777950
  H        2.3913760     2.3394710     0.4091260
  H        1.0337950     2.4512300    -0.7527080
  H       -1.7260750    -1.5572290     0.6147920
  H       -4.0269330    -1.2262470     0.0275940
  H       -3.5972090     0.3657440    -0.6460440
  H       -3.6872220     0.1511560     1.1097960
units angstrom
no_reorient  #important for SAPT in psi4, default
symmetry c1  #important for SAPT in psi4, default
}

set PROPERTIES_ORIGIN ["COM"]
properties('MP2/aug-cc-pvtz', properties = ['dipole'])
--------------------------------------------------------------------------

    Molecular point group: c1
  Charge       = 0
  Multiplicity = 1
  Basis Set: AUG-CC-PVTZ
    Blend: AUG-CC-PVTZ
  Basis Set: (AUG-CC-PVTZ AUX)
    Blend: AUG-CC-PVTZ-JKFIT

    Orbital Energies [Eh]
    ---------------------

    Doubly Occupied:

       1A    -20.540517     2A    -15.621911     3A    -15.561521
       4A    -11.367789     5A    -11.269037     6A    -11.267280
       7A    -11.266684     8A    -11.245171     9A    -11.233334
      10A    -11.221756    11A     -1.412445    12A     -1.310034
      13A     -1.188511    14A     -1.083886    15A     -1.010251
      16A     -0.940823    17A     -0.919213    18A     -0.821323
      19A     -0.787163    20A     -0.745580    21A     -0.722976
      22A     -0.660251    23A     -0.640800    24A     -0.635186
      25A     -0.605390    26A     -0.592852    27A     -0.583343
      28A     -0.580234    29A     -0.551909    30A     -0.544998
      31A     -0.539342    32A     -0.532763    33A     -0.521293
      34A     -0.432130    35A     -0.375554    36A     -0.349051
      37A     -0.305633

  @DF-RHF Final Energy:  -454.77548021083589

   => Energetics <=

    Nuclear Repulsion Energy =            521.5209362245593638
    One-Electron Energy =               -1652.6169636161316703
    Two-Electron Energy =                 676.3205471807364120
    Total Energy =                       -454.7754802108358945
  Basis Set: (AUG-CC-PVTZ AUX)
    Blend: AUG-CC-PVTZ-RI
    Molecular point group: c1

    Geometry (in Angstrom), charge = 0, multiplicity = 1:

       Center              X                  Y                   Z               Mass
    ------------   -----------------  -----------------  -----------------  -----------------
         O           -1.344678680598     1.398524497060    -0.367437778857    15.994914619570
         N            1.391653319402     0.551562497060     0.108818221143    14.003074004430
         N           -2.030011680598    -0.716529502940     0.168028221143    14.003074004430
         C            0.310082319402    -0.291793502940    -0.026894778857    12.000000000000
         C            0.802116319402    -1.598010502940    -0.107770778857    12.000000000000
         C            2.541246319402    -0.192793502940     0.119807221143    12.000000000000
         C            2.204567319402    -1.531170502940    -0.016203778857    12.000000000000
         C           -1.046739980598     0.247401597060    -0.383465378857    12.000000000000
         C            1.359590319402     2.006988497060     0.217382221143    12.000000000000
         C           -3.429908680598    -0.335422502940     0.204066221143    12.000000000000
         H            0.206003319402    -2.488023502940    -0.269801778857     1.007825032230
         H            3.504859319402     0.288285497060     0.225728221143     1.007825032230
         H            2.901506319402    -2.358253502940    -0.052243778857     1.007825032230
         H            0.682045319402     2.310576497060     1.014718221143     1.007825032230
         H            2.373440319402     2.339387497060     0.446049221143     1.007825032230
         H            1.015859319402     2.451146497060    -0.715784778857     1.007825032230
         H           -1.744010680598    -1.557312502940     0.651715221143     1.007825032230
         H           -4.044868680598    -1.226330502940     0.064517221143     1.007825032230
         H           -3.615144680598     0.365660497060    -0.609120778857     1.007825032230
         H           -3.705157680598     0.151072497060     1.146719221143     1.007825032230

  Basis Set: AUG-CC-PVTZ
    Blend: AUG-CC-PVTZ
  Basis Set: (AUG-CC-PVTZ AUX)
    Blend: AUG-CC-PVTZ-JKFIT
	 Reference Energy          =    -454.7754802108358945 [Eh]
	 Singles Energy            =      -0.0000000000000000 [Eh]
	 Same-Spin Energy          =      -0.4861133331744568 [Eh]
	 Opposite-Spin Energy      =      -1.5202428879055097 [Eh]
	 Correlation Energy        =      -2.0063562210799666 [Eh]
	 Total Energy              =    -456.7818364319158491 [Eh]

	 ================> DF-SCS-MP2 Energies <==================
	-----------------------------------------------------------
	 SCS Same-Spin Scale       =       0.3333333333333333 [-]
	 SCS Opposite-Spin Scale   =       1.2000000000000000 [-]
	 SCS Same-Spin Energy      =      -0.1620377777248189 [Eh]
	 SCS Opposite-Spin Energy  =      -1.8242914654866116 [Eh]
	 SCS Correlation Energy    =      -1.9863292432114306 [Eh]
	 SCS Total Energy          =    -456.7618094540473521 [Eh]
	-----------------------------------------------------------

  Dipole Moment: [D]
     X:     0.8562      Y:    -0.5290      Z:     0.8320     Total:     1.3058

*** Psi4 exiting successfully. Buy a developer a beer!
