                               Psi4 1.4a2.dev612

  ==> Input File <==

--------------------------------------------------------------------------
#psi4
#
memory 32 gb

molecule  {
0 1
  F        1.7208570    -1.0902790    -0.8752740
  F        3.1532380    -0.0000170     0.3563710
  F        1.7208700     1.0903230    -0.8752070
  C        0.8974370    -0.0000310     1.0591370
  C       -0.5302430    -0.0000150     0.5808570
  C        1.8729300     0.0000000    -0.0891720
  C       -1.1687706     1.2401743     0.4273097
  C       -1.1942010    -1.2077630     0.3361780
  C       -2.5084950     1.2080460    -0.1321620
  C       -2.5085200    -1.2080290    -0.1321720
  C       -3.1681670     0.0000160    -0.3683210
  H        1.1172230    -0.8840660     1.6657090
  H        1.1172220     0.8839640     1.6657670
  H       -0.6807710     2.1502980     0.5162590
  H       -0.6808140    -2.1503240     0.5162400
  H       -3.0168760     2.1516900    -0.3146600
  H       -3.0169200    -2.1516620    -0.3146780
  H       -4.1931340     0.0000280    -0.7308390
units angstrom
no_reorient  #important for SAPT in psi4, default
symmetry c1  #important for SAPT in psi4, default
}

set PROPERTIES_ORIGIN ["COM"]
properties('MP2/aug-cc-pvtz', properties = ['dipole'])
--------------------------------------------------------------------------

    Molecular point group: c1
  Charge       = 0
  Multiplicity = 1
  Basis Set: AUG-CC-PVTZ
    Blend: AUG-CC-PVTZ
  Basis Set: (AUG-CC-PVTZ AUX)
    Blend: AUG-CC-PVTZ-JKFIT

    Orbital Energies [Eh]
    ---------------------

    Doubly Occupied:

       1A    -26.332687     2A    -26.332301     3A    -26.332142
       4A    -11.503025     5A    -11.266173     6A    -11.260497
       7A    -11.252772     8A    -11.248784     9A    -11.248285
      10A    -11.246683    11A    -11.245145    12A     -1.716348
      13A     -1.625057    14A     -1.624552    15A     -1.166225
      16A     -1.093272    17A     -1.019920    18A     -1.005623
      19A     -0.916190    20A     -0.844904    21A     -0.826854
      22A     -0.813664    23A     -0.808973    24A     -0.765871
      25A     -0.710731    26A     -0.704928    27A     -0.698365
      28A     -0.661533    29A     -0.659149    30A     -0.649823
      31A     -0.643320    32A     -0.641261    33A     -0.598186
      34A     -0.585927    35A     -0.576607    36A     -0.566553
      37A     -0.510864    38A     -0.500995    39A     -0.495226
      40A     -0.345439    41A     -0.340644

  @DF-RHF Final Energy:  -605.57654684328054

   => Energetics <=

    Nuclear Repulsion Energy =            615.9750846638653456
    One-Electron Energy =               -2056.3322741717420286
    Two-Electron Energy =                 834.7806426645961437
    Total Energy =                       -605.5765468432805392
  Basis Set: (AUG-CC-PVTZ AUX)
    Blend: AUG-CC-PVTZ-RI
    Molecular point group: c1

    Geometry (in Angstrom), charge = 0, multiplicity = 1:

       Center              X                  Y                   Z               Mass
    ------------   -----------------  -----------------  -----------------  -----------------
         F            1.619824920280    -1.092710865234    -0.854788495906    18.998403162730
         F            3.052205920280    -0.002448865234     0.376856504094    18.998403162730
         F            1.619837920280     1.087891134766    -0.854721495906    18.998403162730
         C            0.796404920280    -0.002462865234     1.079622504094    12.000000000000
         C           -0.631275079720    -0.002446865234     0.601342504094    12.000000000000
         C            1.771897920280    -0.002431865234    -0.068686495906    12.000000000000
         C           -1.269802679720     1.237742434766     0.447795204094    12.000000000000
         C           -1.295233079720    -1.210194865234     0.356663504094    12.000000000000
         C           -2.609527079720     1.205614134766    -0.111676495906    12.000000000000
         C           -2.609552079720    -1.210460865234    -0.111686495906    12.000000000000
         C           -3.269199079720    -0.002415865234    -0.347835495906    12.000000000000
         H            1.016190920280    -0.886497865234     1.686194504094     1.007825032230
         H            1.016189920280     0.881532134766     1.686252504094     1.007825032230
         H           -0.781803079720     2.147866134766     0.536744504094     1.007825032230
         H           -0.781846079720    -2.152755865234     0.536725504094     1.007825032230
         H           -3.117908079720     2.149258134766    -0.294174495906     1.007825032230
         H           -3.117952079720    -2.154093865234    -0.294192495906     1.007825032230
         H           -4.294166079720    -0.002403865234    -0.710353495906     1.007825032230

  Basis Set: AUG-CC-PVTZ
    Blend: AUG-CC-PVTZ
  Basis Set: (AUG-CC-PVTZ AUX)
    Blend: AUG-CC-PVTZ-JKFIT
	 Reference Energy          =    -605.5765468432805392 [Eh]
	 Singles Energy            =      -0.0000000000000000 [Eh]
	 Same-Spin Energy          =      -0.5617006240396363 [Eh]
	 Opposite-Spin Energy      =      -1.6945420659029167 [Eh]
	 Correlation Energy        =      -2.2562426899425532 [Eh]
	 Total Energy              =    -607.8327895332231492 [Eh]

	 ================> DF-SCS-MP2 Energies <==================
	-----------------------------------------------------------
	 SCS Same-Spin Scale       =       0.3333333333333333 [-]
	 SCS Opposite-Spin Scale   =       1.2000000000000000 [-]
	 SCS Same-Spin Energy      =      -0.1872335413465454 [Eh]
	 SCS Opposite-Spin Energy  =      -2.0334504790834997 [Eh]
	 SCS Correlation Energy    =      -2.2206840204300451 [Eh]
	 SCS Total Energy          =    -607.7972308637106380 [Eh]
	-----------------------------------------------------------

  Dipole Moment: [D]
     X:    -1.8165      Y:    -0.0070      Z:     1.4158     Total:     2.3031

*** Psi4 exiting successfully. Buy a developer a beer!
