                               Psi4 1.4a2.dev612

  ==> Input File <==

--------------------------------------------------------------------------
#psi4
#
memory 32 gb

molecule  {
0 1
  F        1.7208570    -1.0902790    -0.8752740
  F        3.1532380    -0.0000170     0.3563710
  F        1.7208700     1.0903230    -0.8752070
  C        0.8974370    -0.0000310     1.0591370
  C       -0.5302430    -0.0000150     0.5808570
  C        1.8729300     0.0000000    -0.0891720
  C       -1.1433651     1.2725997     0.5184314
  C       -1.1942010    -1.2077630     0.3361780
  C       -2.5084950     1.2080460    -0.1321620
  C       -2.5085200    -1.2080290    -0.1321720
  C       -3.1681670     0.0000160    -0.3683210
  H        1.1172230    -0.8840660     1.6657090
  H        1.1172220     0.8839640     1.6657670
  H       -0.6807710     2.1502980     0.5162590
  H       -0.6808140    -2.1503240     0.5162400
  H       -3.0168760     2.1516900    -0.3146600
  H       -3.0169200    -2.1516620    -0.3146780
  H       -4.1931340     0.0000280    -0.7308390
units angstrom
no_reorient  #important for SAPT in psi4, default
symmetry c1  #important for SAPT in psi4, default
}

set PROPERTIES_ORIGIN ["COM"]
properties('MP2/aug-cc-pvtz', properties = ['dipole'])
--------------------------------------------------------------------------

    Molecular point group: c1
  Charge       = 0
  Multiplicity = 1
  Basis Set: AUG-CC-PVTZ
    Blend: AUG-CC-PVTZ
  Basis Set: (AUG-CC-PVTZ AUX)
    Blend: AUG-CC-PVTZ-JKFIT

    Orbital Energies [Eh]
    ---------------------

    Doubly Occupied:

       1A    -26.332342     2A    -26.332271     3A    -26.332056
       4A    -11.502655     5A    -11.264991     6A    -11.264304
       7A    -11.259828     8A    -11.251629     9A    -11.251201
      10A    -11.247014    11A    -11.245209    12A     -1.716197
      13A     -1.625009    14A     -1.624321    15A     -1.163086
      16A     -1.092747    17A     -1.015918    18A     -1.005603
      19A     -0.915482    20A     -0.850383    21A     -0.824606
      22A     -0.813651    23A     -0.808201    24A     -0.764318
      25A     -0.711706    26A     -0.704762    27A     -0.699235
      28A     -0.662849    29A     -0.660616    30A     -0.653980
      31A     -0.642994    32A     -0.639528    33A     -0.598330
      34A     -0.586339    35A     -0.575635    36A     -0.563981
      37A     -0.517737    38A     -0.497170    39A     -0.484142
      40A     -0.347116    41A     -0.336141

  @DF-RHF Final Energy:  -605.55542044890740

   => Energetics <=

    Nuclear Repulsion Energy =            614.9809177888116665
    One-Electron Energy =               -2054.3021100061268953
    Two-Electron Energy =                 833.7657717684078307
    Total Energy =                       -605.5554204489073982
  Basis Set: (AUG-CC-PVTZ AUX)
    Blend: AUG-CC-PVTZ-RI
    Molecular point group: c1

    Geometry (in Angstrom), charge = 0, multiplicity = 1:

       Center              X                  Y                   Z               Mass
    ------------   -----------------  -----------------  -----------------  -----------------
         F            1.617920102853    -1.095142010733    -0.861620489061    18.998403162730
         F            3.050301102853    -0.004880010733     0.370024510939    18.998403162730
         F            1.617933102853     1.085459989267    -0.861553489061    18.998403162730
         C            0.794500102853    -0.004894010733     1.072790510939    12.000000000000
         C           -0.633179897147    -0.004878010733     0.594510510939    12.000000000000
         C            1.769993102853    -0.004863010733    -0.075518489061    12.000000000000
         C           -1.246301997147     1.267736689267     0.532084910939    12.000000000000
         C           -1.297137897147    -1.212626010733     0.349831510939    12.000000000000
         C           -2.611431897147     1.203182989267    -0.118508489061    12.000000000000
         C           -2.611456897147    -1.212892010733    -0.118518489061    12.000000000000
         C           -3.271103897147    -0.004847010733    -0.354667489061    12.000000000000
         H            1.014286102853    -0.888929010733     1.679362510939     1.007825032230
         H            1.014285102853     0.879100989267     1.679420510939     1.007825032230
         H           -0.783707897147     2.145434989267     0.529912510939     1.007825032230
         H           -0.783750897147    -2.155187010733     0.529893510939     1.007825032230
         H           -3.119812897147     2.146826989267    -0.301006489061     1.007825032230
         H           -3.119856897147    -2.156525010733    -0.301024489061     1.007825032230
         H           -4.296070897147    -0.004835010733    -0.717185489061     1.007825032230

  Basis Set: AUG-CC-PVTZ
    Blend: AUG-CC-PVTZ
  Basis Set: (AUG-CC-PVTZ AUX)
    Blend: AUG-CC-PVTZ-JKFIT
	 Reference Energy          =    -605.5554204489073982 [Eh]
	 Singles Energy            =      -0.0000000000000000 [Eh]
	 Same-Spin Energy          =      -0.5621018735425730 [Eh]
	 Opposite-Spin Energy      =      -1.6965545021864794 [Eh]
	 Correlation Energy        =      -2.2586563757290525 [Eh]
	 Total Energy              =    -607.8140768246364587 [Eh]

	 ================> DF-SCS-MP2 Energies <==================
	-----------------------------------------------------------
	 SCS Same-Spin Scale       =       0.3333333333333333 [-]
	 SCS Opposite-Spin Scale   =       1.2000000000000000 [-]
	 SCS Same-Spin Energy      =      -0.1873672911808577 [Eh]
	 SCS Opposite-Spin Energy  =      -2.0358654026237750 [Eh]
	 SCS Correlation Energy    =      -2.2232326938046327 [Eh]
	 SCS Total Energy          =    -607.7786531427120735 [Eh]
	-----------------------------------------------------------

  Dipole Moment: [D]
     X:    -1.8434      Y:    -0.0554      Z:     1.3629     Total:     2.2932

*** Psi4 exiting successfully. Buy a developer a beer!
