                               Psi4 1.4a2.dev612

  ==> Input File <==

--------------------------------------------------------------------------
#psi4
#
memory 32 gb

molecule  {
0 1
  F        1.7208570    -1.0902790    -0.8752740
  F        3.1532380    -0.0000170     0.3563710
  F        1.7208700     1.0903230    -0.8752070
  C        0.8974370    -0.0000310     1.0591370
  C       -0.5302430    -0.0000150     0.5808570
  C        1.8729300     0.0000000    -0.0891720
  C       -1.1814733     1.2239617     0.3817488
  C       -1.1942010    -1.2077630     0.3361780
  C       -2.5084950     1.2080460    -0.1321620
  C       -2.5085200    -1.2080290    -0.1321720
  C       -3.1681670     0.0000160    -0.3683210
  H        1.1172230    -0.8840660     1.6657090
  H        1.1172220     0.8839640     1.6657670
  H       -0.6807710     2.1502980     0.5162590
  H       -0.6808140    -2.1503240     0.5162400
  H       -3.0168760     2.1516900    -0.3146600
  H       -3.0169200    -2.1516620    -0.3146780
  H       -4.1931340     0.0000280    -0.7308390
units angstrom
no_reorient  #important for SAPT in psi4, default
symmetry c1  #important for SAPT in psi4, default
}

set PROPERTIES_ORIGIN ["COM"]
properties('MP2/aug-cc-pvtz', properties = ['dipole'])
--------------------------------------------------------------------------

    Molecular point group: c1
  Charge       = 0
  Multiplicity = 1
  Basis Set: AUG-CC-PVTZ
    Blend: AUG-CC-PVTZ
  Basis Set: (AUG-CC-PVTZ AUX)
    Blend: AUG-CC-PVTZ-JKFIT

    Orbital Energies [Eh]
    ---------------------

    Doubly Occupied:

       1A    -26.332886     2A    -26.332317     3A    -26.332221
       4A    -11.503256     5A    -11.266980     6A    -11.259212
       7A    -11.249426     8A    -11.247597     9A    -11.247456
      10A    -11.246355    11A    -11.245037    12A     -1.716446
      13A     -1.625097    14A     -1.624692    15A     -1.167971
      16A     -1.093793    17A     -1.022041    18A     -1.005555
      19A     -0.916565    20A     -0.842312    21A     -0.828097
      22A     -0.813678    23A     -0.809362    24A     -0.766660
      25A     -0.710378    26A     -0.705030    27A     -0.697939
      28A     -0.661838    29A     -0.658529    30A     -0.646831
      31A     -0.643671    32A     -0.642033    33A     -0.597359
      34A     -0.585544    35A     -0.577007    36A     -0.567791
      37A     -0.506691    38A     -0.502951    39A     -0.499794
      40A     -0.344550    41A     -0.343162

  @DF-RHF Final Energy:  -605.58211016426981

   => Energetics <=

    Nuclear Repulsion Energy =            616.4317398537147028
    One-Electron Energy =               -2057.2554834975803715
    Two-Electron Energy =                 835.2416334795959756
    Total Energy =                       -605.5821101642698068
  Basis Set: (AUG-CC-PVTZ AUX)
    Blend: AUG-CC-PVTZ-RI
    Molecular point group: c1

    Geometry (in Angstrom), charge = 0, multiplicity = 1:

       Center              X                  Y                   Z               Mass
    ------------   -----------------  -----------------  -----------------  -----------------
         F            1.620777325244    -1.091495299982    -0.851372495580    18.998403162730
         F            3.053158325244    -0.001233299982     0.380272504420    18.998403162730
         F            1.620790325244     1.089106700018    -0.851305495580    18.998403162730
         C            0.797357325244    -0.001247299982     1.083038504420    12.000000000000
         C           -0.630322674756    -0.001231299982     0.604758504420    12.000000000000
         C            1.772850325244    -0.001216299982    -0.065270495580    12.000000000000
         C           -1.281552974756     1.222745400018     0.405650304420    12.000000000000
         C           -1.294280674756    -1.208979299982     0.360079504420    12.000000000000
         C           -2.608574674756     1.206829700018    -0.108260495580    12.000000000000
         C           -2.608599674756    -1.209245299982    -0.108270495580    12.000000000000
         C           -3.268246674756    -0.001200299982    -0.344419495580    12.000000000000
         H            1.017143325244    -0.885282299982     1.689610504420     1.007825032230
         H            1.017142325244     0.882747700018     1.689668504420     1.007825032230
         H           -0.780850674756     2.149081700018     0.540160504420     1.007825032230
         H           -0.780893674756    -2.151540299982     0.540141504420     1.007825032230
         H           -3.116955674756     2.150473700018    -0.290758495580     1.007825032230
         H           -3.116999674756    -2.152878299982    -0.290776495580     1.007825032230
         H           -4.293213674756    -0.001188299982    -0.706937495580     1.007825032230

  Basis Set: AUG-CC-PVTZ
    Blend: AUG-CC-PVTZ
  Basis Set: (AUG-CC-PVTZ AUX)
    Blend: AUG-CC-PVTZ-JKFIT
	 Reference Energy          =    -605.5821101642698068 [Eh]
	 Singles Energy            =      -0.0000000000000000 [Eh]
	 Same-Spin Energy          =      -0.5616206685026623 [Eh]
	 Opposite-Spin Energy      =      -1.6939700766880055 [Eh]
	 Correlation Energy        =      -2.2555907451906680 [Eh]
	 Total Energy              =    -607.8377009094605228 [Eh]

	 ================> DF-SCS-MP2 Energies <==================
	-----------------------------------------------------------
	 SCS Same-Spin Scale       =       0.3333333333333333 [-]
	 SCS Opposite-Spin Scale   =       1.2000000000000000 [-]
	 SCS Same-Spin Energy      =      -0.1872068895008874 [Eh]
	 SCS Opposite-Spin Energy  =      -2.0327640920256065 [Eh]
	 SCS Correlation Energy    =      -2.2199709815264939 [Eh]
	 SCS Total Energy          =    -607.8020811457962509 [Eh]
	-----------------------------------------------------------

  Dipole Moment: [D]
     X:    -1.8082      Y:     0.0017      Z:     1.4387     Total:     2.3107

*** Psi4 exiting successfully. Buy a developer a beer!
