                               Psi4 1.4a2.dev612

  ==> Input File <==

--------------------------------------------------------------------------
#psi4
#
memory 32 gb

molecule  {
0 1
  F        1.7208570    -1.0902790    -0.8752740
  F        3.1532380    -0.0000170     0.3563710
  F        1.7208700     1.0903230    -0.8752070
  C        0.8974370    -0.0000310     1.0591370
  C       -0.5302430    -0.0000150     0.5808570
  C        1.8729300     0.0000000    -0.0891720
  C       -1.1560678     1.2563870     0.4728705
  C       -1.1942010    -1.2077630     0.3361780
  C       -2.5084950     1.2080460    -0.1321620
  C       -2.5085200    -1.2080290    -0.1321720
  C       -3.1681670     0.0000160    -0.3683210
  H        1.1172230    -0.8840660     1.6657090
  H        1.1172220     0.8839640     1.6657670
  H       -0.6807710     2.1502980     0.5162590
  H       -0.6808140    -2.1503240     0.5162400
  H       -3.0168760     2.1516900    -0.3146600
  H       -3.0169200    -2.1516620    -0.3146780
  H       -4.1931340     0.0000280    -0.7308390
units angstrom
no_reorient  #important for SAPT in psi4, default
symmetry c1  #important for SAPT in psi4, default
}

set PROPERTIES_ORIGIN ["COM"]
properties('MP2/aug-cc-pvtz', properties = ['dipole'])
--------------------------------------------------------------------------

    Molecular point group: c1
  Charge       = 0
  Multiplicity = 1
  Basis Set: AUG-CC-PVTZ
    Blend: AUG-CC-PVTZ
  Basis Set: (AUG-CC-PVTZ AUX)
    Blend: AUG-CC-PVTZ-JKFIT

    Orbital Energies [Eh]
    ---------------------

    Doubly Occupied:

       1A    -26.332503     2A    -26.332283     3A    -26.332084
       4A    -11.502821     5A    -11.265433     6A    -11.262269
       7A    -11.256286     8A    -11.250137     9A    -11.249558
      10A    -11.246868    11A    -11.245187    12A     -1.716262
      13A     -1.625025    14A     -1.624426    15A     -1.164596
      16A     -1.092923    17A     -1.017891    18A     -1.005628
      19A     -0.915825    20A     -0.847608    21A     -0.825678
      22A     -0.813652    23A     -0.808583    24A     -0.765090
      25A     -0.711185    26A     -0.704836    27A     -0.698807
      28A     -0.661467    29A     -0.660184    30A     -0.652340
      31A     -0.643118    32A     -0.640387    33A     -0.598529
      34A     -0.586154    35A     -0.576158    36A     -0.565253
      37A     -0.514528    38A     -0.499052    39A     -0.490010
      40A     -0.346314    41A     -0.338279

  @DF-RHF Final Energy:  -605.56756848023213

   => Energetics <=

    Nuclear Repulsion Energy =            615.4911632524521110
    One-Electron Energy =               -2055.3470318574845805
    Two-Electron Energy =                 834.2883001248002302
    Total Energy =                       -605.5675684802321257
  Basis Set: (AUG-CC-PVTZ AUX)
    Blend: AUG-CC-PVTZ-RI
    Molecular point group: c1

    Geometry (in Angstrom), charge = 0, multiplicity = 1:

       Center              X                  Y                   Z               Mass
    ------------   -----------------  -----------------  -----------------  -----------------
         F            1.618872507817    -1.093926437983    -0.858204488735    18.998403162730
         F            3.051253507817    -0.003664437983     0.373440511265    18.998403162730
         F            1.618885507817     1.086675562017    -0.858137488735    18.998403162730
         C            0.795452507817    -0.003678437983     1.076206511265    12.000000000000
         C           -0.632227492183    -0.003662437983     0.597926511265    12.000000000000
         C            1.770945507817    -0.003647437983    -0.072102488735    12.000000000000
         C           -1.258052292183     1.252739562017     0.489940011265    12.000000000000
         C           -1.296185492183    -1.211410437983     0.353247511265    12.000000000000
         C           -2.610479492183     1.204398562017    -0.115092488735    12.000000000000
         C           -2.610504492183    -1.211676437983    -0.115102488735    12.000000000000
         C           -3.270151492183    -0.003631437983    -0.351251488735    12.000000000000
         H            1.015238507817    -0.887713437983     1.682778511265     1.007825032230
         H            1.015237507817     0.880316562017     1.682836511265     1.007825032230
         H           -0.782755492183     2.146650562017     0.533328511265     1.007825032230
         H           -0.782798492183    -2.153971437983     0.533309511265     1.007825032230
         H           -3.118860492183     2.148042562017    -0.297590488735     1.007825032230
         H           -3.118904492183    -2.155309437983    -0.297608488735     1.007825032230
         H           -4.295118492183    -0.003619437983    -0.713769488735     1.007825032230

  Basis Set: AUG-CC-PVTZ
    Blend: AUG-CC-PVTZ
  Basis Set: (AUG-CC-PVTZ AUX)
    Blend: AUG-CC-PVTZ-JKFIT
	 Reference Energy          =    -605.5675684802321257 [Eh]
	 Singles Energy            =      -0.0000000000000000 [Eh]
	 Same-Spin Energy          =      -0.5618613718953198 [Eh]
	 Opposite-Spin Energy      =      -1.6954101868621625 [Eh]
	 Correlation Energy        =      -2.2572715587574823 [Eh]
	 Total Energy              =    -607.8248400389895778 [Eh]

	 ================> DF-SCS-MP2 Energies <==================
	-----------------------------------------------------------
	 SCS Same-Spin Scale       =       0.3333333333333333 [-]
	 SCS Opposite-Spin Scale   =       1.2000000000000000 [-]
	 SCS Same-Spin Energy      =      -0.1872871239651066 [Eh]
	 SCS Opposite-Spin Energy  =      -2.0344922242345951 [Eh]
	 SCS Correlation Energy    =      -2.2217793481997017 [Eh]
	 SCS Total Energy          =    -607.7893478284318007 [Eh]
	-----------------------------------------------------------

  Dipole Moment: [D]
     X:    -1.8283      Y:    -0.0261      Z:     1.3905     Total:     2.2972

*** Psi4 exiting successfully. Buy a developer a beer!
