                               Psi4 1.4a2.dev612

  ==> Input File <==

--------------------------------------------------------------------------
#psi4
#
memory 32 gb

molecule  {
0 1
  F        1.7208570    -1.0902790    -0.8752740
  F        3.1532380    -0.0000170     0.3563710
  F        1.7208700     1.0903230    -0.8752070
  C        0.8974370    -0.0000310     1.0591370
  C       -0.5302430    -0.0000150     0.5808570
  C        1.8729300     0.0000000    -0.0891720
  C       -1.1179597     1.3050250     0.6095530
  C       -1.1942010    -1.2077630     0.3361780
  C       -2.5084950     1.2080460    -0.1321620
  C       -2.5085200    -1.2080290    -0.1321720
  C       -3.1681670     0.0000160    -0.3683210
  H        1.1172230    -0.8840660     1.6657090
  H        1.1172220     0.8839640     1.6657670
  H       -0.6807710     2.1502980     0.5162590
  H       -0.6808140    -2.1503240     0.5162400
  H       -3.0168760     2.1516900    -0.3146600
  H       -3.0169200    -2.1516620    -0.3146780
  H       -4.1931340     0.0000280    -0.7308390
units angstrom
no_reorient  #important for SAPT in psi4, default
symmetry c1  #important for SAPT in psi4, default
}

set PROPERTIES_ORIGIN ["COM"]
properties('MP2/aug-cc-pvtz', properties = ['dipole'])
--------------------------------------------------------------------------

    Molecular point group: c1
  Charge       = 0
  Multiplicity = 1
  Basis Set: AUG-CC-PVTZ
    Blend: AUG-CC-PVTZ
  Basis Set: (AUG-CC-PVTZ AUX)
    Blend: AUG-CC-PVTZ-JKFIT

    Orbital Energies [Eh]
    ---------------------

    Doubly Occupied:

       1A    -26.332311     2A    -26.332131     3A    -26.332109
       4A    -11.502487     5A    -11.270537     6A    -11.266730
       7A    -11.263598     8A    -11.255528     9A    -11.254791
      10A    -11.247303    11A    -11.245224    12A     -1.716166
      13A     -1.625065    14A     -1.624210    15A     -1.160449
      16A     -1.092915    17A     -1.011987    18A     -1.005577
      19A     -0.914890    20A     -0.855945    21A     -0.822840
      22A     -0.813723    23A     -0.807496    24A     -0.762808
      25A     -0.712663    26A     -0.704704    27A     -0.699950
      28A     -0.667995    29A     -0.660362    30A     -0.655380
      31A     -0.642902    32A     -0.638056    33A     -0.596549
      34A     -0.586798    35A     -0.574291    36A     -0.561731
      37A     -0.523178    38A     -0.493624    39A     -0.470411
      40A     -0.348499    41A     -0.332642

  @DF-RHF Final Energy:  -605.52298914602159

   => Energetics <=

    Nuclear Repulsion Energy =            613.8847919058606522
    One-Electron Energy =               -2052.0424543338517651
    Two-Electron Energy =                 832.6346732819694125
    Total Energy =                       -605.5229891460215867
  Basis Set: (AUG-CC-PVTZ AUX)
    Blend: AUG-CC-PVTZ-RI
    Molecular point group: c1

    Geometry (in Angstrom), charge = 0, multiplicity = 1:

       Center              X                  Y                   Z               Mass
    ------------   -----------------  -----------------  -----------------  -----------------
         F            1.616015292924    -1.097573148735    -0.868452474718    18.998403162730
         F            3.048396292924    -0.007311148735     0.363192525282    18.998403162730
         F            1.616028292924     1.083028851265    -0.868385474718    18.998403162730
         C            0.792595292924    -0.007325148735     1.065958525282    12.000000000000
         C           -0.635084707076    -0.007309148735     0.587678525282    12.000000000000
         C            1.768088292924    -0.007294148735    -0.082350474718    12.000000000000
         C           -1.222801407076     1.297730851265     0.616374525282    12.000000000000
         C           -1.299042707076    -1.215057148735     0.342999525282    12.000000000000
         C           -2.613336707076     1.200751851265    -0.125340474718    12.000000000000
         C           -2.613361707076    -1.215323148735    -0.125350474718    12.000000000000
         C           -3.273008707076    -0.007278148735    -0.361499474718    12.000000000000
         H            1.012381292924    -0.891360148735     1.672530525282     1.007825032230
         H            1.012380292924     0.876669851265     1.672588525282     1.007825032230
         H           -0.785612707076     2.143003851265     0.523080525282     1.007825032230
         H           -0.785655707076    -2.157618148735     0.523061525282     1.007825032230
         H           -3.121717707076     2.144395851265    -0.307838474718     1.007825032230
         H           -3.121761707076    -2.158956148735    -0.307856474718     1.007825032230
         H           -4.297975707076    -0.007266148735    -0.724017474718     1.007825032230

  Basis Set: AUG-CC-PVTZ
    Blend: AUG-CC-PVTZ
  Basis Set: (AUG-CC-PVTZ AUX)
    Blend: AUG-CC-PVTZ-JKFIT
	 Reference Energy          =    -605.5229891460215867 [Eh]
	 Singles Energy            =      -0.0000000000000000 [Eh]
	 Same-Spin Energy          =      -0.5628028291415399 [Eh]
	 Opposite-Spin Energy      =      -1.6995989149722424 [Eh]
	 Correlation Energy        =      -2.2624017441137823 [Eh]
	 Total Energy              =    -607.7853908901353179 [Eh]

	 ================> DF-SCS-MP2 Energies <==================
	-----------------------------------------------------------
	 SCS Same-Spin Scale       =       0.3333333333333333 [-]
	 SCS Opposite-Spin Scale   =       1.2000000000000000 [-]
	 SCS Same-Spin Energy      =      -0.1876009430471799 [Eh]
	 SCS Opposite-Spin Energy  =      -2.0395186979666908 [Eh]
	 SCS Correlation Energy    =      -2.2271196410138709 [Eh]
	 SCS Total Energy          =    -607.7501087870354013 [Eh]
	-----------------------------------------------------------

  Dipole Moment: [D]
     X:    -1.8825      Y:    -0.1424      Z:     1.3018     Total:     2.2932

*** Psi4 exiting successfully. Buy a developer a beer!
