                               Psi4 1.4a2.dev612

  ==> Input File <==

--------------------------------------------------------------------------
#psi4
#
memory 32 gb

molecule  {
0 1
  F        1.7208570    -1.0902790    -0.8752740
  F        3.1532380    -0.0000170     0.3563710
  F        1.7208700     1.0903230    -0.8752070
  C        0.8974370    -0.0000310     1.0591370
  C       -0.5302430    -0.0000150     0.5808570
  C        1.8729300     0.0000000    -0.0891720
  C       -1.1306624     1.2888124     0.5639922
  C       -1.1942010    -1.2077630     0.3361780
  C       -2.5084950     1.2080460    -0.1321620
  C       -2.5085200    -1.2080290    -0.1321720
  C       -3.1681670     0.0000160    -0.3683210
  H        1.1172230    -0.8840660     1.6657090
  H        1.1172220     0.8839640     1.6657670
  H       -0.6807710     2.1502980     0.5162590
  H       -0.6808140    -2.1503240     0.5162400
  H       -3.0168760     2.1516900    -0.3146600
  H       -3.0169200    -2.1516620    -0.3146780
  H       -4.1931340     0.0000280    -0.7308390
units angstrom
no_reorient  #important for SAPT in psi4, default
symmetry c1  #important for SAPT in psi4, default
}

set PROPERTIES_ORIGIN ["COM"]
properties('MP2/aug-cc-pvtz', properties = ['dipole'])
--------------------------------------------------------------------------

    Molecular point group: c1
  Charge       = 0
  Multiplicity = 1
  Basis Set: AUG-CC-PVTZ
    Blend: AUG-CC-PVTZ
  Basis Set: (AUG-CC-PVTZ AUX)
    Blend: AUG-CC-PVTZ-JKFIT

    Orbital Energies [Eh]
    ---------------------

    Doubly Occupied:

       1A    -26.332280     2A    -26.332210     3A    -26.332064
       4A    -11.502540     5A    -11.267365     6A    -11.264079
       7A    -11.263328     8A    -11.253210     9A    -11.253181
      10A    -11.247156    11A    -11.245220    12A     -1.716162
      13A     -1.625020    14A     -1.624246    15A     -1.161700
      16A     -1.092745    17A     -1.013962    18A     -1.005579
      19A     -0.915168    20A     -0.853181    21A     -0.823656
      22A     -0.813671    23A     -0.807836    24A     -0.763556
      25A     -0.712226    26A     -0.704715    27A     -0.699622
      28A     -0.665346    29A     -0.660497    30A     -0.654876
      31A     -0.642923    32A     -0.638743    33A     -0.597638
      34A     -0.586544    35A     -0.575020    36A     -0.562794
      37A     -0.520591    38A     -0.495359    39A     -0.477607
      40A     -0.347843    41A     -0.334256

  @DF-RHF Final Energy:  -605.54042799655690

   => Energetics <=

    Nuclear Repulsion Energy =            614.4452001057720736
    One-Electron Energy =               -2053.1998267232952458
    Two-Electron Energy =                 833.2141986209662718
    Total Energy =                       -605.5404279965569003
  Basis Set: (AUG-CC-PVTZ AUX)
    Blend: AUG-CC-PVTZ-RI
    Molecular point group: c1

    Geometry (in Angstrom), charge = 0, multiplicity = 1:

       Center              X                  Y                   Z               Mass
    ------------   -----------------  -----------------  -----------------  -----------------
         F            1.616967697889    -1.096357583483    -0.865036481890    18.998403162730
         F            3.049348697889    -0.006095583483     0.366608518110    18.998403162730
         F            1.616980697889     1.084244416517    -0.864969481890    18.998403162730
         C            0.793547697889    -0.006109583483     1.069374518110    12.000000000000
         C           -0.634132302111    -0.006093583483     0.591094518110    12.000000000000
         C            1.769040697889    -0.006078583483    -0.078934481890    12.000000000000
         C           -1.234551702111     1.282733816517     0.574229718110    12.000000000000
         C           -1.298090302111    -1.213841583483     0.346415518110    12.000000000000
         C           -2.612384302111     1.201967416517    -0.121924481890    12.000000000000
         C           -2.612409302111    -1.214107583483    -0.121934481890    12.000000000000
         C           -3.272056302111    -0.006062583483    -0.358083481890    12.000000000000
         H            1.013333697889    -0.890144583483     1.675946518110     1.007825032230
         H            1.013332697889     0.877885416517     1.676004518110     1.007825032230
         H           -0.784660302111     2.144219416517     0.526496518110     1.007825032230
         H           -0.784703302111    -2.156402583483     0.526477518110     1.007825032230
         H           -3.120765302111     2.145611416517    -0.304422481890     1.007825032230
         H           -3.120809302111    -2.157740583483    -0.304440481890     1.007825032230
         H           -4.297023302111    -0.006050583483    -0.720601481890     1.007825032230

  Basis Set: AUG-CC-PVTZ
    Blend: AUG-CC-PVTZ
  Basis Set: (AUG-CC-PVTZ AUX)
    Blend: AUG-CC-PVTZ-JKFIT
	 Reference Energy          =    -605.5404279965569003 [Eh]
	 Singles Energy            =      -0.0000000000000000 [Eh]
	 Same-Spin Energy          =      -0.5624183355893841 [Eh]
	 Opposite-Spin Energy      =      -1.6979577116334319 [Eh]
	 Correlation Energy        =      -2.2603760472228158 [Eh]
	 Total Energy              =    -607.8008040437797490 [Eh]

	 ================> DF-SCS-MP2 Energies <==================
	-----------------------------------------------------------
	 SCS Same-Spin Scale       =       0.3333333333333333 [-]
	 SCS Opposite-Spin Scale   =       1.2000000000000000 [-]
	 SCS Same-Spin Energy      =      -0.1874727785297947 [Eh]
	 SCS Opposite-Spin Energy  =      -2.0375492539601181 [Eh]
	 SCS Correlation Energy    =      -2.2250220324899130 [Eh]
	 SCS Total Energy          =    -607.7654500290468604 [Eh]
	-----------------------------------------------------------

  Dipole Moment: [D]
     X:    -1.8615      Y:    -0.0945      Z:     1.3331     Total:     2.2916

*** Psi4 exiting successfully. Buy a developer a beer!
