                               Psi4 1.3.2 release

  ==> Input File <==

--------------------------------------------------------------------------
#psi4
#
memory 32 gb

molecule  {
0 1
  O        1.6287540    -0.6201880     1.1142450
  O       -2.7620560    -0.0348310     0.0798330
  O        2.1886480    -0.1218500    -1.0324370
  O       -0.8732870    -1.2159650    -0.3624810
  C        0.5918760     1.2475400     0.1132070
  C       -0.7452640     1.1476080     0.0762790
  C        1.5307310     0.0928540    -0.0315040
  C       -1.3974693    -0.1699291    -0.0941747
  H        1.0613430     2.2244020     0.1998120
  H       -1.3741190     2.0281690     0.1581920
  H        2.2467100    -1.3553630     0.9159410
  H       -3.1312110    -0.9325360    -0.0538740
units angstrom
no_reorient  #important for SAPT in psi4, default
symmetry c1  #important for SAPT in psi4, default
}

set PROPERTIES_ORIGIN ["COM"]
properties('MP2/aug-cc-pvtz', properties = ['dipole'])
--------------------------------------------------------------------------

    Molecular point group: c1
  Charge       = 0
  Multiplicity = 1
  Basis Set: AUG-CC-PVTZ
    Blend: AUG-CC-PVTZ
  Basis Set: (AUG-CC-PVTZ AUX)
    Blend: AUG-CC-PVTZ-JKFIT

    Orbital Energies [Eh]
    ---------------------

    Doubly Occupied:

       1A    -20.624857     2A    -20.623433     3A    -20.569027
       4A    -20.562507     5A    -11.410249     6A    -11.408165
       7A    -11.299070     8A    -11.281257     9A     -1.473453
      10A     -1.468176    11A     -1.376588    12A     -1.368489
      13A     -1.118349    14A     -0.957772    15A     -0.860150
      16A     -0.779176    17A     -0.735552    18A     -0.718355
      19A     -0.711473    20A     -0.665235    21A     -0.656970
      22A     -0.639205    23A     -0.614797    24A     -0.605176
      25A     -0.581449    26A     -0.509385    27A     -0.489264
      28A     -0.477997    29A     -0.468042    30A     -0.417849

  @DF-RHF Final Energy:  -453.43621625686768

   => Energetics <=

    Nuclear Repulsion Energy =            358.9020352340530167
    One-Electron Energy =               -1333.7335690238826373
    Two-Electron Energy =                 521.3953175329619398
    Total Energy =                       -453.4362162568676240
  Basis Set: (AUG-CC-PVTZ AUX)
    Blend: AUG-CC-PVTZ-RI
    Molecular point group: c1

    Geometry (in Angstrom), charge = 0, multiplicity = 1:

       Center              X                  Y                   Z               Mass
    ------------   -----------------  -----------------  -----------------  -----------------
         O            1.616135736629    -0.602273405687     1.124736361953    15.994914619570
         O           -2.774674263371    -0.016916405687     0.090324361953    15.994914619570
         O            2.176029736629    -0.103935405687    -1.021945638047    15.994914619570
         O           -0.885905263371    -1.198050405687    -0.351989638047    15.994914619570
         C            0.579257736629     1.265454594313     0.123698361953    12.000000000000
         C           -0.757882263371     1.165522594313     0.086770361953    12.000000000000
         C            1.518112736629     0.110768594313    -0.021012638047    12.000000000000
         C           -1.410087563371    -0.152014505687    -0.083683338047    12.000000000000
         H            1.048724736629     2.242316594313     0.210303361953     1.007825032230
         H           -1.386737263371     2.046083594313     0.168683361953     1.007825032230
         H            2.234091736629    -1.337448405687     0.926432361953     1.007825032230
         H           -3.143829263371    -0.914621405687    -0.043382638047     1.007825032230

  Basis Set: AUG-CC-PVTZ
    Blend: AUG-CC-PVTZ
  Basis Set: (AUG-CC-PVTZ AUX)
    Blend: AUG-CC-PVTZ-JKFIT
	 Reference Energy          =    -453.4362162568676808 [Eh]
	 Singles Energy            =      -0.0000000000000000 [Eh]
	 Same-Spin Energy          =      -0.4335701036263397 [Eh]
	 Opposite-Spin Energy      =      -1.2878368458740272 [Eh]
	 Correlation Energy        =      -1.7214069495003670 [Eh]
	 Total Energy              =    -455.1576232063680436 [Eh]

	 ================> DF-SCS-MP2 Energies <==================
	-----------------------------------------------------------
	 SCS Same-Spin Scale       =       0.3333333333333333 [-]
	 SCS Opposite-Spin Scale   =       1.2000000000000000 [-]
	 SCS Same-Spin Energy      =      -0.1445233678754466 [Eh]
	 SCS Opposite-Spin Energy  =      -1.5454042150488327 [Eh]
	 SCS Correlation Energy    =      -1.6899275829242792 [Eh]
	 SCS Total Energy          =    -455.1261438397919505 [Eh]
	-----------------------------------------------------------

  Dipole Moment: [D]
     X:    -1.1575      Y:     1.0072      Z:     1.5643     Total:     2.1912

*** Psi4 exiting successfully. Buy a developer a beer!
