                               Psi4 1.4a3.dev225

  ==> Input File <==

--------------------------------------------------------------------------
#psi4
#
memory 32 gb

molecule  {
0 1
  O        1.6292290    -0.6199230     1.1141820
  O       -2.7620640    -0.0349680     0.0794940
  O        2.1880480    -0.1219360    -1.0328490
  O       -0.8730120    -1.2160300    -0.3618370
  C        0.5917800     1.2475860     0.1132420
  C       -0.7453650     1.1476220     0.0764550
  C        1.5305940     0.0928630    -0.0316350
  C       -1.4698552    -0.1538236    -0.0869528
  H        1.0613100     2.2244250     0.1997410
  H       -1.3742940     2.0281270     0.1583660
  H        2.2470800    -1.3551440     0.9157090
  H       -3.1309400    -0.9327820    -0.0542280
units angstrom
no_reorient  #important for SAPT in psi4, default
symmetry c1  #important for SAPT in psi4, default
}

set PROPERTIES_ORIGIN ["COM"]
properties('MP2/aug-cc-pvtz', properties = ['dipole'])
--------------------------------------------------------------------------

    Molecular point group: c1
  Charge       = 0
  Multiplicity = 1
  Basis Set: AUG-CC-PVTZ
    Blend: AUG-CC-PVTZ
  Basis Set: (AUG-CC-PVTZ AUX)
    Blend: AUG-CC-PVTZ-JKFIT

    Orbital Energies [Eh]
    ---------------------

    Doubly Occupied:

       1A    -20.645304     2A    -20.620587     3A    -20.558235
       4A    -20.556938     5A    -11.411325     6A    -11.406385
       7A    -11.296433     8A    -11.280191     9A     -1.495553
      10A     -1.466268    11A     -1.364282    12A     -1.359928
      13A     -1.111781    14A     -0.959611    15A     -0.868100
      16A     -0.788795    17A     -0.730741    18A     -0.725437
      19A     -0.707513    20A     -0.669990    21A     -0.657688
      22A     -0.653575    23A     -0.606704    24A     -0.600050
      25A     -0.571801    26A     -0.501304    27A     -0.482697
      28A     -0.472567    29A     -0.462013    30A     -0.412995

  @DF-RHF Final Energy:  -453.43249208836858

   => Energetics <=

    Nuclear Repulsion Energy =            358.4153506581097304
    One-Electron Energy =               -1332.8061043557868288
    Two-Electron Energy =                 520.9582616093085790
    Total Energy =                       -453.4324920883685763
  Basis Set: (AUG-CC-PVTZ AUX)
    Blend: AUG-CC-PVTZ-RI
    Molecular point group: c1

    Geometry (in Angstrom), charge = 0, multiplicity = 1:

       Center              X                  Y                   Z               Mass
    ------------   -----------------  -----------------  -----------------  -----------------
         O            1.624109434548    -0.603677901047     1.123945698929    15.994914619570
         O           -2.767183565452    -0.018722901047     0.089257698929    15.994914619570
         O            2.182928434548    -0.105690901047    -1.023085301071    15.994914619570
         O           -0.878131565452    -1.199784901047    -0.352073301071    15.994914619570
         C            0.586660434548     1.263831098953     0.123005698929    12.000000000000
         C           -0.750484565452     1.163867098953     0.086218698929    12.000000000000
         C            1.525474434548     0.109108098953    -0.021871301071    12.000000000000
         C           -1.474974765452    -0.137578501047    -0.077189101071    12.000000000000
         H            1.056190434548     2.240670098953     0.209504698929     1.007825032230
         H           -1.379413565452     2.044372098953     0.168129698929     1.007825032230
         H            2.241960434548    -1.338898901047     0.925472698929     1.007825032230
         H           -3.136059565452    -0.916536901047    -0.044464301071     1.007825032230

  Basis Set: AUG-CC-PVTZ
    Blend: AUG-CC-PVTZ
  Basis Set: (AUG-CC-PVTZ AUX)
    Blend: AUG-CC-PVTZ-JKFIT
	 Reference Energy          =    -453.4324920883685763 [Eh]
	 Singles Energy            =      -0.0000000000000000 [Eh]
	 Same-Spin Energy          =      -0.4338970154320521 [Eh]
	 Opposite-Spin Energy      =      -1.2881688892416352 [Eh]
	 Correlation Energy        =      -1.7220659046736873 [Eh]
	 Total Energy              =    -455.1545579930422605 [Eh]

	 ================> DF-SCS-MP2 Energies <==================
	-----------------------------------------------------------
	 SCS Same-Spin Scale       =       0.3333333333333333 [-]
	 SCS Opposite-Spin Scale   =       1.2000000000000000 [-]
	 SCS Same-Spin Energy      =      -0.1446323384773507 [Eh]
	 SCS Opposite-Spin Energy  =      -1.5458026670899623 [Eh]
	 SCS Correlation Energy    =      -1.6904350055673130 [Eh]
	 SCS Total Energy          =    -455.1229270939359139 [Eh]
	-----------------------------------------------------------

  Dipole Moment: [D]
     X:    -1.8416      Y:     1.1061      Z:     1.6483     Total:     2.7077

*** Psi4 exiting successfully. Buy a developer a beer!
