                               Psi4 1.3.2 release

  ==> Input File <==

--------------------------------------------------------------------------
#psi4
#
memory 32 gb

molecule  {
0 1
  O        1.6287540    -0.6201880     1.1142450
  O       -2.7620560    -0.0348310     0.0798330
  O        2.1886480    -0.1218500    -1.0324370
  O       -0.8732870    -1.2159650    -0.3624810
  C        0.5918760     1.2475400     0.1132070
  C       -0.7452640     1.1476080     0.0762790
  C        1.5307310     0.0928540    -0.0315040
  C       -1.4439320    -0.2964548    -0.1178316
  H        1.0613430     2.2244020     0.1998120
  H       -1.3741190     2.0281690     0.1581920
  H        2.2467100    -1.3553630     0.9159410
  H       -3.1312110    -0.9325360    -0.0538740
units angstrom
no_reorient  #important for SAPT in psi4, default
symmetry c1  #important for SAPT in psi4, default
}

set PROPERTIES_ORIGIN ["COM"]
properties('MP2/aug-cc-pvtz', properties = ['dipole'])
--------------------------------------------------------------------------

    Molecular point group: c1
  Charge       = 0
  Multiplicity = 1
  Basis Set: AUG-CC-PVTZ
    Blend: AUG-CC-PVTZ
  Basis Set: (AUG-CC-PVTZ AUX)
    Blend: AUG-CC-PVTZ-JKFIT

    Orbital Energies [Eh]
    ---------------------

    Doubly Occupied:

       1A    -20.634471     2A    -20.621086     3A    -20.584899
       4A    -20.556492     5A    -11.405400     6A    -11.402647
       7A    -11.278479     8A    -11.273122     9A     -1.523414
      10A     -1.465879    11A     -1.425215    12A     -1.363423
      13A     -1.093431    14A     -0.929710    15A     -0.851091
      16A     -0.778168    17A     -0.742848    18A     -0.731097
      19A     -0.707144    20A     -0.677104    21A     -0.671446
      22A     -0.652887    23A     -0.614966    24A     -0.599506
      25A     -0.581797    26A     -0.535897    27A     -0.487895
      28A     -0.473261    29A     -0.454592    30A     -0.405496

  @DF-RHF Final Energy:  -453.41386980237763

   => Energetics <=

    Nuclear Repulsion Energy =            359.2068690885765818
    One-Electron Energy =               -1334.1957523161488552
    Two-Electron Energy =                 521.5750134251946974
    Total Energy =                       -453.4138698023775760
  Basis Set: (AUG-CC-PVTZ AUX)
    Blend: AUG-CC-PVTZ-RI
    Molecular point group: c1

    Geometry (in Angstrom), charge = 0, multiplicity = 1:

       Center              X                  Y                   Z               Mass
    ------------   -----------------  -----------------  -----------------  -----------------
         O            1.620941768807    -0.589185776568     1.127183396297    15.994914619570
         O           -2.769868231193    -0.003828776568     0.092771396297    15.994914619570
         O            2.180835768807    -0.090847776568    -1.019498603703    15.994914619570
         O           -0.881099231193    -1.184962776568    -0.349542603703    15.994914619570
         C            0.584063768807     1.278542223432     0.126145396297    12.000000000000
         C           -0.753076231193     1.178610223432     0.089217396297    12.000000000000
         C            1.522918768807     0.123856223432    -0.018565603703    12.000000000000
         C           -1.451744231193    -0.265452576568    -0.104893203703    12.000000000000
         H            1.053530768807     2.255404223432     0.212750396297     1.007825032230
         H           -1.381931231193     2.059171223432     0.171130396297     1.007825032230
         H            2.238897768807    -1.324360776568     0.928879396297     1.007825032230
         H           -3.139023231193    -0.901533776568    -0.040935603703     1.007825032230

  Basis Set: AUG-CC-PVTZ
    Blend: AUG-CC-PVTZ
  Basis Set: (AUG-CC-PVTZ AUX)
    Blend: AUG-CC-PVTZ-JKFIT
	 Reference Energy          =    -453.4138698023776328 [Eh]
	 Singles Energy            =      -0.0000000000000000 [Eh]
	 Same-Spin Energy          =      -0.4314651830607893 [Eh]
	 Opposite-Spin Energy      =      -1.2837427624633824 [Eh]
	 Correlation Energy        =      -1.7152079455241718 [Eh]
	 Total Energy              =    -455.1290777479018175 [Eh]

	 ================> DF-SCS-MP2 Energies <==================
	-----------------------------------------------------------
	 SCS Same-Spin Scale       =       0.3333333333333333 [-]
	 SCS Opposite-Spin Scale   =       1.2000000000000000 [-]
	 SCS Same-Spin Energy      =      -0.1438217276869297 [Eh]
	 SCS Opposite-Spin Energy  =      -1.5404913149560588 [Eh]
	 SCS Correlation Energy    =      -1.6843130426429886 [Eh]
	 SCS Total Energy          =    -455.0981828450206308 [Eh]
	-----------------------------------------------------------

  Dipole Moment: [D]
     X:    -1.6776      Y:     0.2322      Z:     1.4334     Total:     2.2188

*** Psi4 exiting successfully. Buy a developer a beer!
