                               Psi4 1.3.2 release

  ==> Input File <==

--------------------------------------------------------------------------
#psi4
#
memory 32 gb

molecule  {
0 1
  O        1.6287540    -0.6201880     1.1142450
  O       -2.7620560    -0.0348310     0.0798330
  O        2.1886480    -0.1218500    -1.0324370
  O       -0.7631979    -1.1510888    -0.3632378
  C        0.5918760     1.2475400     0.1132070
  C       -0.7452640     1.1476080     0.0762790
  C        1.5307310     0.0928540    -0.0315040
  C       -1.4205430    -0.1583360    -0.0935410
  H        1.0613430     2.2244020     0.1998120
  H       -1.3741190     2.0281690     0.1581920
  H        2.2467100    -1.3553630     0.9159410
  H       -3.1312110    -0.9325360    -0.0538740
units angstrom
no_reorient  #important for SAPT in psi4, default
symmetry c1  #important for SAPT in psi4, default
}

set PROPERTIES_ORIGIN ["COM"]
properties('MP2/aug-cc-pvtz', properties = ['dipole'])
--------------------------------------------------------------------------

    Molecular point group: c1
  Charge       = 0
  Multiplicity = 1
  Basis Set: AUG-CC-PVTZ
    Blend: AUG-CC-PVTZ
  Basis Set: (AUG-CC-PVTZ AUX)
    Blend: AUG-CC-PVTZ-JKFIT

    Orbital Energies [Eh]
    ---------------------

    Doubly Occupied:

       1A    -20.641071     2A    -20.619404     3A    -20.567003
       4A    -20.556529     5A    -11.411207     6A    -11.405376
       7A    -11.293722     8A    -11.274743     9A     -1.476707
      10A     -1.464882    11A     -1.381391    12A     -1.363115
      13A     -1.111260    14A     -0.956930    15A     -0.861145
      16A     -0.782831    17A     -0.733872    18A     -0.721819
      19A     -0.706451    20A     -0.666701    21A     -0.655834
      22A     -0.645877    23A     -0.606087    24A     -0.603936
      25A     -0.575906    26A     -0.512536    27A     -0.484950
      28A     -0.473967    29A     -0.463260    30A     -0.411333

  @DF-RHF Final Energy:  -453.43208062194441

   => Energetics <=

    Nuclear Repulsion Energy =            360.2228821922494149
    One-Electron Energy =               -1336.4502401294664651
    Two-Electron Energy =                 522.7952773152725285
    Total Energy =                       -453.4320806219444648
  Basis Set: (AUG-CC-PVTZ AUX)
    Blend: AUG-CC-PVTZ-RI
    Molecular point group: c1

    Geometry (in Angstrom), charge = 0, multiplicity = 1:

       Center              X                  Y                   Z               Mass
    ------------   -----------------  -----------------  -----------------  -----------------
         O            1.603344002358    -0.612417330830     1.124775156145    15.994914619570
         O           -2.787465997642    -0.027060330830     0.090363156145    15.994914619570
         O            2.163238002358    -0.114079330830    -1.021906843855    15.994914619570
         O           -0.788607897642    -1.143318130830    -0.352707643855    15.994914619570
         C            0.566466002358     1.255310669170     0.123737156145    12.000000000000
         C           -0.770673997642     1.155378669170     0.086809156145    12.000000000000
         C            1.505321002358     0.100624669170    -0.020973843855    12.000000000000
         C           -1.445952997642    -0.150565330830    -0.083010843855    12.000000000000
         H            1.035933002358     2.232172669170     0.210342156145     1.007825032230
         H           -1.399528997642     2.035939669170     0.168722156145     1.007825032230
         H            2.221300002358    -1.347592330830     0.926471156145     1.007825032230
         H           -3.156620997642    -0.924765330830    -0.043343843855     1.007825032230

  Basis Set: AUG-CC-PVTZ
    Blend: AUG-CC-PVTZ
  Basis Set: (AUG-CC-PVTZ AUX)
    Blend: AUG-CC-PVTZ-JKFIT
	 Reference Energy          =    -453.4320806219444080 [Eh]
	 Singles Energy            =      -0.0000000000000000 [Eh]
	 Same-Spin Energy          =      -0.4343212698590891 [Eh]
	 Opposite-Spin Energy      =      -1.2891656272309293 [Eh]
	 Correlation Energy        =      -1.7234868970900186 [Eh]
	 Total Energy              =    -455.1555675190344346 [Eh]

	 ================> DF-SCS-MP2 Energies <==================
	-----------------------------------------------------------
	 SCS Same-Spin Scale       =       0.3333333333333333 [-]
	 SCS Opposite-Spin Scale   =       1.2000000000000000 [-]
	 SCS Same-Spin Energy      =      -0.1447737566196964 [Eh]
	 SCS Opposite-Spin Energy  =      -1.5469987526771152 [Eh]
	 SCS Correlation Energy    =      -1.6917725092968117 [Eh]
	 SCS Total Energy          =    -455.1238531312412192 [Eh]
	-----------------------------------------------------------

  Dipole Moment: [D]
     X:    -1.7732      Y:     0.8263      Z:     1.5715     Total:     2.5093

*** Psi4 exiting successfully. Buy a developer a beer!
