                               Psi4 1.3.2 release

  ==> Input File <==

--------------------------------------------------------------------------
#psi4
#
memory 32 gb

molecule  {
0 1
  O        1.6287540    -0.6201880     1.1142450
  O       -2.7695129    -0.1277200     0.0623822
  O        2.1886480    -0.1218500    -1.0324370
  O       -0.8732870    -1.2159650    -0.3624810
  C        0.5918760     1.2475400     0.1132070
  C       -0.7452640     1.1476080     0.0762790
  C        1.5307310     0.0928540    -0.0315040
  C       -1.4205430    -0.1583360    -0.0935410
  H        1.0613430     2.2244020     0.1998120
  H       -1.3741190     2.0281690     0.1581920
  H        2.2467100    -1.3553630     0.9159410
  H       -3.1312110    -0.9325360    -0.0538740
units angstrom
no_reorient  #important for SAPT in psi4, default
symmetry c1  #important for SAPT in psi4, default
}

set PROPERTIES_ORIGIN ["COM"]
properties('MP2/aug-cc-pvtz', properties = ['dipole'])
--------------------------------------------------------------------------

    Molecular point group: c1
  Charge       = 0
  Multiplicity = 1
  Basis Set: AUG-CC-PVTZ
    Blend: AUG-CC-PVTZ
  Basis Set: (AUG-CC-PVTZ AUX)
    Blend: AUG-CC-PVTZ-JKFIT

    Orbital Energies [Eh]
    ---------------------

    Doubly Occupied:

       1A    -20.624311     2A    -20.616823     3A    -20.562386
       4A    -20.560361     5A    -11.410590     6A    -11.410045
       7A    -11.302591     8A    -11.285434     9A     -1.484440
      10A     -1.469979    11A     -1.372155    12A     -1.368204
      13A     -1.120531    14A     -0.967016    15A     -0.873966
      16A     -0.796058    17A     -0.738839    18A     -0.715825
      19A     -0.711196    20A     -0.673371    21A     -0.656810
      22A     -0.642064    23A     -0.611486    24A     -0.606159
      25A     -0.578310    26A     -0.505265    27A     -0.487058
      28A     -0.475763    29A     -0.466591    30A     -0.418540

  @DF-RHF Final Energy:  -453.43257793956815

   => Energetics <=

    Nuclear Repulsion Energy =            359.0258149530622518
    One-Electron Energy =               -1333.8924514764919422
    Two-Electron Energy =                 521.4340585838615425
    Total Energy =                       -453.4325779395680911
  Basis Set: (AUG-CC-PVTZ AUX)
    Blend: AUG-CC-PVTZ-RI
    Molecular point group: c1

    Geometry (in Angstrom), charge = 0, multiplicity = 1:

       Center              X                  Y                   Z               Mass
    ------------   -----------------  -----------------  -----------------  -----------------
         O            1.619550559535    -0.590665584838     1.127076827538    15.994914619570
         O           -2.778716340465    -0.098197584838     0.075214027538    15.994914619570
         O            2.179444559535    -0.092327584838    -1.019605172462    15.994914619570
         O           -0.882490440465    -1.186442584838    -0.349649172462    15.994914619570
         C            0.582672559535     1.277062415162     0.126038827538    12.000000000000
         C           -0.754467440465     1.177130415162     0.089110827538    12.000000000000
         C            1.521527559535     0.122376415162    -0.018672172462    12.000000000000
         C           -1.429746440465    -0.128813584838    -0.080709172462    12.000000000000
         H            1.052139559535     2.253924415162     0.212643827538     1.007825032230
         H           -1.383322440465     2.057691415162     0.171023827538     1.007825032230
         H            2.237506559535    -1.325840584838     0.928772827538     1.007825032230
         H           -3.140414440465    -0.903013584838    -0.041042172462     1.007825032230

  Basis Set: AUG-CC-PVTZ
    Blend: AUG-CC-PVTZ
  Basis Set: (AUG-CC-PVTZ AUX)
    Blend: AUG-CC-PVTZ-JKFIT
	 Reference Energy          =    -453.4325779395681479 [Eh]
	 Singles Energy            =      -0.0000000000000000 [Eh]
	 Same-Spin Energy          =      -0.4321959930095083 [Eh]
	 Opposite-Spin Energy      =      -1.2848288179791145 [Eh]
	 Correlation Energy        =      -1.7170248109886228 [Eh]
	 Total Energy              =    -455.1496027505567668 [Eh]

	 ================> DF-SCS-MP2 Energies <==================
	-----------------------------------------------------------
	 SCS Same-Spin Scale       =       0.3333333333333333 [-]
	 SCS Opposite-Spin Scale   =       1.2000000000000000 [-]
	 SCS Same-Spin Energy      =      -0.1440653310031694 [Eh]
	 SCS Opposite-Spin Energy  =      -1.5417945815749374 [Eh]
	 SCS Correlation Energy    =      -1.6858599125781069 [Eh]
	 SCS Total Energy          =    -455.1184378521462577 [Eh]
	-----------------------------------------------------------

  Dipole Moment: [D]
     X:    -1.2292      Y:     1.2244      Z:     1.6131     Total:     2.3690

*** Psi4 exiting successfully. Buy a developer a beer!
