                               Psi4 1.3.2 release

  ==> Input File <==

--------------------------------------------------------------------------
#psi4
#
memory 32 gb

molecule  {
0 1
  O        1.6287540    -0.6201880     1.1142450
  O       -2.7386363     0.1032336     0.1044000
  O        2.1886480    -0.1218500    -1.0324370
  O       -0.8732870    -1.2159650    -0.3624810
  C        0.5918760     1.2475400     0.1132070
  C       -0.7452640     1.1476080     0.0762790
  C        1.5307310     0.0928540    -0.0315040
  C       -1.4205430    -0.1583360    -0.0935410
  H        1.0613430     2.2244020     0.1998120
  H       -1.3741190     2.0281690     0.1581920
  H        2.2467100    -1.3553630     0.9159410
  H       -3.1312110    -0.9325360    -0.0538740
units angstrom
no_reorient  #important for SAPT in psi4, default
symmetry c1  #important for SAPT in psi4, default
}

set PROPERTIES_ORIGIN ["COM"]
properties('MP2/aug-cc-pvtz', properties = ['dipole'])
--------------------------------------------------------------------------

    Molecular point group: c1
  Charge       = 0
  Multiplicity = 1
  Basis Set: AUG-CC-PVTZ
    Blend: AUG-CC-PVTZ
  Basis Set: (AUG-CC-PVTZ AUX)
    Blend: AUG-CC-PVTZ-JKFIT

    Orbital Energies [Eh]
    ---------------------

    Doubly Occupied:

       1A    -20.646831     2A    -20.622472     3A    -20.570692
       4A    -20.559740     5A    -11.410266     6A    -11.407311
       7A    -11.293895     8A    -11.274571     9A     -1.469345
      10A     -1.463330    11A     -1.372351    12A     -1.365908
      13A     -1.112264    14A     -0.951026    15A     -0.851944
      16A     -0.770265    17A     -0.725960    18A     -0.719778
      19A     -0.708772    20A     -0.662116    21A     -0.653051
      22A     -0.642503    23A     -0.611445    24A     -0.594383
      25A     -0.577422    26A     -0.508690    27A     -0.487178
      28A     -0.476535    29A     -0.465473    30A     -0.413376

  @DF-RHF Final Energy:  -453.40821913149580

   => Energetics <=

    Nuclear Repulsion Energy =            358.5167599583397191
    One-Electron Energy =               -1333.0721730343645959
    Two-Electron Energy =                 521.1471939445291355
    Total Energy =                       -453.4082191314957981
  Basis Set: (AUG-CC-PVTZ AUX)
    Blend: AUG-CC-PVTZ-RI
    Molecular point group: c1

    Geometry (in Angstrom), charge = 0, multiplicity = 1:

       Center              X                  Y                   Z               Mass
    ------------   -----------------  -----------------  -----------------  -----------------
         O            1.615293473940    -0.622508120728     1.121283658241    15.994914619570
         O           -2.752096826060     0.100913479272     0.111438658241    15.994914619570
         O            2.175187473940    -0.124170120728    -1.025398341759    15.994914619570
         O           -0.886747526060    -1.218285120728    -0.355442341759    15.994914619570
         C            0.578415473940     1.245219879272     0.120245658241    12.000000000000
         C           -0.758724526060     1.145287879272     0.083317658241    12.000000000000
         C            1.517270473940     0.090533879272    -0.024465341759    12.000000000000
         C           -1.434003526060    -0.160656120728    -0.086502341759    12.000000000000
         H            1.047882473940     2.222081879272     0.206850658241     1.007825032230
         H           -1.387579526060     2.025848879272     0.165230658241     1.007825032230
         H            2.233249473940    -1.357683120728     0.922979658241     1.007825032230
         H           -3.144671526060    -0.934856120728    -0.046835341759     1.007825032230

  Basis Set: AUG-CC-PVTZ
    Blend: AUG-CC-PVTZ
  Basis Set: (AUG-CC-PVTZ AUX)
    Blend: AUG-CC-PVTZ-JKFIT
	 Reference Energy          =    -453.4082191314957981 [Eh]
	 Singles Energy            =      -0.0000000000000000 [Eh]
	 Same-Spin Energy          =      -0.4367393217902180 [Eh]
	 Opposite-Spin Energy      =      -1.2946688209410337 [Eh]
	 Correlation Energy        =      -1.7314081427312518 [Eh]
	 Total Energy              =    -455.1396272742270526 [Eh]

	 ================> DF-SCS-MP2 Energies <==================
	-----------------------------------------------------------
	 SCS Same-Spin Scale       =       0.3333333333333333 [-]
	 SCS Opposite-Spin Scale   =       1.2000000000000000 [-]
	 SCS Same-Spin Energy      =      -0.1455797739300727 [Eh]
	 SCS Opposite-Spin Energy  =      -1.5536025851292405 [Eh]
	 SCS Correlation Energy    =      -1.6991823590593131 [Eh]
	 SCS Total Energy          =    -455.1074014905551053 [Eh]
	-----------------------------------------------------------

  Dipole Moment: [D]
     X:    -1.5577      Y:     0.8690      Z:     1.5680     Total:     2.3749

*** Psi4 exiting successfully. Buy a developer a beer!
