                               Psi4 1.3.2 release

  ==> Input File <==

--------------------------------------------------------------------------
#psi4
#
memory 32 gb

molecule  {
0 1
  O        1.6287540    -0.6201880     1.1142450
  O       -2.7620560    -0.0348310     0.0798330
  O        2.1886480    -0.1218500    -1.0324370
  O       -0.8732870    -1.2159650    -0.3624810
  C        0.5918760     1.2475400     0.1132070
  C       -0.7452640     1.1476080     0.0762790
  C        1.5307310     0.0928540    -0.0315040
  C       -1.3757160    -0.2449688    -0.1155705
  H        1.0613430     2.2244020     0.1998120
  H       -1.3741190     2.0281690     0.1581920
  H        2.2467100    -1.3553630     0.9159410
  H       -3.1312110    -0.9325360    -0.0538740
units angstrom
no_reorient  #important for SAPT in psi4, default
symmetry c1  #important for SAPT in psi4, default
}

set PROPERTIES_ORIGIN ["COM"]
properties('MP2/aug-cc-pvtz', properties = ['dipole'])
--------------------------------------------------------------------------

    Molecular point group: c1
  Charge       = 0
  Multiplicity = 1
  Basis Set: AUG-CC-PVTZ
    Blend: AUG-CC-PVTZ
  Basis Set: (AUG-CC-PVTZ AUX)
    Blend: AUG-CC-PVTZ-JKFIT

    Orbital Energies [Eh]
    ---------------------

    Doubly Occupied:

       1A    -20.625671     2A    -20.614034     3A    -20.584098
       4A    -20.562122     5A    -11.408766     6A    -11.403227
       7A    -11.289829     8A    -11.279821     9A     -1.509089
      10A     -1.470711    11A     -1.390379    12A     -1.368579
      13A     -1.108692    14A     -0.941965    15A     -0.851086
      16A     -0.774758    17A     -0.736885    18A     -0.729713
      19A     -0.711918    20A     -0.668237    21A     -0.659900
      22A     -0.651603    23A     -0.620542    24A     -0.601675
      25A     -0.584896    26A     -0.522328    27A     -0.492396
      28A     -0.478628    29A     -0.465489    30A     -0.414758

  @DF-RHF Final Energy:  -453.42431913875538

   => Energetics <=

    Nuclear Repulsion Energy =            359.4556294409499628
    One-Electron Energy =               -1334.7163064825288075
    Two-Electron Energy =                 521.8363579028235790
    Total Energy =                       -453.4243191387553225
  Basis Set: (AUG-CC-PVTZ AUX)
    Blend: AUG-CC-PVTZ-RI
    Molecular point group: c1

    Geometry (in Angstrom), charge = 0, multiplicity = 1:

       Center              X                  Y                   Z               Mass
    ------------   -----------------  -----------------  -----------------  -----------------
         O            1.613885607821    -0.594511411383     1.126949511496    15.994914619570
         O           -2.776924392179    -0.009154411383     0.092537511496    15.994914619570
         O            2.173779607821    -0.096173411383    -1.019732488504    15.994914619570
         O           -0.888155392179    -1.190288411383    -0.349776488504    15.994914619570
         C            0.577007607821     1.273216588617     0.125911511496    12.000000000000
         C           -0.760132392179     1.173284588617     0.088983511496    12.000000000000
         C            1.515862607821     0.118530588617    -0.018799488504    12.000000000000
         C           -1.390584392179    -0.219292211383    -0.102865988504    12.000000000000
         H            1.046474607821     2.250078588617     0.212516511496     1.007825032230
         H           -1.388987392179     2.053845588617     0.170896511496     1.007825032230
         H            2.231841607821    -1.329686411383     0.928645511496     1.007825032230
         H           -3.146079392179    -0.906859411383    -0.041169488504     1.007825032230

  Basis Set: AUG-CC-PVTZ
    Blend: AUG-CC-PVTZ
  Basis Set: (AUG-CC-PVTZ AUX)
    Blend: AUG-CC-PVTZ-JKFIT
	 Reference Energy          =    -453.4243191387553793 [Eh]
	 Singles Energy            =      -0.0000000000000000 [Eh]
	 Same-Spin Energy          =      -0.4320063668488541 [Eh]
	 Opposite-Spin Energy      =      -1.2850169162600718 [Eh]
	 Correlation Energy        =      -1.7170232831089258 [Eh]
	 Total Energy              =    -455.1413424218642945 [Eh]

	 ================> DF-SCS-MP2 Energies <==================
	-----------------------------------------------------------
	 SCS Same-Spin Scale       =       0.3333333333333333 [-]
	 SCS Opposite-Spin Scale   =       1.2000000000000000 [-]
	 SCS Same-Spin Energy      =      -0.1440021222829513 [Eh]
	 SCS Opposite-Spin Energy  =      -1.5420202995120860 [Eh]
	 SCS Correlation Energy    =      -1.6860224217950373 [Eh]
	 SCS Total Energy          =    -455.1103415605504097 [Eh]
	-----------------------------------------------------------

  Dipole Moment: [D]
     X:    -0.9708      Y:     0.5535      Z:     1.4358     Total:     1.8194

*** Psi4 exiting successfully. Buy a developer a beer!
