                               Psi4 1.3.2 release

  ==> Input File <==

--------------------------------------------------------------------------
#psi4
#
memory 32 gb

molecule  {
0 1
  O        1.6287540    -0.6201880     1.1142450
  O       -2.7620560    -0.0348310     0.0798330
  O        2.1886480    -0.1218500    -1.0324370
  O       -0.8732870    -1.2159650    -0.3624810
  C        0.5918760     1.2475400     0.1132070
  C       -0.7452640     1.1476080     0.0762790
  C        1.5307310     0.0928540    -0.0315040
  C       -1.4205430    -0.1583360    -0.0935410
  H        0.9749861     2.0447114     0.1838813
  H       -1.3741190     2.0281690     0.1581920
  H        2.2467100    -1.3553630     0.9159410
  H       -3.1312110    -0.9325360    -0.0538740
units angstrom
no_reorient  #important for SAPT in psi4, default
symmetry c1  #important for SAPT in psi4, default
}

set PROPERTIES_ORIGIN ["COM"]
properties('MP2/aug-cc-pvtz', properties = ['dipole'])
--------------------------------------------------------------------------

    Molecular point group: c1
  Charge       = 0
  Multiplicity = 1
  Basis Set: AUG-CC-PVTZ
    Blend: AUG-CC-PVTZ
  Basis Set: (AUG-CC-PVTZ AUX)
    Blend: AUG-CC-PVTZ-JKFIT

    Orbital Energies [Eh]
    ---------------------

    Doubly Occupied:

       1A    -20.630502     2A    -20.623334     3A    -20.564527
       4A    -20.561418     5A    -11.409097     6A    -11.408342
       7A    -11.281431     8A    -11.276941     9A     -1.474947
      10A     -1.468445    11A     -1.371213    12A     -1.367276
      13A     -1.127486    14A     -0.969411    15A     -0.867583
      16A     -0.804783    17A     -0.739772    18A     -0.718839
      19A     -0.710304    20A     -0.676524    21A     -0.663319
      22A     -0.642282    23A     -0.616535    24A     -0.606207
      25A     -0.584669    26A     -0.506507    27A     -0.487159
      28A     -0.476426    29A     -0.467645    30A     -0.416831

  @DF-RHF Final Energy:  -453.40112368846917

   => Energetics <=

    Nuclear Repulsion Energy =            359.8938759731883010
    One-Electron Energy =               -1335.5504854959849581
    Two-Electron Energy =                 522.2554858343274873
    Total Energy =                       -453.4011236884691698
  Basis Set: (AUG-CC-PVTZ AUX)
    Blend: AUG-CC-PVTZ-RI
    Molecular point group: c1

    Geometry (in Angstrom), charge = 0, multiplicity = 1:

       Center              X                  Y                   Z               Mass
    ------------   -----------------  -----------------  -----------------  -----------------
         O            1.619272656192    -0.601911547763     1.124809208160    15.994914619570
         O           -2.771537343808    -0.016554547763     0.090397208160    15.994914619570
         O            2.179166656192    -0.103573547763    -1.021872791840    15.994914619570
         O           -0.882768343808    -1.197688547763    -0.351916791840    15.994914619570
         C            0.582394656192     1.265816452237     0.123771208160    12.000000000000
         C           -0.754745343808     1.165884452237     0.086843208160    12.000000000000
         C            1.521249656192     0.111130452237    -0.020939791840    12.000000000000
         C           -1.430024343808    -0.140059547763    -0.082976791840    12.000000000000
         H            0.965504756192     2.062987852237     0.194445508160     1.007825032230
         H           -1.383600343808     2.046445452237     0.168756208160     1.007825032230
         H            2.237228656192    -1.337086547763     0.926505208160     1.007825032230
         H           -3.140692343808    -0.914259547763    -0.043309791840     1.007825032230

  Basis Set: AUG-CC-PVTZ
    Blend: AUG-CC-PVTZ
  Basis Set: (AUG-CC-PVTZ AUX)
    Blend: AUG-CC-PVTZ-JKFIT
	 Reference Energy          =    -453.4011236884691698 [Eh]
	 Singles Energy            =      -0.0000000000000000 [Eh]
	 Same-Spin Energy          =      -0.4336079254694133 [Eh]
	 Opposite-Spin Energy      =      -1.2878716410762754 [Eh]
	 Correlation Energy        =      -1.7214795665456886 [Eh]
	 Total Energy              =    -455.1226032550148375 [Eh]

	 ================> DF-SCS-MP2 Energies <==================
	-----------------------------------------------------------
	 SCS Same-Spin Scale       =       0.3333333333333333 [-]
	 SCS Opposite-Spin Scale   =       1.2000000000000000 [-]
	 SCS Same-Spin Energy      =      -0.1445359751564711 [Eh]
	 SCS Opposite-Spin Energy  =      -1.5454459692915303 [Eh]
	 SCS Correlation Energy    =      -1.6899819444480015 [Eh]
	 SCS Total Energy          =    -455.0911056329171629 [Eh]
	-----------------------------------------------------------

  Dipole Moment: [D]
     X:    -1.4057      Y:     1.0317      Z:     1.5917     Total:     2.3609

*** Psi4 exiting successfully. Buy a developer a beer!
