                               Psi4 1.3.2 release

  ==> Input File <==

--------------------------------------------------------------------------
#psi4
#
memory 32 gb

molecule  {
0 1
  O        1.6287540    -0.6201880     1.1142450
  O       -2.7620560    -0.0348310     0.0798330
  O        2.1886480    -0.1218500    -1.0324370
  O       -0.8732870    -1.2159650    -0.3624810
  C        0.5934806     1.2243479     0.1104443
  C       -0.7452640     1.1476080     0.0762790
  C        1.5307310     0.0928540    -0.0315040
  C       -1.4205430    -0.1583360    -0.0935410
  H        1.0613430     2.2244020     0.1998120
  H       -1.3741190     2.0281690     0.1581920
  H        2.2467100    -1.3553630     0.9159410
  H       -3.1312110    -0.9325360    -0.0538740
units angstrom
no_reorient  #important for SAPT in psi4, default
symmetry c1  #important for SAPT in psi4, default
}

set PROPERTIES_ORIGIN ["COM"]
properties('MP2/aug-cc-pvtz', properties = ['dipole'])
--------------------------------------------------------------------------

    Molecular point group: c1
  Charge       = 0
  Multiplicity = 1
  Basis Set: AUG-CC-PVTZ
    Blend: AUG-CC-PVTZ
  Basis Set: (AUG-CC-PVTZ AUX)
    Blend: AUG-CC-PVTZ-JKFIT

    Orbital Energies [Eh]
    ---------------------

    Doubly Occupied:

       1A    -20.630203     2A    -20.623571     3A    -20.563964
       4A    -20.561490     5A    -11.408723     6A    -11.408702
       7A    -11.299639     8A    -11.281352     9A     -1.474832
      10A     -1.468992    11A     -1.370924    12A     -1.367645
      13A     -1.118513    14A     -0.962087    15A     -0.863362
      16A     -0.780978    17A     -0.734535    18A     -0.719274
      19A     -0.710676    20A     -0.667931    21A     -0.655265
      22A     -0.642163    23A     -0.610256    24A     -0.604321
      25A     -0.577839    26A     -0.506411    27A     -0.487208
      28A     -0.476776    29A     -0.467052    30A     -0.416580

  @DF-RHF Final Energy:  -453.43523724001483

   => Energetics <=

    Nuclear Repulsion Energy =            359.0800942550192190
    One-Electron Energy =               -1334.1081363800606141
    Two-Electron Energy =                 521.5928048850265668
    Total Energy =                       -453.4352372400147715
  Basis Set: (AUG-CC-PVTZ AUX)
    Blend: AUG-CC-PVTZ-RI
    Molecular point group: c1

    Geometry (in Angstrom), charge = 0, multiplicity = 1:

       Center              X                  Y                   Z               Mass
    ------------   -----------------  -----------------  -----------------  -----------------
         O            1.618356468214    -0.601073622480     1.124956582528    15.994914619570
         O           -2.772453531786    -0.015716622480     0.090544582528    15.994914619570
         O            2.178250468214    -0.102735622480    -1.021725417472    15.994914619570
         O           -0.883684531786    -1.196850622480    -0.351769417472    15.994914619570
         C            0.583083068214     1.243462277520     0.121155882528    12.000000000000
         C           -0.755661531786     1.166722377520     0.086990582528    12.000000000000
         C            1.520333468214     0.111968377520    -0.020792417472    12.000000000000
         C           -1.430940531786    -0.139221622480    -0.082829417472    12.000000000000
         H            1.050945468214     2.243516377520     0.210523582528     1.007825032230
         H           -1.384516531786     2.047283377520     0.168903582528     1.007825032230
         H            2.236312468214    -1.336248622480     0.926652582528     1.007825032230
         H           -3.141608531786    -0.913421622480    -0.043162417472     1.007825032230

  Basis Set: AUG-CC-PVTZ
    Blend: AUG-CC-PVTZ
  Basis Set: (AUG-CC-PVTZ AUX)
    Blend: AUG-CC-PVTZ-JKFIT
	 Reference Energy          =    -453.4352372400148283 [Eh]
	 Singles Energy            =      -0.0000000000000000 [Eh]
	 Same-Spin Energy          =      -0.4340003933942836 [Eh]
	 Opposite-Spin Energy      =      -1.2883496794570066 [Eh]
	 Correlation Energy        =      -1.7223500728512902 [Eh]
	 Total Energy              =    -455.1575873128660987 [Eh]

	 ================> DF-SCS-MP2 Energies <==================
	-----------------------------------------------------------
	 SCS Same-Spin Scale       =       0.3333333333333333 [-]
	 SCS Opposite-Spin Scale   =       1.2000000000000000 [-]
	 SCS Same-Spin Energy      =      -0.1446667977980945 [Eh]
	 SCS Opposite-Spin Energy  =      -1.5460196153484078 [Eh]
	 SCS Correlation Energy    =      -1.6906864131465023 [Eh]
	 SCS Total Energy          =    -455.1259236531613510 [Eh]
	-----------------------------------------------------------

  Dipole Moment: [D]
     X:    -1.3805      Y:     1.0761      Z:     1.5938     Total:     2.3672

*** Psi4 exiting successfully. Buy a developer a beer!
