                               Psi4 1.3.2 release

  ==> Input File <==

--------------------------------------------------------------------------
#psi4
#
memory 32 gb

molecule  {
0 1
  O        1.6287540    -0.6201880     1.1142450
  O       -2.7620560    -0.0348310     0.0798330
  O        2.1886480    -0.1218500    -1.0324370
  O       -0.8732870    -1.2159650    -0.3624810
  C        0.5874454     1.2938259     0.1186977
  C       -0.7452640     1.1476080     0.0762790
  C        1.5307310     0.0928540    -0.0315040
  C       -1.4205430    -0.1583360    -0.0935410
  H        1.0613430     2.2244020     0.1998120
  H       -1.3741190     2.0281690     0.1581920
  H        2.2467100    -1.3553630     0.9159410
  H       -3.1312110    -0.9325360    -0.0538740
units angstrom
no_reorient  #important for SAPT in psi4, default
symmetry c1  #important for SAPT in psi4, default
}

set PROPERTIES_ORIGIN ["COM"]
properties('MP2/aug-cc-pvtz', properties = ['dipole'])
--------------------------------------------------------------------------

    Molecular point group: c1
  Charge       = 0
  Multiplicity = 1
  Basis Set: AUG-CC-PVTZ
    Blend: AUG-CC-PVTZ
  Basis Set: (AUG-CC-PVTZ AUX)
    Blend: AUG-CC-PVTZ-JKFIT

    Orbital Energies [Eh]
    ---------------------

    Doubly Occupied:

       1A    -20.631193     2A    -20.623422     3A    -20.565135
       4A    -20.560840     5A    -11.410791     6A    -11.410146
       7A    -11.298297     8A    -11.280377     9A     -1.475307
      10A     -1.467446    11A     -1.371730    12A     -1.366416
      13A     -1.114966    14A     -0.955228    15A     -0.860882
      16A     -0.786547    17A     -0.733717    18A     -0.717805
      19A     -0.709482    20A     -0.668021    21A     -0.658054
      22A     -0.642605    23A     -0.613703    24A     -0.605930
      25A     -0.577055    26A     -0.506446    27A     -0.486752
      28A     -0.476083    29A     -0.464424    30A     -0.416630

  @DF-RHF Final Energy:  -453.43427302078192

   => Energetics <=

    Nuclear Repulsion Energy =            357.9754621421888601
    One-Electron Energy =               -1331.9086103946669937
    Two-Electron Energy =                 520.4988752316961609
    Total Energy =                       -453.4342730207819159
  Basis Set: (AUG-CC-PVTZ AUX)
    Blend: AUG-CC-PVTZ-RI
    Molecular point group: c1

    Geometry (in Angstrom), charge = 0, multiplicity = 1:

       Center              X                  Y                   Z               Mass
    ------------   -----------------  -----------------  -----------------  -----------------
         O            1.618980740273    -0.608260322858     1.124102863180    15.994914619570
         O           -2.771829259727    -0.022903322858     0.089690863180    15.994914619570
         O            2.178874740273    -0.109922322858    -1.022579136820    15.994914619570
         O           -0.883060259727    -1.204037322858    -0.352623136820    15.994914619570
         C            0.577672140273     1.305753577142     0.128555563180    12.000000000000
         C           -0.755037259727     1.159535677142     0.086136863180    12.000000000000
         C            1.520957740273     0.104781677142    -0.021646136820    12.000000000000
         C           -1.430316259727    -0.146408322858    -0.083683136820    12.000000000000
         H            1.051569740273     2.236329677142     0.209669863180     1.007825032230
         H           -1.383892259727     2.040096677142     0.168049863180     1.007825032230
         H            2.236936740273    -1.343435322858     0.925798863180     1.007825032230
         H           -3.140984259727    -0.920608322858    -0.044016136820     1.007825032230

  Basis Set: AUG-CC-PVTZ
    Blend: AUG-CC-PVTZ
  Basis Set: (AUG-CC-PVTZ AUX)
    Blend: AUG-CC-PVTZ-JKFIT
	 Reference Energy          =    -453.4342730207819159 [Eh]
	 Singles Energy            =      -0.0000000000000000 [Eh]
	 Same-Spin Energy          =      -0.4334752965005771 [Eh]
	 Opposite-Spin Energy      =      -1.2880154459632376 [Eh]
	 Correlation Energy        =      -1.7214907424638146 [Eh]
	 Total Energy              =    -455.1557637632457158 [Eh]

	 ================> DF-SCS-MP2 Energies <==================
	-----------------------------------------------------------
	 SCS Same-Spin Scale       =       0.3333333333333333 [-]
	 SCS Opposite-Spin Scale   =       1.2000000000000000 [-]
	 SCS Same-Spin Energy      =      -0.1444917655001924 [Eh]
	 SCS Opposite-Spin Energy  =      -1.5456185351558851 [Eh]
	 SCS Correlation Energy    =      -1.6901103006560776 [Eh]
	 SCS Total Energy          =    -455.1243833214380174 [Eh]
	-----------------------------------------------------------

  Dipole Moment: [D]
     X:    -1.3614      Y:     1.0590      Z:     1.5937     Total:     2.3484

*** Psi4 exiting successfully. Buy a developer a beer!
