                               Psi4 1.3.2 release

  ==> Input File <==

--------------------------------------------------------------------------
#psi4
#
memory 32 gb

molecule  {
0 1
  O        1.6287540    -0.6201880     1.1142450
  O       -2.7620560    -0.0348310     0.0798330
  O        2.1886480    -0.1218500    -1.0324370
  O       -0.8732870    -1.2159650    -0.3624810
  C        0.5918760     1.2475400     0.1132070
  C       -0.7452640     1.1476080     0.0762790
  C        1.5307310     0.0928540    -0.0315040
  C       -1.5117984    -0.3348177    -0.1164900
  H        1.0613430     2.2244020     0.1998120
  H       -1.3741190     2.0281690     0.1581920
  H        2.2467100    -1.3553630     0.9159410
  H       -3.1312110    -0.9325360    -0.0538740
units angstrom
no_reorient  #important for SAPT in psi4, default
symmetry c1  #important for SAPT in psi4, default
}

set PROPERTIES_ORIGIN ["COM"]
properties('MP2/aug-cc-pvtz', properties = ['dipole'])
--------------------------------------------------------------------------

    Molecular point group: c1
  Charge       = 0
  Multiplicity = 1
  Basis Set: AUG-CC-PVTZ
    Blend: AUG-CC-PVTZ
  Basis Set: (AUG-CC-PVTZ AUX)
    Blend: AUG-CC-PVTZ-JKFIT

    Orbital Energies [Eh]
    ---------------------

    Doubly Occupied:

       1A    -20.655815     2A    -20.616736     3A    -20.585123
       4A    -20.551376     5A    -11.411967     6A    -11.397167
       7A    -11.269284     8A    -11.265648     9A     -1.534717
      10A     -1.461814    11A     -1.453581    12A     -1.358657
      13A     -1.081654    14A     -0.923702    15A     -0.857196
      16A     -0.782445    17A     -0.751489    18A     -0.729714
      19A     -0.702964    20A     -0.689991    21A     -0.678973
      22A     -0.649034    23A     -0.610345    24A     -0.596307
      25A     -0.577947    26A     -0.544030    27A     -0.482992
      28A     -0.466991    29A     -0.439757    30A     -0.397204

  @DF-RHF Final Energy:  -453.39760504690685

   => Energetics <=

    Nuclear Repulsion Energy =            358.8678892381171295
    One-Electron Energy =               -1333.4817509957665607
    Two-Electron Energy =                 521.2162567107425275
    Total Energy =                       -453.3976050469068468
  Basis Set: (AUG-CC-PVTZ AUX)
    Blend: AUG-CC-PVTZ-RI
    Molecular point group: c1

    Geometry (in Angstrom), charge = 0, multiplicity = 1:

       Center              X                  Y                   Z               Mass
    ------------   -----------------  -----------------  -----------------  -----------------
         O            1.627961767691    -0.585217575585     1.127044623200    15.994914619570
         O           -2.762848232309     0.000139424415     0.092632623200    15.994914619570
         O            2.187855767691    -0.086879575585    -1.019637376800    15.994914619570
         O           -0.874079232309    -1.180994575585    -0.349681376800    15.994914619570
         C            0.591083767691     1.282510424415     0.126006623200    12.000000000000
         C           -0.746056232309     1.182578424415     0.089078623200    12.000000000000
         C            1.529938767691     0.127824424415    -0.018704376800    12.000000000000
         C           -1.512590632309    -0.299847275585    -0.103690376800    12.000000000000
         H            1.060550767691     2.259372424415     0.212611623200     1.007825032230
         H           -1.374911232309     2.063139424415     0.170991623200     1.007825032230
         H            2.245917767691    -1.320392575585     0.928740623200     1.007825032230
         H           -3.132003232309    -0.897565575585    -0.041074376800     1.007825032230

  Basis Set: AUG-CC-PVTZ
    Blend: AUG-CC-PVTZ
  Basis Set: (AUG-CC-PVTZ AUX)
    Blend: AUG-CC-PVTZ-JKFIT
	 Reference Energy          =    -453.3976050469068468 [Eh]
	 Singles Energy            =      -0.0000000000000000 [Eh]
	 Same-Spin Energy          =      -0.4318155412109272 [Eh]
	 Opposite-Spin Energy      =      -1.2840714006521474 [Eh]
	 Correlation Energy        =      -1.7158869418630747 [Eh]
	 Total Energy              =    -455.1134919887699084 [Eh]

	 ================> DF-SCS-MP2 Energies <==================
	-----------------------------------------------------------
	 SCS Same-Spin Scale       =       0.3333333333333333 [-]
	 SCS Opposite-Spin Scale   =       1.2000000000000000 [-]
	 SCS Same-Spin Energy      =      -0.1439385137369757 [Eh]
	 SCS Opposite-Spin Energy  =      -1.5408856807825768 [Eh]
	 SCS Correlation Energy    =      -1.6848241945195526 [Eh]
	 SCS Total Energy          =    -455.0824292414263823 [Eh]
	-----------------------------------------------------------

  Dipole Moment: [D]
     X:    -2.3650      Y:    -0.0138      Z:     1.4492     Total:     2.7737

*** Psi4 exiting successfully. Buy a developer a beer!
