                               Psi4 1.3.2 release

  ==> Input File <==

--------------------------------------------------------------------------
#psi4
#
memory 32 gb

molecule  {
0 1
  O        1.6287540    -0.6201880     1.1142450
  O       -2.7620560    -0.0348310     0.0798330
  O        2.1886480    -0.1218500    -1.0324370
  O       -0.9893719    -1.2692536    -0.3587776
  C        0.5918760     1.2475400     0.1132070
  C       -0.7452640     1.1476080     0.0762790
  C        1.5307310     0.0928540    -0.0315040
  C       -1.4205430    -0.1583360    -0.0935410
  H        1.0613430     2.2244020     0.1998120
  H       -1.3741190     2.0281690     0.1581920
  H        2.2467100    -1.3553630     0.9159410
  H       -3.1312110    -0.9325360    -0.0538740
units angstrom
no_reorient  #important for SAPT in psi4, default
symmetry c1  #important for SAPT in psi4, default
}

set PROPERTIES_ORIGIN ["COM"]
properties('MP2/aug-cc-pvtz', properties = ['dipole'])
--------------------------------------------------------------------------

    Molecular point group: c1
  Charge       = 0
  Multiplicity = 1
  Basis Set: AUG-CC-PVTZ
    Blend: AUG-CC-PVTZ
  Basis Set: (AUG-CC-PVTZ AUX)
    Blend: AUG-CC-PVTZ-JKFIT

    Orbital Energies [Eh]
    ---------------------

    Doubly Occupied:

       1A    -20.627627     2A    -20.619342     3A    -20.565838
       4A    -20.561289     5A    -11.413097     6A    -11.407981
       7A    -11.304125     8A    -11.286995     9A     -1.475233
      10A     -1.471439    11A     -1.371330    12A     -1.359981
      13A     -1.122789    14A     -0.962197    15A     -0.864274
      16A     -0.782197    17A     -0.735442    18A     -0.716147
      19A     -0.713507    20A     -0.667282    21A     -0.658159
      22A     -0.638876    23A     -0.615755    24A     -0.605590
      25A     -0.580793    26A     -0.501433    27A     -0.488232
      28A     -0.477887    29A     -0.467214    30A     -0.421410

  @DF-RHF Final Energy:  -453.43377780416893

   => Energetics <=

    Nuclear Repulsion Energy =            357.4368625115249074
    One-Electron Energy =               -1330.7743545207110856
    Two-Electron Energy =                 519.9037142050173088
    Total Energy =                       -453.4337778041689262
  Basis Set: (AUG-CC-PVTZ AUX)
    Blend: AUG-CC-PVTZ-RI
    Molecular point group: c1

    Geometry (in Angstrom), charge = 0, multiplicity = 1:

       Center              X                  Y                   Z               Mass
    ------------   -----------------  -----------------  -----------------  -----------------
         O            1.634527554865    -0.596125457116     1.124160209772    15.994914619570
         O           -2.756282445135    -0.010768457116     0.089748209772    15.994914619570
         O            2.194421554865    -0.097787457116    -1.022521790228    15.994914619570
         O           -0.983598345135    -1.245191057116    -0.348862390228    15.994914619570
         C            0.597649554865     1.271602542884     0.123122209772    12.000000000000
         C           -0.739490445135     1.171670542884     0.086194209772    12.000000000000
         C            1.536504554865     0.116916542884    -0.021588790228    12.000000000000
         C           -1.414769445135    -0.134273457116    -0.083625790228    12.000000000000
         H            1.067116554865     2.248464542884     0.209727209772     1.007825032230
         H           -1.368345445135     2.052231542884     0.168107209772     1.007825032230
         H            2.252483554865    -1.331300457116     0.925856209772     1.007825032230
         H           -3.125437445135    -0.908473457116    -0.043958790228     1.007825032230

  Basis Set: AUG-CC-PVTZ
    Blend: AUG-CC-PVTZ
  Basis Set: (AUG-CC-PVTZ AUX)
    Blend: AUG-CC-PVTZ-JKFIT
	 Reference Energy          =    -453.4337778041689262 [Eh]
	 Singles Energy            =      -0.0000000000000000 [Eh]
	 Same-Spin Energy          =      -0.4335137944054148 [Eh]
	 Opposite-Spin Energy      =      -1.2876217362538951 [Eh]
	 Correlation Energy        =      -1.7211355306593099 [Eh]
	 Total Energy              =    -455.1549133348282226 [Eh]

	 ================> DF-SCS-MP2 Energies <==================
	-----------------------------------------------------------
	 SCS Same-Spin Scale       =       0.3333333333333333 [-]
	 SCS Opposite-Spin Scale   =       1.2000000000000000 [-]
	 SCS Same-Spin Energy      =      -0.1445045981351383 [Eh]
	 SCS Opposite-Spin Energy  =      -1.5451460835046740 [Eh]
	 SCS Correlation Energy    =      -1.6896506816398122 [Eh]
	 SCS Total Energy          =    -455.1234284858087449 [Eh]
	-----------------------------------------------------------

  Dipole Moment: [D]
     X:    -0.9653      Y:     1.2854      Z:     1.6082     Total:     2.2738

*** Psi4 exiting successfully. Buy a developer a beer!
