                               Psi4 1.3.2 release

  ==> Input File <==

--------------------------------------------------------------------------
#psi4
#
memory 32 gb

molecule  {
0 1
  O        1.6287540    -0.6201880     1.1142450
  O       -2.7620560    -0.0348310     0.0798330
  O        2.1886480    -0.1218500    -1.0324370
  O       -0.7991521    -1.1739603    -0.3633141
  C        0.5918760     1.2475400     0.1132070
  C       -0.7452640     1.1476080     0.0762790
  C        1.5307310     0.0928540    -0.0315040
  C       -1.4205430    -0.1583360    -0.0935410
  H        1.0613430     2.2244020     0.1998120
  H       -1.3741190     2.0281690     0.1581920
  H        2.2467100    -1.3553630     0.9159410
  H       -3.1312110    -0.9325360    -0.0538740
units angstrom
no_reorient  #important for SAPT in psi4, default
symmetry c1  #important for SAPT in psi4, default
}

set PROPERTIES_ORIGIN ["COM"]
properties('MP2/aug-cc-pvtz', properties = ['dipole'])
--------------------------------------------------------------------------

    Molecular point group: c1
  Charge       = 0
  Multiplicity = 1
  Basis Set: AUG-CC-PVTZ
    Blend: AUG-CC-PVTZ
  Basis Set: (AUG-CC-PVTZ AUX)
    Blend: AUG-CC-PVTZ-JKFIT

    Orbital Energies [Eh]
    ---------------------

    Doubly Occupied:

       1A    -20.637612     2A    -20.620788     3A    -20.566147
       4A    -20.558145     5A    -11.410549     6A    -11.406668
       7A    -11.295563     8A    -11.276807     9A     -1.475950
      10A     -1.466115    11A     -1.378065    12A     -1.364501
      13A     -1.113289    14A     -0.957733    15A     -0.861633
      16A     -0.782740    17A     -0.733902    18A     -0.720862
      19A     -0.707748    20A     -0.666740    21A     -0.656059
      22A     -0.644702    23A     -0.607849    24A     -0.604161
      25A     -0.576916    26A     -0.510441    27A     -0.485701
      28A     -0.474928    29A     -0.464526    30A     -0.413117

  @DF-RHF Final Energy:  -453.43415856839732

   => Energetics <=

    Nuclear Repulsion Energy =            359.6907947394788607
    One-Electron Energy =               -1335.3699881682564410
    Two-Electron Energy =                 522.2450348603802013
    Total Energy =                       -453.4341585683973790
  Basis Set: (AUG-CC-PVTZ AUX)
    Blend: AUG-CC-PVTZ-RI
    Molecular point group: c1

    Geometry (in Angstrom), charge = 0, multiplicity = 1:

       Center              X                  Y                   Z               Mass
    ------------   -----------------  -----------------  -----------------  -----------------
         O            1.608301157838    -0.609263941753     1.124785675944    15.994914619570
         O           -2.782508842162    -0.023906941753     0.090373675944    15.994914619570
         O            2.168195157838    -0.110925941753    -1.021896324056    15.994914619570
         O           -0.819604942162    -1.163036241753    -0.352773424056    15.994914619570
         C            0.571423157838     1.258464058247     0.123747675944    12.000000000000
         C           -0.765716842162     1.158532058247     0.086819675944    12.000000000000
         C            1.510278157838     0.103778058247    -0.020963324056    12.000000000000
         C           -1.440995842162    -0.147411941753    -0.083000324056    12.000000000000
         H            1.040890157838     2.235326058247     0.210352675944     1.007825032230
         H           -1.394571842162     2.039093058247     0.168732675944     1.007825032230
         H            2.226257157838    -1.344438941753     0.926481675944     1.007825032230
         H           -3.151663842162    -0.921611941753    -0.043333324056     1.007825032230

  Basis Set: AUG-CC-PVTZ
    Blend: AUG-CC-PVTZ
  Basis Set: (AUG-CC-PVTZ AUX)
    Blend: AUG-CC-PVTZ-JKFIT
	 Reference Energy          =    -453.4341585683973221 [Eh]
	 Singles Energy            =      -0.0000000000000000 [Eh]
	 Same-Spin Energy          =      -0.4341136766056637 [Eh]
	 Opposite-Spin Energy      =      -1.2887773327412071 [Eh]
	 Correlation Energy        =      -1.7228910093468708 [Eh]
	 Total Energy              =    -455.1570495777442034 [Eh]

	 ================> DF-SCS-MP2 Energies <==================
	-----------------------------------------------------------
	 SCS Same-Spin Scale       =       0.3333333333333333 [-]
	 SCS Opposite-Spin Scale   =       1.2000000000000000 [-]
	 SCS Same-Spin Energy      =      -0.1447045588685545 [Eh]
	 SCS Opposite-Spin Energy  =      -1.5465327992894484 [Eh]
	 SCS Correlation Energy    =      -1.6912373581580029 [Eh]
	 SCS Total Energy          =    -455.1253959265553135 [Eh]
	-----------------------------------------------------------

  Dipole Moment: [D]
     X:    -1.6402      Y:     0.9107      Z:     1.5799     Total:     2.4527

*** Psi4 exiting successfully. Buy a developer a beer!
