                               Psi4 1.4a3.dev225

  ==> Input File <==

--------------------------------------------------------------------------
#psi4
#
memory 32 gb

molecule  {
0 1
  O        1.6292290    -0.6199230     1.1141820
  O       -2.7620640    -0.0349680     0.0794940
  O        2.1880480    -0.1219360    -1.0328490
  O       -0.8730120    -1.2160300    -0.3618370
  C        0.5917800     1.2475860     0.1132420
  C       -0.7453650     1.1476220     0.0764550
  C        1.5305940     0.0928630    -0.0316350
  C       -1.4204700    -0.1583660    -0.0933140
  H        1.0699469     2.2423937     0.2013321
  H       -1.3742940     2.0281270     0.1583660
  H        2.2470800    -1.3551440     0.9157090
  H       -3.1309400    -0.9327820    -0.0542280
units angstrom
no_reorient  #important for SAPT in psi4, default
symmetry c1  #important for SAPT in psi4, default
}

set PROPERTIES_ORIGIN ["COM"]
properties('MP2/aug-cc-pvtz', properties = ['dipole'])
--------------------------------------------------------------------------

    Molecular point group: c1
  Charge       = 0
  Multiplicity = 1
  Basis Set: AUG-CC-PVTZ
    Blend: AUG-CC-PVTZ
  Basis Set: (AUG-CC-PVTZ AUX)
    Blend: AUG-CC-PVTZ-JKFIT

    Orbital Energies [Eh]
    ---------------------

    Doubly Occupied:

       1A    -20.630547     2A    -20.623582     3A    -20.564340
       4A    -20.561293     5A    -11.409447     6A    -11.409373
       7A    -11.301211     8A    -11.280939     9A     -1.474966
      10A     -1.468537    11A     -1.371182    12A     -1.367268
      13A     -1.116600    14A     -0.958826    15A     -0.862379
      16A     -0.780945    17A     -0.733789    18A     -0.718807
      19A     -0.710308    20A     -0.666702    21A     -0.655458
      22A     -0.642338    23A     -0.610716    24A     -0.604275
      25A     -0.577607    26A     -0.506417    27A     -0.487062
      28A     -0.476387    29A     -0.466415    30A     -0.416572

  @DF-RHF Final Energy:  -453.43552606098393

   => Energetics <=

    Nuclear Repulsion Energy =            358.6101582105774810
    One-Electron Energy =               -1333.1827920100313349
    Two-Electron Energy =                 521.1371077384698083
    Total Energy =                       -453.4355260609839888
  Basis Set: (AUG-CC-PVTZ AUX)
    Blend: AUG-CC-PVTZ-RI
    Molecular point group: c1

    Geometry (in Angstrom), charge = 0, multiplicity = 1:

       Center              X                  Y                   Z               Mass
    ------------   -----------------  -----------------  -----------------  -----------------
         O            1.618926071776    -0.603364141943     1.124589869535    15.994914619570
         O           -2.772366928224    -0.018409141943     0.089901869535    15.994914619570
         O            2.177745071776    -0.105377141943    -1.022441130465    15.994914619570
         O           -0.883314928224    -1.199471141943    -0.351429130465    15.994914619570
         C            0.581477071776     1.264144858057     0.123649869535    12.000000000000
         C           -0.755667928224     1.164180858057     0.086862869535    12.000000000000
         C            1.520291071776     0.109421858057    -0.021227130465    12.000000000000
         C           -1.430772928224    -0.141807141943    -0.082906130465    12.000000000000
         H            1.059643971776     2.258952558057     0.211739969535     1.007825032230
         H           -1.384596928224     2.044685858057     0.168773869535     1.007825032230
         H            2.236777071776    -1.338585141943     0.926116869535     1.007825032230
         H           -3.141242928224    -0.916223141943    -0.043820130465     1.007825032230

  Basis Set: AUG-CC-PVTZ
    Blend: AUG-CC-PVTZ
  Basis Set: (AUG-CC-PVTZ AUX)
    Blend: AUG-CC-PVTZ-JKFIT
	 Reference Energy          =    -453.4355260609839320 [Eh]
	 Singles Energy            =      -0.0000000000000000 [Eh]
	 Same-Spin Energy          =      -0.4338295505338005 [Eh]
	 Opposite-Spin Energy      =      -1.2882879143977735 [Eh]
	 Correlation Energy        =      -1.7221174649315740 [Eh]
	 Total Energy              =    -455.1576435259154891 [Eh]

	 ================> DF-SCS-MP2 Energies <==================
	-----------------------------------------------------------
	 SCS Same-Spin Scale       =       0.3333333333333333 [-]
	 SCS Opposite-Spin Scale   =       1.2000000000000000 [-]
	 SCS Same-Spin Energy      =      -0.1446098501779335 [Eh]
	 SCS Opposite-Spin Energy  =      -1.5459454972773281 [Eh]
	 SCS Correlation Energy    =      -1.6905553474552617 [Eh]
	 SCS Total Energy          =    -455.1260814084391768 [Eh]
	-----------------------------------------------------------

  Dipole Moment: [D]
     X:    -1.3695      Y:     1.0724      Z:     1.5937     Total:     2.3591

*** Psi4 exiting successfully. Buy a developer a beer!
