                               Psi4 1.3.2 release

  ==> Input File <==

--------------------------------------------------------------------------
#psi4
#
memory 32 gb

molecule  {
0 1
  O        1.6287540    -0.6201880     1.1142450
  O       -2.7620560    -0.0348310     0.0798330
  O        2.1886480    -0.1218500    -1.0324370
  O       -0.8732870    -1.2159650    -0.3624810
  C        0.5918760     1.2475400     0.1132070
  C       -0.7452640     1.1476080     0.0762790
  C        1.5307310     0.0928540    -0.0315040
  C       -1.5101970     0.0149296    -0.0494820
  H        1.0613430     2.2244020     0.1998120
  H       -1.3741190     2.0281690     0.1581920
  H        2.2467100    -1.3553630     0.9159410
  H       -3.1312110    -0.9325360    -0.0538740
units angstrom
no_reorient  #important for SAPT in psi4, default
symmetry c1  #important for SAPT in psi4, default
}

set PROPERTIES_ORIGIN ["COM"]
properties('MP2/aug-cc-pvtz', properties = ['dipole'])
--------------------------------------------------------------------------

    Molecular point group: c1
  Charge       = 0
  Multiplicity = 1
  Basis Set: AUG-CC-PVTZ
    Blend: AUG-CC-PVTZ
  Basis Set: (AUG-CC-PVTZ AUX)
    Blend: AUG-CC-PVTZ-JKFIT

    Orbital Energies [Eh]
    ---------------------

    Doubly Occupied:

       1A    -20.657141     2A    -20.620738     3A    -20.561269
       4A    -20.522387     5A    -11.413654     6A    -11.411401
       7A    -11.320327     8A    -11.280550     9A     -1.513096
      10A     -1.467373    11A     -1.366056    12A     -1.258086
      13A     -1.133143    14A     -0.996170    15A     -0.885286
      16A     -0.816254    17A     -0.739259    18A     -0.722998
      19A     -0.709043    20A     -0.687457    21A     -0.664196
      22A     -0.652276    23A     -0.612110    24A     -0.590153
      25A     -0.525025    26A     -0.491764    27A     -0.476215
      28A     -0.456854    29A     -0.434756    30A     -0.400270

  @DF-RHF Final Energy:  -453.36888706627889

   => Energetics <=

    Nuclear Repulsion Energy =            357.8730060065742009
    One-Electron Energy =               -1331.7131736028240994
    Two-Electron Energy =                 520.4712805299709544
    Total Energy =                       -453.3688870662789441
  Basis Set: (AUG-CC-PVTZ AUX)
    Blend: AUG-CC-PVTZ-RI
    Molecular point group: c1

    Geometry (in Angstrom), charge = 0, multiplicity = 1:

       Center              X                  Y                   Z               Mass
    ------------   -----------------  -----------------  -----------------  -----------------
         O            1.627796121271    -0.621394913057     1.120113415928    15.994914619570
         O           -2.763013878729    -0.036037913057     0.085701415928    15.994914619570
         O            2.187690121271    -0.123056913057    -1.026568584072    15.994914619570
         O           -0.874244878729    -1.217171913057    -0.356612584072    15.994914619570
         C            0.590918121271     1.246333086943     0.119075415928    12.000000000000
         C           -0.746221878729     1.146401086943     0.082147415928    12.000000000000
         C            1.529773121271     0.091647086943    -0.025635584072    12.000000000000
         C           -1.511154878729     0.013722686943    -0.043613584072    12.000000000000
         H            1.060385121271     2.223195086943     0.205680415928     1.007825032230
         H           -1.375076878729     2.026962086943     0.164060415928     1.007825032230
         H            2.245752121271    -1.356569913057     0.921809415928     1.007825032230
         H           -3.132168878729    -0.933742913057    -0.048005584072     1.007825032230

  Basis Set: AUG-CC-PVTZ
    Blend: AUG-CC-PVTZ
  Basis Set: (AUG-CC-PVTZ AUX)
    Blend: AUG-CC-PVTZ-JKFIT
	 Reference Energy          =    -453.3688870662788872 [Eh]
	 Singles Energy            =      -0.0000000000000000 [Eh]
	 Same-Spin Energy          =      -0.4383346950679735 [Eh]
	 Opposite-Spin Energy      =      -1.2959014904950394 [Eh]
	 Correlation Energy        =      -1.7342361855630131 [Eh]
	 Total Energy              =    -455.1031232518419074 [Eh]

	 ================> DF-SCS-MP2 Energies <==================
	-----------------------------------------------------------
	 SCS Same-Spin Scale       =       0.3333333333333333 [-]
	 SCS Opposite-Spin Scale   =       1.2000000000000000 [-]
	 SCS Same-Spin Energy      =      -0.1461115650226578 [Eh]
	 SCS Opposite-Spin Energy  =      -1.5550817885940473 [Eh]
	 SCS Correlation Energy    =      -1.7011933536167052 [Eh]
	 SCS Total Energy          =    -455.0700804198955893 [Eh]
	-----------------------------------------------------------

  Dipole Moment: [D]
     X:    -2.0508      Y:     1.8594      Z:     1.8478     Total:     3.3283

*** Psi4 exiting successfully. Buy a developer a beer!
