                               Psi4 1.3.2 release

  ==> Input File <==

--------------------------------------------------------------------------
#psi4
#
memory 32 gb

molecule  {
0 1
  O        1.6287540    -0.6201880     1.1142450
  O       -2.7666044    -0.0812285     0.0712080
  O        2.1886480    -0.1218500    -1.0324370
  O       -0.8732870    -1.2159650    -0.3624810
  C        0.5918760     1.2475400     0.1132070
  C       -0.7452640     1.1476080     0.0762790
  C        1.5307310     0.0928540    -0.0315040
  C       -1.4205430    -0.1583360    -0.0935410
  H        1.0613430     2.2244020     0.1998120
  H       -1.3741190     2.0281690     0.1581920
  H        2.2467100    -1.3553630     0.9159410
  H       -3.1312110    -0.9325360    -0.0538740
units angstrom
no_reorient  #important for SAPT in psi4, default
symmetry c1  #important for SAPT in psi4, default
}

set PROPERTIES_ORIGIN ["COM"]
properties('MP2/aug-cc-pvtz', properties = ['dipole'])
--------------------------------------------------------------------------

    Molecular point group: c1
  Charge       = 0
  Multiplicity = 1
  Basis Set: AUG-CC-PVTZ
    Blend: AUG-CC-PVTZ
  Basis Set: (AUG-CC-PVTZ AUX)
    Blend: AUG-CC-PVTZ-JKFIT

    Orbital Energies [Eh]
    ---------------------

    Doubly Occupied:

       1A    -20.623952     2A    -20.623924     3A    -20.562323
       4A    -20.561839     5A    -11.409918     6A    -11.409573
       7A    -11.300851     8A    -11.283149     9A     -1.479171
      10A     -1.469342    11A     -1.371479    12A     -1.367727
      13A     -1.118875    14A     -0.962980    15A     -0.867814
      16A     -0.789024    17A     -0.736779    18A     -0.717471
      19A     -0.710771    20A     -0.670186    21A     -0.656812
      22A     -0.642179    23A     -0.611157    24A     -0.605935
      25A     -0.578607    26A     -0.505806    27A     -0.487053
      28A     -0.476099    29A     -0.466660    30A     -0.417564

  @DF-RHF Final Energy:  -453.43730326935963

   => Energetics <=

    Nuclear Repulsion Energy =            358.8465398734579139
    One-Electron Energy =               -1333.5976439168389334
    Two-Electron Energy =                 521.3138007740213880
    Total Energy =                       -453.4373032693596315
  Basis Set: (AUG-CC-PVTZ AUX)
    Blend: AUG-CC-PVTZ-RI
    Molecular point group: c1

    Geometry (in Angstrom), charge = 0, multiplicity = 1:

       Center              X                  Y                   Z               Mass
    ------------   -----------------  -----------------  -----------------  -----------------
         O            1.619149552512    -0.597075561809     1.125859977689    15.994914619570
         O           -2.776208847488    -0.058116061809     0.082822977689    15.994914619570
         O            2.179043552512    -0.098737561809    -1.020822022311    15.994914619570
         O           -0.882891447488    -1.192852561809    -0.350866022311    15.994914619570
         C            0.582271552512     1.270652438191     0.124821977689    12.000000000000
         C           -0.754868447488     1.170720438191     0.087893977689    12.000000000000
         C            1.521126552512     0.115966438191    -0.019889022311    12.000000000000
         C           -1.430147447488    -0.135223561809    -0.081926022311    12.000000000000
         H            1.051738552512     2.247514438191     0.211426977689     1.007825032230
         H           -1.383723447488     2.051281438191     0.169806977689     1.007825032230
         H            2.237105552512    -1.332250561809     0.927555977689     1.007825032230
         H           -3.140815447488    -0.909423561809    -0.042259022311     1.007825032230

  Basis Set: AUG-CC-PVTZ
    Blend: AUG-CC-PVTZ
  Basis Set: (AUG-CC-PVTZ AUX)
    Blend: AUG-CC-PVTZ-JKFIT
	 Reference Energy          =    -453.4373032693596315 [Eh]
	 Singles Energy            =      -0.0000000000000000 [Eh]
	 Same-Spin Energy          =      -0.4329484537971273 [Eh]
	 Opposite-Spin Energy      =      -1.2863862063484932 [Eh]
	 Correlation Energy        =      -1.7193346601456205 [Eh]
	 Total Energy              =    -455.1566379295052798 [Eh]

	 ================> DF-SCS-MP2 Energies <==================
	-----------------------------------------------------------
	 SCS Same-Spin Scale       =       0.3333333333333333 [-]
	 SCS Opposite-Spin Scale   =       1.2000000000000000 [-]
	 SCS Same-Spin Energy      =      -0.1443161512657091 [Eh]
	 SCS Opposite-Spin Energy  =      -1.5436634476181919 [Eh]
	 SCS Correlation Energy    =      -1.6879795988839010 [Eh]
	 SCS Total Energy          =    -455.1252828682435165 [Eh]
	-----------------------------------------------------------

  Dipole Moment: [D]
     X:    -1.3023      Y:     1.1454      Z:     1.6034     Total:     2.3619

*** Psi4 exiting successfully. Buy a developer a beer!
