                               Psi4 1.3.2 release

  ==> Input File <==

--------------------------------------------------------------------------
#psi4
#
memory 32 gb

molecule  {
0 1
  O        1.6287540    -0.6201880     1.1142450
  O       -2.7620560    -0.0348310     0.0798330
  O        2.1886480    -0.1218500    -1.0324370
  O       -0.8732870    -1.2159650    -0.3624810
  C        0.5918760     1.2475400     0.1132070
  C       -0.7452640     1.1476080     0.0762790
  C        1.5307310     0.0928540    -0.0315040
  C       -1.4205430    -0.1583360    -0.0935410
  H        1.1045215     2.3142473     0.2077774
  H       -1.3741190     2.0281690     0.1581920
  H        2.2467100    -1.3553630     0.9159410
  H       -3.1312110    -0.9325360    -0.0538740
units angstrom
no_reorient  #important for SAPT in psi4, default
symmetry c1  #important for SAPT in psi4, default
}

set PROPERTIES_ORIGIN ["COM"]
properties('MP2/aug-cc-pvtz', properties = ['dipole'])
--------------------------------------------------------------------------

    Molecular point group: c1
  Charge       = 0
  Multiplicity = 1
  Basis Set: AUG-CC-PVTZ
    Blend: AUG-CC-PVTZ
  Basis Set: (AUG-CC-PVTZ AUX)
    Blend: AUG-CC-PVTZ-JKFIT

    Orbital Energies [Eh]
    ---------------------

    Doubly Occupied:

       1A    -20.630705     2A    -20.623727     3A    -20.564441
       4A    -20.561355     5A    -11.409926     6A    -11.409780
       7A    -11.309181     8A    -11.281164     9A     -1.475110
      10A     -1.468638    11A     -1.371336    12A     -1.367330
      13A     -1.114636    14A     -0.956831    15A     -0.861606
      16A     -0.775792    17A     -0.731629    18A     -0.718924
      19A     -0.710376    20A     -0.666131    21A     -0.650442
      22A     -0.642482    23A     -0.609251    24A     -0.602605
      25A     -0.571978    26A     -0.506479    27A     -0.487072
      28A     -0.476521    29A     -0.465841    30A     -0.416730

  @DF-RHF Final Energy:  -453.42881024585938

   => Energetics <=

    Nuclear Repulsion Energy =            358.2125090204615958
    One-Electron Energy =               -1332.4066019926249282
    Two-Electron Energy =                 520.7652827263040081
    Total Energy =                       -453.4288102458593812
  Basis Set: (AUG-CC-PVTZ AUX)
    Blend: AUG-CC-PVTZ-RI
    Molecular point group: c1

    Geometry (in Angstrom), charge = 0, multiplicity = 1:

       Center              X                  Y                   Z               Mass
    ------------   -----------------  -----------------  -----------------  -----------------
         O            1.618147339926    -0.604253094030     1.124601614946    15.994914619570
         O           -2.772662660074    -0.018896094030     0.090189614946    15.994914619570
         O            2.178041339926    -0.105915094030    -1.022080385054    15.994914619570
         O           -0.883893660074    -1.200030094030    -0.352124385054    15.994914619570
         C            0.581269339926     1.263474905970     0.123563614946    12.000000000000
         C           -0.755870660074     1.163542905970     0.086635614946    12.000000000000
         C            1.520124339926     0.108788905970    -0.021147385054    12.000000000000
         C           -1.431149660074    -0.142401094030    -0.083184385054    12.000000000000
         H            1.093914839926     2.330182205970     0.218134014946     1.007825032230
         H           -1.384725660074     2.044103905970     0.168548614946     1.007825032230
         H            2.236103339926    -1.339428094030     0.926297614946     1.007825032230
         H           -3.141817660074    -0.916601094030    -0.043517385054     1.007825032230

  Basis Set: AUG-CC-PVTZ
    Blend: AUG-CC-PVTZ
  Basis Set: (AUG-CC-PVTZ AUX)
    Blend: AUG-CC-PVTZ-JKFIT
	 Reference Energy          =    -453.4288102458593812 [Eh]
	 Singles Energy            =      -0.0000000000000000 [Eh]
	 Same-Spin Energy          =      -0.4340189148918636 [Eh]
	 Opposite-Spin Energy      =      -1.2889667385106116 [Eh]
	 Correlation Energy        =      -1.7229856534024752 [Eh]
	 Total Energy              =    -455.1517958992618560 [Eh]

	 ================> DF-SCS-MP2 Energies <==================
	-----------------------------------------------------------
	 SCS Same-Spin Scale       =       0.3333333333333333 [-]
	 SCS Opposite-Spin Scale   =       1.2000000000000000 [-]
	 SCS Same-Spin Energy      =      -0.1446729716306212 [Eh]
	 SCS Opposite-Spin Energy  =      -1.5467600862127340 [Eh]
	 SCS Correlation Energy    =      -1.6914330578433552 [Eh]
	 SCS Total Energy          =    -455.1202433037027504 [Eh]
	-----------------------------------------------------------

  Dipole Moment: [D]
     X:    -1.3646      Y:     1.0768      Z:     1.5930     Total:     2.3578

*** Psi4 exiting successfully. Buy a developer a beer!
