                               Psi4 1.3.2 release

  ==> Input File <==

--------------------------------------------------------------------------
#psi4
#
memory 32 gb

molecule  {
0 1
  O        1.6287540    -0.6201880     1.1142450
  O       -2.7620560    -0.0348310     0.0798330
  O        2.1886480    -0.1218500    -1.0324370
  O       -0.8732870    -1.2159650    -0.3624810
  C        0.5946657     1.2010623     0.1082870
  C       -0.7452640     1.1476080     0.0762790
  C        1.5307310     0.0928540    -0.0315040
  C       -1.4205430    -0.1583360    -0.0935410
  H        1.0613430     2.2244020     0.1998120
  H       -1.3741190     2.0281690     0.1581920
  H        2.2467100    -1.3553630     0.9159410
  H       -3.1312110    -0.9325360    -0.0538740
units angstrom
no_reorient  #important for SAPT in psi4, default
symmetry c1  #important for SAPT in psi4, default
}

set PROPERTIES_ORIGIN ["COM"]
properties('MP2/aug-cc-pvtz', properties = ['dipole'])
--------------------------------------------------------------------------

    Molecular point group: c1
  Charge       = 0
  Multiplicity = 1
  Basis Set: AUG-CC-PVTZ
    Blend: AUG-CC-PVTZ
  Basis Set: (AUG-CC-PVTZ AUX)
    Blend: AUG-CC-PVTZ-JKFIT

    Orbital Energies [Eh]
    ---------------------

    Doubly Occupied:

       1A    -20.629912     2A    -20.623555     3A    -20.563618
       4A    -20.561659     5A    -11.408098     6A    -11.408093
       7A    -11.300239     8A    -11.281899     9A     -1.474790
      10A     -1.469428    11A     -1.370703    12A     -1.368003
      13A     -1.119926    14A     -0.965061    15A     -0.863974
      16A     -0.779692    17A     -0.734612    18A     -0.719771
      19A     -0.711031    20A     -0.669271    21A     -0.653819
      22A     -0.642029    23A     -0.609475    24A     -0.604569
      25A     -0.575704    26A     -0.506425    27A     -0.487338
      28A     -0.477309    29A     -0.467241    30A     -0.416648

  @DF-RHF Final Energy:  -453.43308646185631

   => Energetics <=

    Nuclear Repulsion Energy =            359.4577316483710661
    One-Electron Energy =               -1334.8538516876401445
    Two-Electron Energy =                 521.9630335774128298
    Total Energy =                       -453.4330864618563055
  Basis Set: (AUG-CC-PVTZ AUX)
    Blend: AUG-CC-PVTZ-RI
    Molecular point group: c1

    Geometry (in Angstrom), charge = 0, multiplicity = 1:

       Center              X                  Y                   Z               Mass
    ------------   -----------------  -----------------  -----------------  -----------------
         O            1.618233883243    -0.598664994853     1.125179730413    15.994914619570
         O           -2.772576116757    -0.013307994853     0.090767730413    15.994914619570
         O            2.178127883243    -0.100326994853    -1.021502269587    15.994914619570
         O           -0.883807116757    -1.194441994853    -0.351546269587    15.994914619570
         C            0.584145583243     1.222585305147     0.119221730413    12.000000000000
         C           -0.755784116757     1.169131005147     0.087213730413    12.000000000000
         C            1.520210883243     0.114377005147    -0.020569269587    12.000000000000
         C           -1.431063116757    -0.136812994853    -0.082606269587    12.000000000000
         H            1.050822883243     2.245925005147     0.210746730413     1.007825032230
         H           -1.384639116757     2.049692005147     0.169126730413     1.007825032230
         H            2.236189883243    -1.333839994853     0.926875730413     1.007825032230
         H           -3.141731116757    -0.911012994853    -0.042939269587     1.007825032230

  Basis Set: AUG-CC-PVTZ
    Blend: AUG-CC-PVTZ
  Basis Set: (AUG-CC-PVTZ AUX)
    Blend: AUG-CC-PVTZ-JKFIT
	 Reference Energy          =    -453.4330864618563055 [Eh]
	 Singles Energy            =      -0.0000000000000000 [Eh]
	 Same-Spin Energy          =      -0.4342533010060263 [Eh]
	 Opposite-Spin Energy      =      -1.2886269401569881 [Eh]
	 Correlation Energy        =      -1.7228802411630144 [Eh]
	 Total Energy              =    -455.1559667030193168 [Eh]

	 ================> DF-SCS-MP2 Energies <==================
	-----------------------------------------------------------
	 SCS Same-Spin Scale       =       0.3333333333333333 [-]
	 SCS Opposite-Spin Scale   =       1.2000000000000000 [-]
	 SCS Same-Spin Energy      =      -0.1447511003353421 [Eh]
	 SCS Opposite-Spin Energy  =      -1.5463523281883857 [Eh]
	 SCS Correlation Energy    =      -1.6911034285237279 [Eh]
	 SCS Total Energy          =    -455.1241898903800234 [Eh]
	-----------------------------------------------------------

  Dipole Moment: [D]
     X:    -1.3908      Y:     1.0820      Z:     1.5928     Total:     2.3753

*** Psi4 exiting successfully. Buy a developer a beer!
