                               Psi4 1.3.2 release

  ==> Input File <==

--------------------------------------------------------------------------
#psi4
#
memory 32 gb

molecule  {
0 1
  O        1.6287540    -0.6201880     1.1142450
  O       -2.7620560    -0.0348310     0.0798330
  O        2.1886480    -0.1218500    -1.0324370
  O       -0.8732870    -1.2159650    -0.3624810
  C        0.5814147     1.3400736     0.1229060
  C       -0.7452640     1.1476080     0.0762790
  C        1.5307310     0.0928540    -0.0315040
  C       -1.4205430    -0.1583360    -0.0935410
  H        1.0613430     2.2244020     0.1998120
  H       -1.3741190     2.0281690     0.1581920
  H        2.2467100    -1.3553630     0.9159410
  H       -3.1312110    -0.9325360    -0.0538740
units angstrom
no_reorient  #important for SAPT in psi4, default
symmetry c1  #important for SAPT in psi4, default
}

set PROPERTIES_ORIGIN ["COM"]
properties('MP2/aug-cc-pvtz', properties = ['dipole'])
--------------------------------------------------------------------------

    Molecular point group: c1
  Charge       = 0
  Multiplicity = 1
  Basis Set: AUG-CC-PVTZ
    Blend: AUG-CC-PVTZ
  Basis Set: (AUG-CC-PVTZ AUX)
    Blend: AUG-CC-PVTZ-JKFIT

    Orbital Energies [Eh]
    ---------------------

    Doubly Occupied:

       1A    -20.631938     2A    -20.623214     3A    -20.566014
       4A    -20.560251     5A    -11.412310     6A    -11.410708
       7A    -11.297842     8A    -11.280289     9A     -1.475832
      10A     -1.466288    11A     -1.372372    12A     -1.365479
      13A     -1.113174    14A     -0.952503    15A     -0.858686
      16A     -0.791823    17A     -0.732862    18A     -0.716849
      19A     -0.708577    20A     -0.673251    21A     -0.656596
      22A     -0.642890    23A     -0.616420    24A     -0.607226
      25A     -0.572782    26A     -0.506548    27A     -0.486388
      28A     -0.476375    29A     -0.460898    30A     -0.416848

  @DF-RHF Final Energy:  -453.42731556280864

   => Energetics <=

    Nuclear Repulsion Energy =            357.2648733393515954
    One-Electron Energy =               -1330.4779098008370966
    Two-Electron Energy =                 519.7857208986768001
    Total Energy =                       -453.4273155628086442
  Basis Set: (AUG-CC-PVTZ AUX)
    Blend: AUG-CC-PVTZ-RI
    Molecular point group: c1

    Geometry (in Angstrom), charge = 0, multiplicity = 1:

       Center              X                  Y                   Z               Mass
    ------------   -----------------  -----------------  -----------------  -----------------
         O            1.619604546859    -0.613044115757     1.123667562924    15.994914619570
         O           -2.771205453141    -0.027687115757     0.089255562924    15.994914619570
         O            2.179498546859    -0.114706115757    -1.023014437076    15.994914619570
         O           -0.882436453141    -1.208821115757    -0.353058437076    15.994914619570
         C            0.572265246859     1.347217484243     0.132328562924    12.000000000000
         C           -0.754413453141     1.154751884243     0.085701562924    12.000000000000
         C            1.521581546859     0.099997884243    -0.022081437076    12.000000000000
         C           -1.429692453141    -0.151192115757    -0.084118437076    12.000000000000
         H            1.052193546859     2.231545884243     0.209234562924     1.007825032230
         H           -1.383268453141     2.035312884243     0.167614562924     1.007825032230
         H            2.237560546859    -1.348219115757     0.925363562924     1.007825032230
         H           -3.140360453141    -0.925392115757    -0.044451437076     1.007825032230

  Basis Set: AUG-CC-PVTZ
    Blend: AUG-CC-PVTZ
  Basis Set: (AUG-CC-PVTZ AUX)
    Blend: AUG-CC-PVTZ-JKFIT
	 Reference Energy          =    -453.4273155628086442 [Eh]
	 Singles Energy            =      -0.0000000000000000 [Eh]
	 Same-Spin Energy          =      -0.4333137567018613 [Eh]
	 Opposite-Spin Energy      =      -1.2881967626931590 [Eh]
	 Correlation Energy        =      -1.7215105193950202 [Eh]
	 Total Energy              =    -455.1488260822036409 [Eh]

	 ================> DF-SCS-MP2 Energies <==================
	-----------------------------------------------------------
	 SCS Same-Spin Scale       =       0.3333333333333333 [-]
	 SCS Opposite-Spin Scale   =       1.2000000000000000 [-]
	 SCS Same-Spin Energy      =      -0.1444379189006204 [Eh]
	 SCS Opposite-Spin Energy  =      -1.5458361152317908 [Eh]
	 SCS Correlation Energy    =      -1.6902740341324112 [Eh]
	 SCS Total Energy          =    -455.1175895969410590 [Eh]
	-----------------------------------------------------------

  Dipole Moment: [D]
     X:    -1.3584      Y:     1.0481      Z:     1.5928     Total:     2.3412

*** Psi4 exiting successfully. Buy a developer a beer!
