                               Psi4 1.3.2 release

  ==> Input File <==

--------------------------------------------------------------------------
#psi4
#
memory 32 gb

molecule  {
0 1
  O        1.6287540    -0.6201880     1.1142450
  O       -2.7620560    -0.0348310     0.0798330
  O        2.1886480    -0.1218500    -1.0324370
  O       -0.8732870    -1.2159650    -0.3624810
  C        0.5737206     1.3858071     0.1295176
  C       -0.7452640     1.1476080     0.0762790
  C        1.5307310     0.0928540    -0.0315040
  C       -1.4205430    -0.1583360    -0.0935410
  H        1.0613430     2.2244020     0.1998120
  H       -1.3741190     2.0281690     0.1581920
  H        2.2467100    -1.3553630     0.9159410
  H       -3.1312110    -0.9325360    -0.0538740
units angstrom
no_reorient  #important for SAPT in psi4, default
symmetry c1  #important for SAPT in psi4, default
}

set PROPERTIES_ORIGIN ["COM"]
properties('MP2/aug-cc-pvtz', properties = ['dipole'])
--------------------------------------------------------------------------

    Molecular point group: c1
  Charge       = 0
  Multiplicity = 1
  Basis Set: AUG-CC-PVTZ
    Blend: AUG-CC-PVTZ
  Basis Set: (AUG-CC-PVTZ AUX)
    Blend: AUG-CC-PVTZ-JKFIT

    Orbital Energies [Eh]
    ---------------------

    Doubly Occupied:

       1A    -20.632762     2A    -20.622840     3A    -20.566993
       4A    -20.559629     5A    -11.413948     6A    -11.410924
       7A    -11.297793     8A    -11.280707     9A     -1.476494
      10A     -1.465048    11A     -1.373109    12A     -1.364453
      13A     -1.111848    14A     -0.951305    15A     -0.856169
      16A     -0.798265    17A     -0.731938    18A     -0.715975
      19A     -0.707620    20A     -0.679807    21A     -0.654471
      22A     -0.643067    23A     -0.618686    24A     -0.608194
      25A     -0.567309    26A     -0.506736    27A     -0.485990
      28A     -0.477033    29A     -0.456188    30A     -0.417239

  @DF-RHF Final Energy:  -453.41524833941844

   => Energetics <=

    Nuclear Repulsion Energy =            356.5770745926186578
    One-Electron Energy =               -1329.0795683090116199
    Two-Electron Energy =                 519.0872453769745789
    Total Energy =                       -453.4152483394184401
  Basis Set: (AUG-CC-PVTZ AUX)
    Blend: AUG-CC-PVTZ-RI
    Molecular point group: c1

    Geometry (in Angstrom), charge = 0, multiplicity = 1:

       Center              X                  Y                   Z               Mass
    ------------   -----------------  -----------------  -----------------  -----------------
         O            1.620400413052    -0.617774720577     1.122983668911    15.994914619570
         O           -2.770409586948    -0.032417720577     0.088571668911    15.994914619570
         O            2.180294413052    -0.119436720577    -1.023698331089    15.994914619570
         O           -0.881640586948    -1.213551720577    -0.353742331089    15.994914619570
         C            0.565367013052     1.388220379423     0.138256268911    12.000000000000
         C           -0.753617586948     1.150021279423     0.085017668911    12.000000000000
         C            1.522377413052     0.095267279423    -0.022765331089    12.000000000000
         C           -1.428896586948    -0.155922720577    -0.084802331089    12.000000000000
         H            1.052989413052     2.226815279423     0.208550668911     1.007825032230
         H           -1.382472586948     2.030582279423     0.166930668911     1.007825032230
         H            2.238356413052    -1.352949720577     0.924679668911     1.007825032230
         H           -3.139564586948    -0.930122720577    -0.045135331089     1.007825032230

  Basis Set: AUG-CC-PVTZ
    Blend: AUG-CC-PVTZ
  Basis Set: (AUG-CC-PVTZ AUX)
    Blend: AUG-CC-PVTZ-JKFIT
	 Reference Energy          =    -453.4152483394184401 [Eh]
	 Singles Energy            =      -0.0000000000000000 [Eh]
	 Same-Spin Energy          =      -0.4333138098663225 [Eh]
	 Opposite-Spin Energy      =      -1.2887176790773660 [Eh]
	 Correlation Energy        =      -1.7220314889436885 [Eh]
	 Total Energy              =    -455.1372798283621250 [Eh]

	 ================> DF-SCS-MP2 Energies <==================
	-----------------------------------------------------------
	 SCS Same-Spin Scale       =       0.3333333333333333 [-]
	 SCS Opposite-Spin Scale   =       1.2000000000000000 [-]
	 SCS Same-Spin Energy      =      -0.1444379366221075 [Eh]
	 SCS Opposite-Spin Energy  =      -1.5464612148928392 [Eh]
	 SCS Correlation Energy    =      -1.6908991515149467 [Eh]
	 SCS Total Energy          =    -455.1061474909333811 [Eh]
	-----------------------------------------------------------

  Dipole Moment: [D]
     X:    -1.3633      Y:     1.0372      Z:     1.5887     Total:     2.3363

*** Psi4 exiting successfully. Buy a developer a beer!
