                               Psi4 1.3.2 release

  ==> Input File <==

--------------------------------------------------------------------------
#psi4
#
memory 32 gb

molecule  {
0 1
  O        1.6287540    -0.6201880     1.1142450
  O       -2.7645349    -0.0580145     0.0755462
  O        2.1886480    -0.1218500    -1.0324370
  O       -0.8732870    -1.2159650    -0.3624810
  C        0.5918760     1.2475400     0.1132070
  C       -0.7452640     1.1476080     0.0762790
  C        1.5307310     0.0928540    -0.0315040
  C       -1.4205430    -0.1583360    -0.0935410
  H        1.0613430     2.2244020     0.1998120
  H       -1.3741190     2.0281690     0.1581920
  H        2.2467100    -1.3553630     0.9159410
  H       -3.1312110    -0.9325360    -0.0538740
units angstrom
no_reorient  #important for SAPT in psi4, default
symmetry c1  #important for SAPT in psi4, default
}

set PROPERTIES_ORIGIN ["COM"]
properties('MP2/aug-cc-pvtz', properties = ['dipole'])
--------------------------------------------------------------------------

    Molecular point group: c1
  Charge       = 0
  Multiplicity = 1
  Basis Set: AUG-CC-PVTZ
    Blend: AUG-CC-PVTZ
  Basis Set: (AUG-CC-PVTZ AUX)
    Blend: AUG-CC-PVTZ-JKFIT

    Orbital Energies [Eh]
    ---------------------

    Doubly Occupied:

       1A    -20.627305     2A    -20.623735     3A    -20.563322
       4A    -20.561569     5A    -11.409584     6A    -11.409444
       7A    -11.299982     8A    -11.282026     9A     -1.476916
      10A     -1.468963    11A     -1.371279    12A     -1.367492
      13A     -1.118045    14A     -0.961156    15A     -0.865111
      16A     -0.785674    17A     -0.735614    18A     -0.718173
      19A     -0.710539    20A     -0.668575    21A     -0.656792
      22A     -0.642242    23A     -0.611155    24A     -0.605399
      25A     -0.578668    26A     -0.506099    27A     -0.487058
      28A     -0.476247    29A     -0.466621    30A     -0.417064

  @DF-RHF Final Energy:  -453.43738799944299

   => Energetics <=

    Nuclear Repulsion Energy =            358.7718740967777649
    One-Electron Energy =               -1333.4748233497189176
    Two-Electron Energy =                 521.2655612534981628
    Total Energy =                       -453.4373879994429899
  Basis Set: (AUG-CC-PVTZ AUX)
    Blend: AUG-CC-PVTZ-RI
    Molecular point group: c1

    Geometry (in Angstrom), charge = 0, multiplicity = 1:

       Center              X                  Y                   Z               Mass
    ------------   -----------------  -----------------  -----------------  -----------------
         O            1.618864221918    -0.600276172789     1.125261851965    15.994914619570
         O           -2.774424678082    -0.038102672789     0.086563051965    15.994914619570
         O            2.178758221918    -0.101938172789    -1.021420148035    15.994914619570
         O           -0.883176778082    -1.196053172789    -0.351464148035    15.994914619570
         C            0.581986221918     1.267451827211     0.124223851965    12.000000000000
         C           -0.755153778082     1.167519827211     0.087295851965    12.000000000000
         C            1.520841221918     0.112765827211    -0.020487148035    12.000000000000
         C           -1.430432778082    -0.138424172789    -0.082524148035    12.000000000000
         H            1.051453221918     2.244313827211     0.210828851965     1.007825032230
         H           -1.384008778082     2.048080827211     0.169208851965     1.007825032230
         H            2.236820221918    -1.335451172789     0.926957851965     1.007825032230
         H           -3.141100778082    -0.912624172789    -0.042857148035     1.007825032230

  Basis Set: AUG-CC-PVTZ
    Blend: AUG-CC-PVTZ
  Basis Set: (AUG-CC-PVTZ AUX)
    Blend: AUG-CC-PVTZ-JKFIT
	 Reference Energy          =    -453.4373879994429899 [Eh]
	 Singles Energy            =      -0.0000000000000000 [Eh]
	 Same-Spin Energy          =      -0.4333576922883258 [Eh]
	 Opposite-Spin Energy      =      -1.2872453418460901 [Eh]
	 Correlation Energy        =      -1.7206030341344158 [Eh]
	 Total Energy              =    -455.1579910335773889 [Eh]

	 ================> DF-SCS-MP2 Energies <==================
	-----------------------------------------------------------
	 SCS Same-Spin Scale       =       0.3333333333333333 [-]
	 SCS Opposite-Spin Scale   =       1.2000000000000000 [-]
	 SCS Same-Spin Energy      =      -0.1444525640961086 [Eh]
	 SCS Opposite-Spin Energy  =      -1.5446944102153080 [Eh]
	 SCS Correlation Energy    =      -1.6891469743114165 [Eh]
	 SCS Total Energy          =    -455.1265349737544170 [Eh]
	-----------------------------------------------------------

  Dipole Moment: [D]
     X:    -1.3377      Y:     1.1073      Z:     1.5987     Total:     2.3604

*** Psi4 exiting successfully. Buy a developer a beer!
