                               Psi4 1.3.2 release

  ==> Input File <==

--------------------------------------------------------------------------
#psi4
#
memory 32 gb

molecule  {
0 1
  O        1.6287540    -0.6201880     1.1142450
  O       -2.7620560    -0.0348310     0.0798330
  O        2.1886480    -0.1218500    -1.0324370
  O       -0.8732870    -1.2159650    -0.3624810
  C        0.5918760     1.2475400     0.1132070
  C       -0.7452640     1.1476080     0.0762790
  C        1.5307310     0.0928540    -0.0315040
  C       -1.4160048    -0.1119204    -0.0850083
  H        1.0613430     2.2244020     0.1998120
  H       -1.3741190     2.0281690     0.1581920
  H        2.2467100    -1.3553630     0.9159410
  H       -3.1312110    -0.9325360    -0.0538740
units angstrom
no_reorient  #important for SAPT in psi4, default
symmetry c1  #important for SAPT in psi4, default
}

set PROPERTIES_ORIGIN ["COM"]
properties('MP2/aug-cc-pvtz', properties = ['dipole'])
--------------------------------------------------------------------------

    Molecular point group: c1
  Charge       = 0
  Multiplicity = 1
  Basis Set: AUG-CC-PVTZ
    Blend: AUG-CC-PVTZ
  Basis Set: (AUG-CC-PVTZ AUX)
    Blend: AUG-CC-PVTZ-JKFIT

    Orbital Energies [Eh]
    ---------------------

    Doubly Occupied:

       1A    -20.629951     2A    -20.624372     3A    -20.562966
       4A    -20.557350     5A    -11.411482     6A    -11.410879
       7A    -11.306538     8A    -11.281358     9A     -1.471164
      10A     -1.465157    11A     -1.368561    12A     -1.347005
      13A     -1.125846    14A     -0.970401    15A     -0.866150
      16A     -0.785655    17A     -0.737602    18A     -0.713455
      19A     -0.710675    20A     -0.669744    21A     -0.654789
      22A     -0.636962    23A     -0.610578    24A     -0.602965
      25A     -0.576698    26A     -0.500778    27A     -0.484679
      28A     -0.473546    29A     -0.465514    30A     -0.417884

  @DF-RHF Final Energy:  -453.42836859955617

   => Energetics <=

    Nuclear Repulsion Energy =            358.5750659005498733
    One-Electron Energy =               -1333.1254586823590671
    Two-Electron Energy =                 521.1220241822530852
    Total Energy =                       -453.4283685995561655
  Basis Set: (AUG-CC-PVTZ AUX)
    Blend: AUG-CC-PVTZ-RI
    Molecular point group: c1

    Geometry (in Angstrom), charge = 0, multiplicity = 1:

       Center              X                  Y                   Z               Mass
    ------------   -----------------  -----------------  -----------------  -----------------
         O            1.618053021019    -0.608273738831     1.123788203251    15.994914619570
         O           -2.772756978981    -0.022916738831     0.089376203251    15.994914619570
         O            2.177947021019    -0.109935738831    -1.022893796749    15.994914619570
         O           -0.883987978981    -1.204050738831    -0.352937796749    15.994914619570
         C            0.581175021019     1.259454261169     0.122750203251    12.000000000000
         C           -0.755964978981     1.159522261169     0.085822203251    12.000000000000
         C            1.520030021019     0.104768261169    -0.021960796749    12.000000000000
         C           -1.426705778981    -0.100006138831    -0.075465096749    12.000000000000
         H            1.050642021019     2.236316261169     0.209355203251     1.007825032230
         H           -1.384819978981     2.040083261169     0.167735203251     1.007825032230
         H            2.236009021019    -1.343448738831     0.925484203251     1.007825032230
         H           -3.141911978981    -0.920621738831    -0.044330796749     1.007825032230

  Basis Set: AUG-CC-PVTZ
    Blend: AUG-CC-PVTZ
  Basis Set: (AUG-CC-PVTZ AUX)
    Blend: AUG-CC-PVTZ-JKFIT
	 Reference Energy          =    -453.4283685995561655 [Eh]
	 Singles Energy            =      -0.0000000000000000 [Eh]
	 Same-Spin Energy          =      -0.4350095427551109 [Eh]
	 Opposite-Spin Energy      =      -1.2903832508941138 [Eh]
	 Correlation Energy        =      -1.7253927936492248 [Eh]
	 Total Energy              =    -455.1537613932054001 [Eh]

	 ================> DF-SCS-MP2 Energies <==================
	-----------------------------------------------------------
	 SCS Same-Spin Scale       =       0.3333333333333333 [-]
	 SCS Opposite-Spin Scale   =       1.2000000000000000 [-]
	 SCS Same-Spin Energy      =      -0.1450031809183703 [Eh]
	 SCS Opposite-Spin Energy  =      -1.5484599010729365 [Eh]
	 SCS Correlation Energy    =      -1.6934630819913068 [Eh]
	 SCS Total Energy          =    -455.1218316815474623 [Eh]
	-----------------------------------------------------------

  Dipole Moment: [D]
     X:    -1.2922      Y:     1.3060      Z:     1.6411     Total:     2.4634

*** Psi4 exiting successfully. Buy a developer a beer!
