                               Psi4 1.4a3.dev225

  ==> Input File <==

--------------------------------------------------------------------------
#psi4
#
memory 32 gb

molecule  {
0 1
  O        1.6292290    -0.6199230     1.1141820
  O       -2.7620640    -0.0349680     0.0794940
  O        2.1880480    -0.1219360    -1.0328490
  O       -0.8730120    -1.2160300    -0.3618370
  C        0.5917800     1.2475860     0.1132420
  C       -0.7453650     1.1476220     0.0764550
  C        1.5305940     0.0928630    -0.0316350
  C       -1.3710848    -0.1629084    -0.0996752
  H        1.0613100     2.2244250     0.1997410
  H       -1.3742940     2.0281270     0.1583660
  H        2.2470800    -1.3551440     0.9157090
  H       -3.1309400    -0.9327820    -0.0542280
units angstrom
no_reorient  #important for SAPT in psi4, default
symmetry c1  #important for SAPT in psi4, default
}

set PROPERTIES_ORIGIN ["COM"]
properties('MP2/aug-cc-pvtz', properties = ['dipole'])
--------------------------------------------------------------------------

    Molecular point group: c1
  Charge       = 0
  Multiplicity = 1
  Basis Set: AUG-CC-PVTZ
    Blend: AUG-CC-PVTZ
  Basis Set: (AUG-CC-PVTZ AUX)
    Blend: AUG-CC-PVTZ-JKFIT

    Orbital Energies [Eh]
    ---------------------

    Doubly Occupied:

       1A    -20.626588     2A    -20.615436     3A    -20.571474
       4A    -20.564440     5A    -11.412192     6A    -11.407690
       7A    -11.301932     8A    -11.282058     9A     -1.473658
      10A     -1.465075    11A     -1.371287    12A     -1.370319
      13A     -1.123048    14A     -0.960484    15A     -0.859548
      16A     -0.776621    17A     -0.737663    18A     -0.716472
      19A     -0.712972    20A     -0.663753    21A     -0.656060
      22A     -0.634338    23A     -0.617530    24A     -0.606067
      25A     -0.583864    26A     -0.508733    27A     -0.490743
      28A     -0.478777    29A     -0.469666    30A     -0.420212

  @DF-RHF Final Energy:  -453.43363451977405

   => Energetics <=

    Nuclear Repulsion Energy =            359.0609527011557702
    One-Electron Energy =               -1334.0317731791169535
    Two-Electron Energy =                 521.5371859581871377
    Total Energy =                       -453.4336345197740457
  Basis Set: (AUG-CC-PVTZ AUX)
    Blend: AUG-CC-PVTZ-RI
    Molecular point group: c1

    Geometry (in Angstrom), charge = 0, multiplicity = 1:

       Center              X                  Y                   Z               Mass
    ------------   -----------------  -----------------  -----------------  -----------------
         O            1.613892772138    -0.602738182926     1.125261684951    15.994914619570
         O           -2.777400227862    -0.017783182926     0.090573684951    15.994914619570
         O            2.172711772138    -0.104751182926    -1.021769315049    15.994914619570
         O           -0.888348227862    -1.198845182926    -0.350757315049    15.994914619570
         C            0.576443772138     1.264770817074     0.124321684951    12.000000000000
         C           -0.760701227862     1.164806817074     0.087534684951    12.000000000000
         C            1.515257772138     0.110047817074    -0.020555315049    12.000000000000
         C           -1.386421027862    -0.145723582926    -0.088595515049    12.000000000000
         H            1.045973772138     2.241609817074     0.210820684951     1.007825032230
         H           -1.389630227862     2.045311817074     0.169445684951     1.007825032230
         H            2.231743772138    -1.337959182926     0.926788684951     1.007825032230
         H           -3.146276227862    -0.915597182926    -0.043148315049     1.007825032230

  Basis Set: AUG-CC-PVTZ
    Blend: AUG-CC-PVTZ
  Basis Set: (AUG-CC-PVTZ AUX)
    Blend: AUG-CC-PVTZ-JKFIT
	 Reference Energy          =    -453.4336345197740457 [Eh]
	 Singles Energy            =      -0.0000000000000000 [Eh]
	 Same-Spin Energy          =      -0.4338123146681964 [Eh]
	 Opposite-Spin Energy      =      -1.2883644336367956 [Eh]
	 Correlation Energy        =      -1.7221767483049919 [Eh]
	 Total Energy              =    -455.1558112680790487 [Eh]

	 ================> DF-SCS-MP2 Energies <==================
	-----------------------------------------------------------
	 SCS Same-Spin Scale       =       0.3333333333333333 [-]
	 SCS Opposite-Spin Scale   =       1.2000000000000000 [-]
	 SCS Same-Spin Energy      =      -0.1446041048893988 [Eh]
	 SCS Opposite-Spin Energy  =      -1.5460373203641546 [Eh]
	 SCS Correlation Energy    =      -1.6906414252535533 [Eh]
	 SCS Total Energy          =    -455.1242759450275912 [Eh]
	-----------------------------------------------------------

  Dipole Moment: [D]
     X:    -0.8890      Y:     1.0402      Z:     1.5396     Total:     2.0598

*** Psi4 exiting successfully. Buy a developer a beer!
