                               Psi4 1.4a3.dev225

  ==> Input File <==

--------------------------------------------------------------------------
#psi4
#
memory 32 gb

molecule  {
0 1
  O        1.6292290    -0.6199230     1.1141820
  O       -2.7620640    -0.0349680     0.0794940
  O        2.1880480    -0.1219360    -1.0328490
  O       -0.8730120    -1.2160300    -0.3618370
  C        0.5917800     1.2475860     0.1132420
  C       -0.7453650     1.1476220     0.0764550
  C        1.5305940     0.0928630    -0.0316350
  C       -1.4294385    -0.1410393    -0.0889150
  H        1.0613100     2.2244250     0.1997410
  H       -1.3742940     2.0281270     0.1583660
  H        2.2470800    -1.3551440     0.9157090
  H       -3.1309400    -0.9327820    -0.0542280
units angstrom
no_reorient  #important for SAPT in psi4, default
symmetry c1  #important for SAPT in psi4, default
}

set PROPERTIES_ORIGIN ["COM"]
properties('MP2/aug-cc-pvtz', properties = ['dipole'])
--------------------------------------------------------------------------

    Molecular point group: c1
  Charge       = 0
  Multiplicity = 1
  Basis Set: AUG-CC-PVTZ
    Blend: AUG-CC-PVTZ
  Basis Set: (AUG-CC-PVTZ AUX)
    Blend: AUG-CC-PVTZ-JKFIT

    Orbital Energies [Eh]
    ---------------------

    Doubly Occupied:

       1A    -20.633522     2A    -20.623184     3A    -20.561190
       4A    -20.560318     5A    -11.410322     6A    -11.409391
       7A    -11.301078     8A    -11.281004     9A     -1.475557
      10A     -1.468519    11A     -1.367055    12A     -1.360821
      13A     -1.118957    14A     -0.963143    15A     -0.864827
      16A     -0.785034    17A     -0.734600    18A     -0.717810
      19A     -0.710045    20A     -0.668451    21A     -0.655978
      22A     -0.642802    23A     -0.609567    24A     -0.603742
      25A     -0.576751    26A     -0.503103    27A     -0.485336
      28A     -0.474788    29A     -0.465685    30A     -0.416408

  @DF-RHF Final Energy:  -453.43394381250397

   => Energetics <=

    Nuclear Repulsion Energy =            358.5968241065530719
    One-Electron Energy =               -1333.1635623104482420
    Two-Electron Energy =                 521.1327943913912577
    Total Energy =                       -453.4339438125039123
  Basis Set: (AUG-CC-PVTZ AUX)
    Blend: AUG-CC-PVTZ-RI
    Molecular point group: c1

    Geometry (in Angstrom), charge = 0, multiplicity = 1:

       Center              X                  Y                   Z               Mass
    ------------   -----------------  -----------------  -----------------  -----------------
         O            1.619928791566    -0.605000289913     1.124148665961    15.994914619570
         O           -2.771364208434    -0.020045289913     0.089460665961    15.994914619570
         O            2.178747791566    -0.107013289913    -1.022882334039    15.994914619570
         O           -0.882312208434    -1.201107289913    -0.351870334039    15.994914619570
         C            0.582479791566     1.262508710087     0.123208665961    12.000000000000
         C           -0.754665208434     1.162544710087     0.086421665961    12.000000000000
         C            1.521293791566     0.107785710087    -0.021668334039    12.000000000000
         C           -1.438738708434    -0.126116589913    -0.078948334039    12.000000000000
         H            1.052009791566     2.239347710087     0.209707665961     1.007825032230
         H           -1.383594208434     2.043049710087     0.168332665961     1.007825032230
         H            2.237779791566    -1.340221289913     0.925675665961     1.007825032230
         H           -3.140240208434    -0.917859289913    -0.044261334039     1.007825032230

  Basis Set: AUG-CC-PVTZ
    Blend: AUG-CC-PVTZ
  Basis Set: (AUG-CC-PVTZ AUX)
    Blend: AUG-CC-PVTZ-JKFIT
	 Reference Energy          =    -453.4339438125039692 [Eh]
	 Singles Energy            =      -0.0000000000000000 [Eh]
	 Same-Spin Energy          =      -0.4342027538807171 [Eh]
	 Opposite-Spin Energy      =      -1.2888756908273558 [Eh]
	 Correlation Energy        =      -1.7230784447080727 [Eh]
	 Total Energy              =    -455.1570222572120201 [Eh]

	 ================> DF-SCS-MP2 Energies <==================
	-----------------------------------------------------------
	 SCS Same-Spin Scale       =       0.3333333333333333 [-]
	 SCS Opposite-Spin Scale   =       1.2000000000000000 [-]
	 SCS Same-Spin Energy      =      -0.1447342512935723 [Eh]
	 SCS Opposite-Spin Energy  =      -1.5466508289928269 [Eh]
	 SCS Correlation Energy    =      -1.6913850802863992 [Eh]
	 SCS Total Energy          =    -455.1253288927903782 [Eh]
	-----------------------------------------------------------

  Dipole Moment: [D]
     X:    -1.4455      Y:     1.1624      Z:     1.6224     Total:     2.4643

*** Psi4 exiting successfully. Buy a developer a beer!
