                               Psi4 1.3.2 release

  ==> Input File <==

--------------------------------------------------------------------------
#psi4
#
memory 32 gb

molecule  {
0 1
  O        1.6287540    -0.6201880     1.1142450
  O       -2.7620560    -0.0348310     0.0798330
  O        2.1886480    -0.1218500    -1.0324370
  O       -0.8732870    -1.2159650    -0.3624810
  C        0.5918760     1.2475400     0.1132070
  C       -0.7452640     1.1476080     0.0762790
  C        1.5307310     0.0928540    -0.0315040
  C       -1.5544239    -0.0805555    -0.0886604
  H        1.0613430     2.2244020     0.1998120
  H       -1.3741190     2.0281690     0.1581920
  H        2.2467100    -1.3553630     0.9159410
  H       -3.1312110    -0.9325360    -0.0538740
units angstrom
no_reorient  #important for SAPT in psi4, default
symmetry c1  #important for SAPT in psi4, default
}

set PROPERTIES_ORIGIN ["COM"]
properties('MP2/aug-cc-pvtz', properties = ['dipole'])
--------------------------------------------------------------------------

    Molecular point group: c1
  Charge       = 0
  Multiplicity = 1
  Basis Set: AUG-CC-PVTZ
    Blend: AUG-CC-PVTZ
  Basis Set: (AUG-CC-PVTZ AUX)
    Blend: AUG-CC-PVTZ-JKFIT

    Orbital Energies [Eh]
    ---------------------

    Doubly Occupied:

       1A    -20.670171     2A    -20.616375     3A    -20.554862
       4A    -20.533363     5A    -11.414791     6A    -11.403994
       7A    -11.300831     8A    -11.281271     9A     -1.548470
      10A     -1.462312    11A     -1.360607    12A     -1.295608
      13A     -1.112122    14A     -0.976856    15A     -0.886166
      16A     -0.805390    17A     -0.742960    18A     -0.726844
      19A     -0.704251    20A     -0.687689    21A     -0.674605
      22A     -0.650188    23A     -0.604943    24A     -0.587225
      25A     -0.542847    26A     -0.488259    27A     -0.471630
      28A     -0.457015    29A     -0.445776    30A     -0.406507

  @DF-RHF Final Energy:  -453.39634367408831

   => Energetics <=

    Nuclear Repulsion Energy =            357.8894762209242231
    One-Electron Energy =               -1331.7437805297761315
    Two-Electron Energy =                 520.4579606347634808
    Total Energy =                       -453.3963436740883708
  Basis Set: (AUG-CC-PVTZ AUX)
    Blend: AUG-CC-PVTZ-RI
    Molecular point group: c1

    Geometry (in Angstrom), charge = 0, multiplicity = 1:

       Center              X                  Y                   Z               Mass
    ------------   -----------------  -----------------  -----------------  -----------------
         O            1.632370885641    -0.611518077164     1.124165971011    15.994914619570
         O           -2.758439114359    -0.026161077164     0.089753971011    15.994914619570
         O            2.192264885641    -0.113180077164    -1.022516028989    15.994914619570
         O           -0.869670114359    -1.207295077164    -0.352560028989    15.994914619570
         C            0.595492885641     1.256209922836     0.123127971011    12.000000000000
         C           -0.741647114359     1.156277922836     0.086199971011    12.000000000000
         C            1.534347885641     0.101523922836    -0.021583028989    12.000000000000
         C           -1.550807014359    -0.071885577164    -0.078739428989    12.000000000000
         H            1.064959885641     2.233071922836     0.209732971011     1.007825032230
         H           -1.370502114359     2.036838922836     0.168112971011     1.007825032230
         H            2.250326885641    -1.346693077164     0.925861971011     1.007825032230
         H           -3.127594114359    -0.923866077164    -0.043953028989     1.007825032230

  Basis Set: AUG-CC-PVTZ
    Blend: AUG-CC-PVTZ
  Basis Set: (AUG-CC-PVTZ AUX)
    Blend: AUG-CC-PVTZ-JKFIT
	 Reference Energy          =    -453.3963436740883139 [Eh]
	 Singles Energy            =      -0.0000000000000000 [Eh]
	 Same-Spin Energy          =      -0.4354993622912021 [Eh]
	 Opposite-Spin Energy      =      -1.2906999145648141 [Eh]
	 Correlation Energy        =      -1.7261992768560162 [Eh]
	 Total Energy              =    -455.1225429509443074 [Eh]

	 ================> DF-SCS-MP2 Energies <==================
	-----------------------------------------------------------
	 SCS Same-Spin Scale       =       0.3333333333333333 [-]
	 SCS Opposite-Spin Scale   =       1.2000000000000000 [-]
	 SCS Same-Spin Energy      =      -0.1451664540970674 [Eh]
	 SCS Opposite-Spin Energy  =      -1.5488398974777768 [Eh]
	 SCS Correlation Energy    =      -1.6940063515748442 [Eh]
	 SCS Total Energy          =    -455.0903500256631560 [Eh]
	-----------------------------------------------------------

  Dipole Moment: [D]
     X:    -2.5537      Y:     1.4803      Z:     1.7796     Total:     3.4467

*** Psi4 exiting successfully. Buy a developer a beer!
