                               Psi4 1.3.2 release

  ==> Input File <==

--------------------------------------------------------------------------
#psi4
#
memory 32 gb

molecule  {
0 1
  O        1.6287540    -0.6201880     1.1142450
  O       -2.7620560    -0.0348310     0.0798330
  O        2.1886480    -0.1218500    -1.0324370
  O       -0.8732870    -1.2159650    -0.3624810
  C        0.5918760     1.2475400     0.1132070
  C       -0.7452640     1.1476080     0.0762790
  C        1.5307310     0.0928540    -0.0315040
  C       -1.3270847    -0.2022869    -0.0957635
  H        1.0613430     2.2244020     0.1998120
  H       -1.3741190     2.0281690     0.1581920
  H        2.2467100    -1.3553630     0.9159410
  H       -3.1312110    -0.9325360    -0.0538740
units angstrom
no_reorient  #important for SAPT in psi4, default
symmetry c1  #important for SAPT in psi4, default
}

set PROPERTIES_ORIGIN ["COM"]
properties('MP2/aug-cc-pvtz', properties = ['dipole'])
--------------------------------------------------------------------------

    Molecular point group: c1
  Charge       = 0
  Multiplicity = 1
  Basis Set: AUG-CC-PVTZ
    Blend: AUG-CC-PVTZ
  Basis Set: (AUG-CC-PVTZ AUX)
    Blend: AUG-CC-PVTZ-JKFIT

    Orbital Energies [Eh]
    ---------------------

    Doubly Occupied:

       1A    -20.629094     2A    -20.600734     3A    -20.582759
       4A    -20.566484     5A    -11.413573     6A    -11.404662
       7A    -11.299556     8A    -11.283338     9A     -1.491623
      10A     -1.474039    11A     -1.372507    12A     -1.366196
      13A     -1.122478    14A     -0.954353    15A     -0.855051
      16A     -0.772629    17A     -0.738943    18A     -0.722795
      19A     -0.715433    20A     -0.661456    21A     -0.658186
      22A     -0.640197    23A     -0.624608    24A     -0.603540
      25A     -0.587499    26A     -0.511283    27A     -0.494418
      28A     -0.480426    29A     -0.469641    30A     -0.421692

  @DF-RHF Final Energy:  -453.42514568103894

   => Energetics <=

    Nuclear Repulsion Energy =            359.5766486771611881
    One-Electron Energy =               -1334.9652045671914493
    Two-Electron Energy =                 521.9634102089913767
    Total Energy =                       -453.4251456810388845
  Basis Set: (AUG-CC-PVTZ AUX)
    Blend: AUG-CC-PVTZ-RI
    Molecular point group: c1

    Geometry (in Angstrom), charge = 0, multiplicity = 1:

       Center              X                  Y                   Z               Mass
    ------------   -----------------  -----------------  -----------------  -----------------
         O            1.608855258904    -0.598926363264     1.124900705048    15.994914619570
         O           -2.781954741096    -0.013569363264     0.090488705048    15.994914619570
         O            2.168749258904    -0.100588363264    -1.021781294952    15.994914619570
         O           -0.893185741096    -1.194703363264    -0.351825294952    15.994914619570
         C            0.571977258904     1.268801636736     0.123862705048    12.000000000000
         C           -0.765162741096     1.168869636736     0.086934705048    12.000000000000
         C            1.510832258904     0.114115636736    -0.020848294952    12.000000000000
         C           -1.346983441096    -0.181025263264    -0.085107794952    12.000000000000
         H            1.041444258904     2.245663636736     0.210467705048     1.007825032230
         H           -1.394017741096     2.049430636736     0.168847705048     1.007825032230
         H            2.226811258904    -1.334101363264     0.926596705048     1.007825032230
         H           -3.151109741096    -0.911274363264    -0.043218294952     1.007825032230

  Basis Set: AUG-CC-PVTZ
    Blend: AUG-CC-PVTZ
  Basis Set: (AUG-CC-PVTZ AUX)
    Blend: AUG-CC-PVTZ-JKFIT
	 Reference Energy          =    -453.4251456810389413 [Eh]
	 Singles Energy            =      -0.0000000000000000 [Eh]
	 Same-Spin Energy          =      -0.4331426881962339 [Eh]
	 Opposite-Spin Energy      =      -1.2872542470258590 [Eh]
	 Correlation Energy        =      -1.7203969352220929 [Eh]
	 Total Energy              =    -455.1455426162610252 [Eh]

	 ================> DF-SCS-MP2 Energies <==================
	-----------------------------------------------------------
	 SCS Same-Spin Scale       =       0.3333333333333333 [-]
	 SCS Opposite-Spin Scale   =       1.2000000000000000 [-]
	 SCS Same-Spin Energy      =      -0.1443808960654113 [Eh]
	 SCS Opposite-Spin Energy  =      -1.5447050964310307 [Eh]
	 SCS Correlation Energy    =      -1.6890859924964419 [Eh]
	 SCS Total Energy          =    -455.1142316735353575 [Eh]
	-----------------------------------------------------------

  Dipole Moment: [D]
     X:    -0.4726      Y:     0.8237      Z:     1.4745     Total:     1.7538

*** Psi4 exiting successfully. Buy a developer a beer!
