                               Psi4 1.3.2 release

  ==> Input File <==

--------------------------------------------------------------------------
#psi4
#
memory 32 gb

molecule  {
0 1
  O        1.6287540    -0.6201880     1.1142450
  O       -2.7620560    -0.0348310     0.0798330
  O        2.1886480    -0.1218500    -1.0324370
  O       -0.8732870    -1.2159650    -0.3624810
  C        0.5918760     1.2475400     0.1132070
  C       -0.7452640     1.1476080     0.0762790
  C        1.5307310     0.0928540    -0.0315040
  C       -1.5193074    -0.1492434    -0.0807769
  H        1.0613430     2.2244020     0.1998120
  H       -1.3741190     2.0281690     0.1581920
  H        2.2467100    -1.3553630     0.9159410
  H       -3.1312110    -0.9325360    -0.0538740
units angstrom
no_reorient  #important for SAPT in psi4, default
symmetry c1  #important for SAPT in psi4, default
}

set PROPERTIES_ORIGIN ["COM"]
properties('MP2/aug-cc-pvtz', properties = ['dipole'])
--------------------------------------------------------------------------

    Molecular point group: c1
  Charge       = 0
  Multiplicity = 1
  Basis Set: AUG-CC-PVTZ
    Blend: AUG-CC-PVTZ
  Basis Set: (AUG-CC-PVTZ AUX)
    Blend: AUG-CC-PVTZ-JKFIT

    Orbital Energies [Eh]
    ---------------------

    Doubly Occupied:

       1A    -20.660002     2A    -20.617661     3A    -20.555254
       4A    -20.549134     5A    -11.413257     6A    -11.403570
       7A    -11.293819     8A    -11.279779     9A     -1.525597
      10A     -1.463328    11A     -1.361354    12A     -1.342835
      13A     -1.106695    14A     -0.961738    15A     -0.875678
      16A     -0.794384    17A     -0.737476    18A     -0.725450
      19A     -0.704783    20A     -0.676978    21A     -0.667474
      22A     -0.653872    23A     -0.603968    24A     -0.593710
      25A     -0.562488    26A     -0.495037    27A     -0.477684
      28A     -0.467655    29A     -0.455924    30A     -0.409479

  @DF-RHF Final Energy:  -453.42163542546263

   => Energetics <=

    Nuclear Repulsion Energy =            358.1707152713297546
    One-Electron Energy =               -1332.3125769924565702
    Two-Electron Energy =                 520.7202262956641334
    Total Energy =                       -453.4216354254626822
  Basis Set: (AUG-CC-PVTZ AUX)
    Blend: AUG-CC-PVTZ-RI
    Molecular point group: c1

    Geometry (in Angstrom), charge = 0, multiplicity = 1:

       Center              X                  Y                   Z               Mass
    ------------   -----------------  -----------------  -----------------  -----------------
         O            1.628738487417    -0.604413103549     1.123350513565    15.994914619570
         O           -2.762071512583    -0.019056103549     0.088938513565    15.994914619570
         O            2.188632487417    -0.106075103549    -1.023331486435    15.994914619570
         O           -0.873302512583    -1.200190103549    -0.353375486435    15.994914619570
         C            0.591860487417     1.263314896451     0.122312513565    12.000000000000
         C           -0.745279512583     1.163382896451     0.085384513565    12.000000000000
         C            1.530715487417     0.108628896451    -0.022398486435    12.000000000000
         C           -1.519322912583    -0.133468503549    -0.071671386435    12.000000000000
         H            1.061327487417     2.240176896451     0.208917513565     1.007825032230
         H           -1.374134512583     2.043943896451     0.167297513565     1.007825032230
         H            2.246694487417    -1.339588103549     0.925046513565     1.007825032230
         H           -3.131226512583    -0.916761103549    -0.044768486435     1.007825032230

  Basis Set: AUG-CC-PVTZ
    Blend: AUG-CC-PVTZ
  Basis Set: (AUG-CC-PVTZ AUX)
    Blend: AUG-CC-PVTZ-JKFIT
	 Reference Energy          =    -453.4216354254626253 [Eh]
	 Singles Energy            =      -0.0000000000000000 [Eh]
	 Same-Spin Energy          =      -0.4340974785656665 [Eh]
	 Opposite-Spin Energy      =      -1.2883306868435618 [Eh]
	 Correlation Energy        =      -1.7224281654092284 [Eh]
	 Total Energy              =    -455.1440635908718377 [Eh]

	 ================> DF-SCS-MP2 Energies <==================
	-----------------------------------------------------------
	 SCS Same-Spin Scale       =       0.3333333333333333 [-]
	 SCS Opposite-Spin Scale   =       1.2000000000000000 [-]
	 SCS Same-Spin Energy      =      -0.1446991595218888 [Eh]
	 SCS Opposite-Spin Energy  =      -1.5459968242122741 [Eh]
	 SCS Correlation Energy    =      -1.6906959837341629 [Eh]
	 SCS Total Energy          =    -455.1123314091967700 [Eh]
	-----------------------------------------------------------

  Dipole Moment: [D]
     X:    -2.3034      Y:     1.1510      Z:     1.7050     Total:     3.0882

*** Psi4 exiting successfully. Buy a developer a beer!
