                               Psi4 1.4a3.dev225

  ==> Input File <==

--------------------------------------------------------------------------
#psi4
#
memory 32 gb

molecule  {
0 1
  O        1.6292290    -0.6199230     1.1141820
  O       -2.7620640    -0.0349680     0.0794940
  O        2.1880480    -0.1219360    -1.0328490
  O       -0.8730120    -1.2160300    -0.3618370
  C        0.5917800     1.2475860     0.1132420
  C       -0.7453650     1.1476220     0.0764550
  C        1.5305940     0.0928630    -0.0316350
  C       -1.4204700    -0.1583660    -0.0933140
  H        1.0526731     2.2064563     0.1981499
  H       -1.3742940     2.0281270     0.1583660
  H        2.2470800    -1.3551440     0.9157090
  H       -3.1309400    -0.9327820    -0.0542280
units angstrom
no_reorient  #important for SAPT in psi4, default
symmetry c1  #important for SAPT in psi4, default
}

set PROPERTIES_ORIGIN ["COM"]
properties('MP2/aug-cc-pvtz', properties = ['dipole'])
--------------------------------------------------------------------------

    Molecular point group: c1
  Charge       = 0
  Multiplicity = 1
  Basis Set: AUG-CC-PVTZ
    Blend: AUG-CC-PVTZ
  Basis Set: (AUG-CC-PVTZ AUX)
    Blend: AUG-CC-PVTZ-JKFIT

    Orbital Energies [Eh]
    ---------------------

    Doubly Occupied:

       1A    -20.630495     2A    -20.623520     3A    -20.564324
       4A    -20.561288     5A    -11.409320     6A    -11.409129
       7A    -11.296993     8A    -11.280886     9A     -1.474921
      10A     -1.468499    11A     -1.371140    12A     -1.367252
      13A     -1.117900    14A     -0.960125    15A     -0.862937
      16A     -0.784243    17A     -0.734932    18A     -0.718771
      19A     -0.710290    20A     -0.667379    21A     -0.657952
      22A     -0.642287    23A     -0.611754    24A     -0.604863
      25A     -0.579621    26A     -0.506404    27A     -0.487067
      28A     -0.476351    29A     -0.466663    30A     -0.416543

  @DF-RHF Final Energy:  -453.43627232213890

   => Energetics <=

    Nuclear Repulsion Energy =            358.8191249377291001
    One-Electron Energy =               -1333.5830974063123904
    Two-Electron Energy =                 521.3277001464442719
    Total Energy =                       -453.4362723221389615
  Basis Set: (AUG-CC-PVTZ AUX)
    Blend: AUG-CC-PVTZ-RI
    Molecular point group: c1

    Geometry (in Angstrom), charge = 0, multiplicity = 1:

       Center              X                  Y                   Z               Mass
    ------------   -----------------  -----------------  -----------------  -----------------
         O            1.619076134910    -0.603051942029     1.124617514345    15.994914619570
         O           -2.772216865090    -0.018096942029     0.089929514345    15.994914619570
         O            2.177895134910    -0.105064942029    -1.022413485655    15.994914619570
         O           -0.883164865090    -1.199158942029    -0.351401485655    15.994914619570
         C            0.581627134910     1.264457057971     0.123677514345    12.000000000000
         C           -0.755517865090     1.164493057971     0.086890514345    12.000000000000
         C            1.520441134910     0.109734057971    -0.021199485655    12.000000000000
         C           -1.430622865090    -0.141494942029    -0.082878485655    12.000000000000
         H            1.042520234910     2.223327357971     0.208585414345     1.007825032230
         H           -1.384446865090     2.044998057971     0.168801514345     1.007825032230
         H            2.236927134910    -1.338272942029     0.926144514345     1.007825032230
         H           -3.141092865090    -0.915910942029    -0.043792485655     1.007825032230

  Basis Set: AUG-CC-PVTZ
    Blend: AUG-CC-PVTZ
  Basis Set: (AUG-CC-PVTZ AUX)
    Blend: AUG-CC-PVTZ-JKFIT
	 Reference Energy          =    -453.4362723221389047 [Eh]
	 Singles Energy            =      -0.0000000000000000 [Eh]
	 Same-Spin Energy          =      -0.4337516602201109 [Eh]
	 Opposite-Spin Energy      =      -1.2880456208983524 [Eh]
	 Correlation Energy        =      -1.7217972811184632 [Eh]
	 Total Energy              =    -455.1580696032573883 [Eh]

	 ================> DF-SCS-MP2 Energies <==================
	-----------------------------------------------------------
	 SCS Same-Spin Scale       =       0.3333333333333333 [-]
	 SCS Opposite-Spin Scale   =       1.2000000000000000 [-]
	 SCS Same-Spin Energy      =      -0.1445838867400370 [Eh]
	 SCS Opposite-Spin Energy  =      -1.5456547450780229 [Eh]
	 SCS Correlation Energy    =      -1.6902386318180598 [Eh]
	 SCS Total Energy          =    -455.1265109539569380 [Eh]
	-----------------------------------------------------------

  Dipole Moment: [D]
     X:    -1.3737      Y:     1.0680      Z:     1.5938     Total:     2.3596

*** Psi4 exiting successfully. Buy a developer a beer!
