                               Psi4 1.3.2 release

  ==> Input File <==

--------------------------------------------------------------------------
#psi4
#
memory 32 gb

molecule  {
0 1
  O        1.6287540    -0.6201880     1.1142450
  O       -2.7620560    -0.0348310     0.0798330
  O        2.1886480    -0.1218500    -1.0324370
  O       -0.8732870    -1.2159650    -0.3624810
  C        0.5918760     1.2475400     0.1132070
  C       -0.7452640     1.1476080     0.0762790
  C        1.5307310     0.0928540    -0.0315040
  C       -1.6180718    -0.1401507    -0.0680128
  H        1.0613430     2.2244020     0.1998120
  H       -1.3741190     2.0281690     0.1581920
  H        2.2467100    -1.3553630     0.9159410
  H       -3.1312110    -0.9325360    -0.0538740
units angstrom
no_reorient  #important for SAPT in psi4, default
symmetry c1  #important for SAPT in psi4, default
}

set PROPERTIES_ORIGIN ["COM"]
properties('MP2/aug-cc-pvtz', properties = ['dipole'])
--------------------------------------------------------------------------

    Molecular point group: c1
  Charge       = 0
  Multiplicity = 1
  Basis Set: AUG-CC-PVTZ
    Blend: AUG-CC-PVTZ
  Basis Set: (AUG-CC-PVTZ AUX)
    Blend: AUG-CC-PVTZ-JKFIT

    Orbital Energies [Eh]
    ---------------------

    Doubly Occupied:

       1A    -20.689677     2A    -20.611862     3A    -20.549352
       4A    -20.532143     5A    -11.416134     6A    -11.397962
       7A    -11.288659     8A    -11.279289     9A     -1.601751
      10A     -1.457419    11A     -1.355560    12A     -1.302233
      13A     -1.097515    14A     -0.976445    15A     -0.891579
      16A     -0.806110    17A     -0.764937    18A     -0.721313
      19A     -0.715729    20A     -0.698707    21A     -0.670034
      22A     -0.647103    23A     -0.599020    24A     -0.582752
      25A     -0.535757    26A     -0.483942    27A     -0.466720
      28A     -0.455037    29A     -0.438324    30A     -0.402263

  @DF-RHF Final Energy:  -453.37273768591479

   => Energetics <=

    Nuclear Repulsion Energy =            357.9174212975462410
    One-Electron Energy =               -1331.7096624396799598
    Two-Electron Energy =                 520.4195034562188766
    Total Energy =                       -453.3727376859147853
  Basis Set: (AUG-CC-PVTZ AUX)
    Blend: AUG-CC-PVTZ-RI
    Molecular point group: c1

    Geometry (in Angstrom), charge = 0, multiplicity = 1:

       Center              X                  Y                   Z               Mass
    ------------   -----------------  -----------------  -----------------  -----------------
         O            1.638954529197    -0.605353638833     1.122030214157    15.994914619570
         O           -2.751855470803    -0.019996638833     0.087618214157    15.994914619570
         O            2.198848529197    -0.107015638833    -1.024651785843    15.994914619570
         O           -0.863086470803    -1.201130638833    -0.354695785843    15.994914619570
         C            0.602076529197     1.262374361167     0.120992214157    12.000000000000
         C           -0.735063470803     1.162442361167     0.084064214157    12.000000000000
         C            1.540931529197     0.107688361167    -0.023718785843    12.000000000000
         C           -1.607871270803    -0.125316338833    -0.060227585843    12.000000000000
         H            1.071543529197     2.239236361167     0.207597214157     1.007825032230
         H           -1.363918470803     2.043003361167     0.165977214157     1.007825032230
         H            2.256910529197    -1.340528638833     0.923726214157     1.007825032230
         H           -3.121010470803    -0.917701638833    -0.046088785843     1.007825032230

  Basis Set: AUG-CC-PVTZ
    Blend: AUG-CC-PVTZ
  Basis Set: (AUG-CC-PVTZ AUX)
    Blend: AUG-CC-PVTZ-JKFIT
	 Reference Energy          =    -453.3727376859147853 [Eh]
	 Singles Energy            =      -0.0000000000000000 [Eh]
	 Same-Spin Energy          =      -0.4345861276086269 [Eh]
	 Opposite-Spin Energy      =      -1.2887953582486444 [Eh]
	 Correlation Energy        =      -1.7233814858572714 [Eh]
	 Total Energy              =    -455.0961191717720453 [Eh]

	 ================> DF-SCS-MP2 Energies <==================
	-----------------------------------------------------------
	 SCS Same-Spin Scale       =       0.3333333333333333 [-]
	 SCS Opposite-Spin Scale   =       1.2000000000000000 [-]
	 SCS Same-Spin Energy      =      -0.1448620425362090 [Eh]
	 SCS Opposite-Spin Energy  =      -1.5465544298983733 [Eh]
	 SCS Correlation Energy    =      -1.6914164724345824 [Eh]
	 SCS Total Energy          =    -455.0641541583493677 [Eh]
	-----------------------------------------------------------

  Dipole Moment: [D]
     X:    -3.2127      Y:     1.2866      Z:     1.8275     Total:     3.9136

*** Psi4 exiting successfully. Buy a developer a beer!
