                               Psi4 1.3.2 release

  ==> Input File <==

--------------------------------------------------------------------------
#psi4
#
memory 32 gb

molecule  {
0 1
  O        1.6287540    -0.6201880     1.1142450
  O       -2.7620560    -0.0348310     0.0798330
  O        2.1886480    -0.1218500    -1.0324370
  O       -0.8358634    -1.1955945    -0.3630617
  C        0.5918760     1.2475400     0.1132070
  C       -0.7452640     1.1476080     0.0762790
  C        1.5307310     0.0928540    -0.0315040
  C       -1.4205430    -0.1583360    -0.0935410
  H        1.0613430     2.2244020     0.1998120
  H       -1.3741190     2.0281690     0.1581920
  H        2.2467100    -1.3553630     0.9159410
  H       -3.1312110    -0.9325360    -0.0538740
units angstrom
no_reorient  #important for SAPT in psi4, default
symmetry c1  #important for SAPT in psi4, default
}

set PROPERTIES_ORIGIN ["COM"]
properties('MP2/aug-cc-pvtz', properties = ['dipole'])
--------------------------------------------------------------------------

    Molecular point group: c1
  Charge       = 0
  Multiplicity = 1
  Basis Set: AUG-CC-PVTZ
    Blend: AUG-CC-PVTZ
  Basis Set: (AUG-CC-PVTZ AUX)
    Blend: AUG-CC-PVTZ-JKFIT

    Orbital Energies [Eh]
    ---------------------

    Doubly Occupied:

       1A    -20.634095     2A    -20.622170     3A    -20.565259
       4A    -20.559736     5A    -11.409941     6A    -11.407962
       7A    -11.297359     8A    -11.278866     9A     -1.475353
      10A     -1.467332    11A     -1.374663    12A     -1.365884
      13A     -1.115274    14A     -0.958574    15A     -0.862133
      16A     -0.782640    17A     -0.734078    18A     -0.719835
      19A     -0.709034    20A     -0.666854    21A     -0.656360
      22A     -0.643503    23A     -0.609567    24A     -0.604364
      25A     -0.577838    26A     -0.508391    27A     -0.486411
      28A     -0.475725    29A     -0.465637    30A     -0.414859

  @DF-RHF Final Energy:  -453.43551705276190

   => Energetics <=

    Nuclear Repulsion Energy =            359.1853996647258214
    One-Electron Energy =               -1334.3424413163445479
    Two-Electron Energy =                 521.7215245988568313
    Total Energy =                       -453.4355170527619521
  Basis Set: (AUG-CC-PVTZ AUX)
    Blend: AUG-CC-PVTZ-RI
    Molecular point group: c1

    Geometry (in Angstrom), charge = 0, multiplicity = 1:

       Center              X                  Y                   Z               Mass
    ------------   -----------------  -----------------  -----------------  -----------------
         O            1.613362697852    -0.606281144386     1.124750876504    15.994914619570
         O           -2.777447302148    -0.020924144386     0.090338876504    15.994914619570
         O            2.173256697852    -0.107943144386    -1.021931123496    15.994914619570
         O           -0.851254702148    -1.181687644386    -0.352555823496    15.994914619570
         C            0.576484697852     1.261446855614     0.123712876504    12.000000000000
         C           -0.760655302148     1.161514855614     0.086784876504    12.000000000000
         C            1.515339697852     0.106760855614    -0.020998123496    12.000000000000
         C           -1.435934302148    -0.144429144386    -0.083035123496    12.000000000000
         H            1.045951697852     2.238308855614     0.210317876504     1.007825032230
         H           -1.389510302148     2.042075855614     0.168697876504     1.007825032230
         H            2.231318697852    -1.341456144386     0.926446876504     1.007825032230
         H           -3.146602302148    -0.918629144386    -0.043368123496     1.007825032230

  Basis Set: AUG-CC-PVTZ
    Blend: AUG-CC-PVTZ
  Basis Set: (AUG-CC-PVTZ AUX)
    Blend: AUG-CC-PVTZ-JKFIT
	 Reference Energy          =    -453.4355170527618952 [Eh]
	 Singles Energy            =      -0.0000000000000000 [Eh]
	 Same-Spin Energy          =      -0.4339358137150285 [Eh]
	 Opposite-Spin Energy      =      -1.2884407809570981 [Eh]
	 Correlation Energy        =      -1.7223765946721268 [Eh]
	 Total Energy              =    -455.1578936474340367 [Eh]

	 ================> DF-SCS-MP2 Energies <==================
	-----------------------------------------------------------
	 SCS Same-Spin Scale       =       0.3333333333333333 [-]
	 SCS Opposite-Spin Scale   =       1.2000000000000000 [-]
	 SCS Same-Spin Energy      =      -0.1446452712383428 [Eh]
	 SCS Opposite-Spin Energy  =      -1.5461289371485176 [Eh]
	 SCS Correlation Energy    =      -1.6907742083868604 [Eh]
	 SCS Total Energy          =    -455.1262912611487650 [Eh]
	-----------------------------------------------------------

  Dipole Moment: [D]
     X:    -1.5066      Y:     0.9921      Z:     1.5875     Total:     2.4029

*** Psi4 exiting successfully. Buy a developer a beer!
