                               Psi4 1.3.2 release

  ==> Input File <==

--------------------------------------------------------------------------
#psi4
#
memory 32 gb

molecule  {
0 1
  O        1.6287540    -0.6201880     1.1142450
  O       -2.7620560    -0.0348310     0.0798330
  O        2.1886480    -0.1218500    -1.0324370
  O       -0.8732870    -1.2159650    -0.3624810
  C        0.5918760     1.2475400     0.1132070
  C       -0.7452640     1.1476080     0.0762790
  C        1.5307310     0.0928540    -0.0315040
  C       -1.4653700    -0.0717032    -0.0715115
  H        1.0613430     2.2244020     0.1998120
  H       -1.3741190     2.0281690     0.1581920
  H        2.2467100    -1.3553630     0.9159410
  H       -3.1312110    -0.9325360    -0.0538740
units angstrom
no_reorient  #important for SAPT in psi4, default
symmetry c1  #important for SAPT in psi4, default
}

set PROPERTIES_ORIGIN ["COM"]
properties('MP2/aug-cc-pvtz', properties = ['dipole'])
--------------------------------------------------------------------------

    Molecular point group: c1
  Charge       = 0
  Multiplicity = 1
  Basis Set: AUG-CC-PVTZ
    Blend: AUG-CC-PVTZ
  Basis Set: (AUG-CC-PVTZ AUX)
    Blend: AUG-CC-PVTZ-JKFIT

    Orbital Energies [Eh]
    ---------------------

    Doubly Occupied:

       1A    -20.644726     2A    -20.621906     3A    -20.561020
       4A    -20.543861     5A    -11.412970     6A    -11.410121
       7A    -11.309269     8A    -11.281042     9A     -1.489031
      10A     -1.468058    11A     -1.366421    12A     -1.313657
      13A     -1.125798    14A     -0.978083    15A     -0.873483
      16A     -0.797393    17A     -0.736439    18A     -0.717642
      19A     -0.709316    20A     -0.676343    21A     -0.654819
      22A     -0.648842    23A     -0.610062    24A     -0.594533
      25A     -0.561715    26A     -0.495001    27A     -0.479115
      28A     -0.465685    29A     -0.456433    30A     -0.412935

  @DF-RHF Final Energy:  -453.41379822772581

   => Energetics <=

    Nuclear Repulsion Energy =            358.2092015322505176
    One-Electron Energy =               -1332.4145629740789900
    Two-Electron Energy =                 520.7915632141026663
    Total Energy =                       -453.4137982277258061
  Basis Set: (AUG-CC-PVTZ AUX)
    Blend: AUG-CC-PVTZ-RI
    Molecular point group: c1

    Geometry (in Angstrom), charge = 0, multiplicity = 1:

       Center              X                  Y                   Z               Mass
    ------------   -----------------  -----------------  -----------------  -----------------
         O            1.623159283454    -0.612433745833     1.122392114451    15.994914619570
         O           -2.767650716546    -0.027076745833     0.087980114451    15.994914619570
         O            2.183053283454    -0.114095745833    -1.024289885549    15.994914619570
         O           -0.878881716546    -1.208210745833    -0.354333885549    15.994914619570
         C            0.586281283454     1.255294254167     0.121354114451    12.000000000000
         C           -0.750858716546     1.155362254167     0.084426114451    12.000000000000
         C            1.525136283454     0.100608254167    -0.023356885549    12.000000000000
         C           -1.470964716546    -0.063948945833    -0.063364385549    12.000000000000
         H            1.055748283454     2.232156254167     0.207959114451     1.007825032230
         H           -1.379713716546     2.035923254167     0.166339114451     1.007825032230
         H            2.241115283454    -1.347608745833     0.924088114451     1.007825032230
         H           -3.136805716546    -0.924781745833    -0.045726885549     1.007825032230

  Basis Set: AUG-CC-PVTZ
    Blend: AUG-CC-PVTZ
  Basis Set: (AUG-CC-PVTZ AUX)
    Blend: AUG-CC-PVTZ-JKFIT
	 Reference Energy          =    -453.4137982277258061 [Eh]
	 Singles Energy            =      -0.0000000000000000 [Eh]
	 Same-Spin Energy          =      -0.4359955743057987 [Eh]
	 Opposite-Spin Energy      =      -1.2919374905493251 [Eh]
	 Correlation Energy        =      -1.7279330648551237 [Eh]
	 Total Energy              =    -455.1417312925809142 [Eh]

	 ================> DF-SCS-MP2 Energies <==================
	-----------------------------------------------------------
	 SCS Same-Spin Scale       =       0.3333333333333333 [-]
	 SCS Opposite-Spin Scale   =       1.2000000000000000 [-]
	 SCS Same-Spin Energy      =      -0.1453318581019329 [Eh]
	 SCS Opposite-Spin Energy  =      -1.5503249886591901 [Eh]
	 SCS Correlation Energy    =      -1.6956568467611230 [Eh]
	 SCS Total Energy          =    -455.1094550744869025 [Eh]
	-----------------------------------------------------------

  Dipole Moment: [D]
     X:    -1.7257      Y:     1.4946      Z:     1.7284     Total:     2.8634

*** Psi4 exiting successfully. Buy a developer a beer!
