                               Psi4 1.4a3.dev225

  ==> Input File <==

--------------------------------------------------------------------------
#psi4
#
memory 32 gb

molecule  {
0 1
  O        1.6292290    -0.6199230     1.1141820
  O       -2.7620640    -0.0349680     0.0794940
  O        2.1880480    -0.1219360    -1.0328490
  O       -0.8730120    -1.2160300    -0.3618370
  C        0.5917800     1.2475860     0.1132420
  C       -0.7453650     1.1476220     0.0764550
  C        1.5305940     0.0928630    -0.0316350
  C       -1.4428912    -0.1150492    -0.0823166
  H        1.0613100     2.2244250     0.1997410
  H       -1.3742940     2.0281270     0.1583660
  H        2.2470800    -1.3551440     0.9157090
  H       -3.1309400    -0.9327820    -0.0542280
units angstrom
no_reorient  #important for SAPT in psi4, default
symmetry c1  #important for SAPT in psi4, default
}

set PROPERTIES_ORIGIN ["COM"]
properties('MP2/aug-cc-pvtz', properties = ['dipole'])
--------------------------------------------------------------------------

    Molecular point group: c1
  Charge       = 0
  Multiplicity = 1
  Basis Set: AUG-CC-PVTZ
    Blend: AUG-CC-PVTZ
  Basis Set: (AUG-CC-PVTZ AUX)
    Blend: AUG-CC-PVTZ-JKFIT

    Orbital Energies [Eh]
    ---------------------

    Doubly Occupied:

       1A    -20.637869     2A    -20.622671     3A    -20.561082
       4A    -20.554228     5A    -11.411529     6A    -11.409633
       7A    -11.304083     8A    -11.281077     9A     -1.479140
      10A     -1.468450    11A     -1.366781    12A     -1.343618
      13A     -1.121557    14A     -0.968738    15A     -0.868066
      16A     -0.789257    17A     -0.735176    18A     -0.717108
      19A     -0.709714    20A     -0.671124    21A     -0.655139
      22A     -0.644518    23A     -0.609124    24A     -0.600314
      25A     -0.572779    26A     -0.499091    27A     -0.482619
      28A     -0.471734    29A     -0.463423    30A     -0.415714

  @DF-RHF Final Energy:  -453.42835813830982

   => Energetics <=

    Nuclear Repulsion Energy =            358.4389793023232187
    One-Electron Energy =               -1332.8639596676916881
    Two-Electron Energy =                 520.9966222270586513
    Total Energy =                       -453.4283581383098181
  Basis Set: (AUG-CC-PVTZ AUX)
    Blend: AUG-CC-PVTZ-RI
    Molecular point group: c1

    Geometry (in Angstrom), charge = 0, multiplicity = 1:

       Center              X                  Y                   Z               Mass
    ------------   -----------------  -----------------  -----------------  -----------------
         O            1.621320318728    -0.607688666974     1.123466137337    15.994914619570
         O           -2.769972681272    -0.022733666974     0.088778137337    15.994914619570
         O            2.180139318728    -0.109701666974    -1.023564862663    15.994914619570
         O           -0.880920681272    -1.203795666974    -0.352552862663    15.994914619570
         C            0.583871318728     1.259820333026     0.122526137337    12.000000000000
         C           -0.753273681272     1.159856333026     0.085739137337    12.000000000000
         C            1.522685318728     0.105097333026    -0.022350862663    12.000000000000
         C           -1.450799881272    -0.102814866974    -0.073032462663    12.000000000000
         H            1.053401318728     2.236659333026     0.209025137337     1.007825032230
         H           -1.382202681272     2.040361333026     0.167650137337     1.007825032230
         H            2.239171318728    -1.342909666974     0.924993137337     1.007825032230
         H           -3.138848681272    -0.920547666974    -0.044943862663     1.007825032230

  Basis Set: AUG-CC-PVTZ
    Blend: AUG-CC-PVTZ
  Basis Set: (AUG-CC-PVTZ AUX)
    Blend: AUG-CC-PVTZ-JKFIT
	 Reference Energy          =    -453.4283581383098181 [Eh]
	 Singles Energy            =      -0.0000000000000000 [Eh]
	 Same-Spin Energy          =      -0.4348534403559686 [Eh]
	 Opposite-Spin Energy      =      -1.2899947346066498 [Eh]
	 Correlation Energy        =      -1.7248481749626183 [Eh]
	 Total Energy              =    -455.1532063132724488 [Eh]

	 ================> DF-SCS-MP2 Energies <==================
	-----------------------------------------------------------
	 SCS Same-Spin Scale       =       0.3333333333333333 [-]
	 SCS Opposite-Spin Scale   =       1.2000000000000000 [-]
	 SCS Same-Spin Energy      =      -0.1449511467853228 [Eh]
	 SCS Opposite-Spin Energy  =      -1.5479936815279798 [Eh]
	 SCS Correlation Energy    =      -1.6929448283133026 [Eh]
	 SCS Total Energy          =    -455.1213029666231478 [Eh]
	-----------------------------------------------------------

  Dipole Moment: [D]
     X:    -1.5532      Y:     1.2934      Z:     1.6635     Total:     2.6177

*** Psi4 exiting successfully. Buy a developer a beer!
