                               Psi4 1.3.2 release

  ==> Input File <==

--------------------------------------------------------------------------
#psi4
#
memory 32 gb

molecule  {
0 1
  O        1.6287540    -0.6201880     1.1142450
  O       -2.7558731     0.0114161     0.0882468
  O        2.1886480    -0.1218500    -1.0324370
  O       -0.8732870    -1.2159650    -0.3624810
  C        0.5918760     1.2475400     0.1132070
  C       -0.7452640     1.1476080     0.0762790
  C        1.5307310     0.0928540    -0.0315040
  C       -1.4205430    -0.1583360    -0.0935410
  H        1.0613430     2.2244020     0.1998120
  H       -1.3741190     2.0281690     0.1581920
  H        2.2467100    -1.3553630     0.9159410
  H       -3.1312110    -0.9325360    -0.0538740
units angstrom
no_reorient  #important for SAPT in psi4, default
symmetry c1  #important for SAPT in psi4, default
}

set PROPERTIES_ORIGIN ["COM"]
properties('MP2/aug-cc-pvtz', properties = ['dipole'])
--------------------------------------------------------------------------

    Molecular point group: c1
  Charge       = 0
  Multiplicity = 1
  Basis Set: AUG-CC-PVTZ
    Blend: AUG-CC-PVTZ
  Basis Set: (AUG-CC-PVTZ AUX)
    Blend: AUG-CC-PVTZ-JKFIT

    Orbital Energies [Eh]
    ---------------------

    Doubly Occupied:

       1A    -20.636505     2A    -20.623180     3A    -20.566398
       4A    -20.560772     5A    -11.409449     6A    -11.408598
       7A    -11.297374     8A    -11.278741     9A     -1.471950
      10A     -1.467220    11A     -1.371222    12A     -1.366800
      13A     -1.115561    14A     -0.956326    15A     -0.858371
      16A     -0.777097    17A     -0.731563    18A     -0.719678
      19A     -0.709808    20A     -0.664227    21A     -0.656275
      22A     -0.642429    23A     -0.611400    24A     -0.602185
      25A     -0.578539    26A     -0.507085    27A     -0.487099
      28A     -0.476554    29A     -0.466284    30A     -0.415524

  @DF-RHF Final Energy:  -453.43032072689152

   => Energetics <=

    Nuclear Repulsion Energy =            358.6062222695632613
    One-Electron Energy =               -1333.2046623595465462
    Two-Electron Energy =                 521.1681193630918187
    Total Energy =                       -453.4303207268915230
  Basis Set: (AUG-CC-PVTZ AUX)
    Blend: AUG-CC-PVTZ-RI
    Molecular point group: c1

    Geometry (in Angstrom), charge = 0, multiplicity = 1:

       Center              X                  Y                   Z               Mass
    ------------   -----------------  -----------------  -----------------  -----------------
         O            1.617669983433    -0.609848859131     1.123510767282    15.994914619570
         O           -2.766957116567     0.021755240869     0.097512567282    15.994914619570
         O            2.177563983433    -0.111510859131    -1.023171232718    15.994914619570
         O           -0.884371016567    -1.205625859131    -0.353215232718    15.994914619570
         C            0.580791983433     1.257879140869     0.122472767282    12.000000000000
         C           -0.756348016567     1.157947140869     0.085544767282    12.000000000000
         C            1.519646983433     0.103193140869    -0.022238232718    12.000000000000
         C           -1.431627016567    -0.147996859131    -0.084275232718    12.000000000000
         H            1.050258983433     2.234741140869     0.209077767282     1.007825032230
         H           -1.385203016567     2.038508140869     0.167457767282     1.007825032230
         H            2.235625983433    -1.345023859131     0.925206767282     1.007825032230
         H           -3.142295016567    -0.922196859131    -0.044608232718     1.007825032230

  Basis Set: AUG-CC-PVTZ
    Blend: AUG-CC-PVTZ
  Basis Set: (AUG-CC-PVTZ AUX)
    Blend: AUG-CC-PVTZ-JKFIT
	 Reference Energy          =    -453.4303207268915230 [Eh]
	 Singles Energy            =      -0.0000000000000000 [Eh]
	 Same-Spin Energy          =      -0.4347023458579731 [Eh]
	 Opposite-Spin Energy      =      -1.2901306855120258 [Eh]
	 Correlation Energy        =      -1.7248330313699989 [Eh]
	 Total Energy              =    -455.1551537582615197 [Eh]

	 ================> DF-SCS-MP2 Energies <==================
	-----------------------------------------------------------
	 SCS Same-Spin Scale       =       0.3333333333333333 [-]
	 SCS Opposite-Spin Scale   =       1.2000000000000000 [-]
	 SCS Same-Spin Energy      =      -0.1449007819526577 [Eh]
	 SCS Opposite-Spin Energy  =      -1.5481568226144309 [Eh]
	 SCS Correlation Energy    =      -1.6930576045670886 [Eh]
	 SCS Total Energy          =    -455.1233783314586390 [Eh]
	-----------------------------------------------------------

  Dipole Moment: [D]
     X:    -1.4384      Y:     0.9991      Z:     1.5851     Total:     2.3621

*** Psi4 exiting successfully. Buy a developer a beer!
