                               Psi4 1.3.2 release

  ==> Input File <==

--------------------------------------------------------------------------
#psi4
#
memory 32 gb

molecule  {
0 1
  O        1.6287540    -0.6201880     1.1142450
  O       -2.7620560    -0.0348310     0.0798330
  O        2.1886480    -0.1218500    -1.0324370
  O       -0.8732870    -1.2159650    -0.3624810
  C        0.5918760     1.2475400     0.1132070
  C       -0.7452640     1.1476080     0.0762790
  C        1.5307310     0.0928540    -0.0315040
  C       -1.3749153    -0.0700951    -0.0820665
  H        1.0613430     2.2244020     0.1998120
  H       -1.3741190     2.0281690     0.1581920
  H        2.2467100    -1.3553630     0.9159410
  H       -3.1312110    -0.9325360    -0.0538740
units angstrom
no_reorient  #important for SAPT in psi4, default
symmetry c1  #important for SAPT in psi4, default
}

set PROPERTIES_ORIGIN ["COM"]
properties('MP2/aug-cc-pvtz', properties = ['dipole'])
--------------------------------------------------------------------------

    Molecular point group: c1
  Charge       = 0
  Multiplicity = 1
  Basis Set: AUG-CC-PVTZ
    Blend: AUG-CC-PVTZ
  Basis Set: (AUG-CC-PVTZ AUX)
    Blend: AUG-CC-PVTZ-JKFIT

    Orbital Energies [Eh]
    ---------------------

    Doubly Occupied:

       1A    -20.627595     2A    -20.618164     3A    -20.567187
       4A    -20.555667     5A    -11.416132     6A    -11.410959
       7A    -11.316759     8A    -11.281318     9A     -1.474218
      10A     -1.443401    11A     -1.372311    12A     -1.330316
      13A     -1.140031    14A     -0.982672    15A     -0.867816
      16A     -0.782582    17A     -0.743941    18A     -0.715415
      19A     -0.703559    20A     -0.669650    21A     -0.653840
      22A     -0.623895    23A     -0.613849    24A     -0.602054
      25A     -0.578203    26A     -0.500640    27A     -0.485970
      28A     -0.473589    29A     -0.463023    30A     -0.420586

  @DF-RHF Final Energy:  -453.41295092352067

   => Energetics <=

    Nuclear Repulsion Energy =            358.7061151811634545
    One-Electron Energy =               -1333.3674441257785475
    Two-Electron Energy =                 521.2483780210944815
    Total Energy =                       -453.4129509235206115
  Basis Set: (AUG-CC-PVTZ AUX)
    Blend: AUG-CC-PVTZ-RI
    Molecular point group: c1

    Geometry (in Angstrom), charge = 0, multiplicity = 1:

       Center              X                  Y                   Z               Mass
    ------------   -----------------  -----------------  -----------------  -----------------
         O            1.613802784611    -0.612600085291     1.123483907860    15.994914619570
         O           -2.777007215389    -0.027243085291     0.089071907860    15.994914619570
         O            2.173696784611    -0.114262085291    -1.023198092140    15.994914619570
         O           -0.888238215389    -1.208377085291    -0.353242092140    15.994914619570
         C            0.576924784611     1.255127914709     0.122445907860    12.000000000000
         C           -0.760215215389     1.155195914709     0.085517907860    12.000000000000
         C            1.515779784611     0.100441914709    -0.022265092140    12.000000000000
         C           -1.389866515389    -0.062507185291    -0.072827592140    12.000000000000
         H            1.046391784611     2.231989914709     0.209050907860     1.007825032230
         H           -1.389070215389     2.035756914709     0.167430907860     1.007825032230
         H            2.231758784611    -1.347775085291     0.925179907860     1.007825032230
         H           -3.146162215389    -0.924948085291    -0.044635092140     1.007825032230

  Basis Set: AUG-CC-PVTZ
    Blend: AUG-CC-PVTZ
  Basis Set: (AUG-CC-PVTZ AUX)
    Blend: AUG-CC-PVTZ-JKFIT
	 Reference Energy          =    -453.4129509235206683 [Eh]
	 Singles Energy            =      -0.0000000000000000 [Eh]
	 Same-Spin Energy          =      -0.4365081542534111 [Eh]
	 Opposite-Spin Energy      =      -1.2932378510687412 [Eh]
	 Correlation Energy        =      -1.7297460053221523 [Eh]
	 Total Energy              =    -455.1426969288428381 [Eh]

	 ================> DF-SCS-MP2 Energies <==================
	-----------------------------------------------------------
	 SCS Same-Spin Scale       =       0.3333333333333333 [-]
	 SCS Opposite-Spin Scale   =       1.2000000000000000 [-]
	 SCS Same-Spin Energy      =      -0.1455027180844704 [Eh]
	 SCS Opposite-Spin Energy  =      -1.5518854212824895 [Eh]
	 SCS Correlation Energy    =      -1.6973881393669599 [Eh]
	 SCS Total Energy          =    -455.1103390628876468 [Eh]
	-----------------------------------------------------------

  Dipole Moment: [D]
     X:    -0.8542      Y:     1.5056      Z:     1.6441     Total:     2.3874

*** Psi4 exiting successfully. Buy a developer a beer!
