                               Psi4 1.3.2 release

  ==> Input File <==

--------------------------------------------------------------------------
#psi4
#
memory 32 gb

molecule  {
0 1
  O        1.6287540    -0.6201880     1.1142450
  O       -2.7620560    -0.0348310     0.0798330
  O        2.1886480    -0.1218500    -1.0324370
  O       -0.8732870    -1.2159650    -0.3624810
  C        0.5918760     1.2475400     0.1132070
  C       -0.7452640     1.1476080     0.0762790
  C        1.5307310     0.0928540    -0.0315040
  C       -1.2230142    -0.1765213    -0.1190692
  H        1.0613430     2.2244020     0.1998120
  H       -1.3741190     2.0281690     0.1581920
  H        2.2467100    -1.3553630     0.9159410
  H       -3.1312110    -0.9325360    -0.0538740
units angstrom
no_reorient  #important for SAPT in psi4, default
symmetry c1  #important for SAPT in psi4, default
}

set PROPERTIES_ORIGIN ["COM"]
properties('MP2/aug-cc-pvtz', properties = ['dipole'])
--------------------------------------------------------------------------

    Molecular point group: c1
  Charge       = 0
  Multiplicity = 1
  Basis Set: AUG-CC-PVTZ
    Blend: AUG-CC-PVTZ
  Basis Set: (AUG-CC-PVTZ AUX)
    Blend: AUG-CC-PVTZ-JKFIT

    Orbital Energies [Eh]
    ---------------------

    Doubly Occupied:

       1A    -20.636561     2A    -20.593991     3A    -20.574944
       4A    -20.566157     5A    -11.421929     6A    -11.406547
       7A    -11.311594     8A    -11.289339     9A     -1.505095
      10A     -1.481964    11A     -1.380463    12A     -1.320544
      13A     -1.143182    14A     -0.967174    15A     -0.860393
      16A     -0.772910    17A     -0.744656    18A     -0.725546
      19A     -0.721892    20A     -0.661653    21A     -0.655389
      22A     -0.640295    23A     -0.633076    24A     -0.600534
      25A     -0.592155    26A     -0.503157    27A     -0.487835
      28A     -0.485861    29A     -0.459290    30A     -0.432019

  @DF-RHF Final Energy:  -453.39690163422171

   => Energetics <=

    Nuclear Repulsion Energy =            360.2941333441478378
    One-Electron Energy =               -1336.2297792988174479
    Two-Electron Energy =                 522.5387443204479041
    Total Energy =                       -453.3969016342216491
  Basis Set: (AUG-CC-PVTZ AUX)
    Blend: AUG-CC-PVTZ-RI
    Molecular point group: c1

    Geometry (in Angstrom), charge = 0, multiplicity = 1:

       Center              X                  Y                   Z               Mass
    ------------   -----------------  -----------------  -----------------  -----------------
         O            1.598090362079    -0.601591518382     1.127311411790    15.994914619570
         O           -2.792719637921    -0.016234518382     0.092899411790    15.994914619570
         O            2.157984362079    -0.103253518382    -1.019370588210    15.994914619570
         O           -0.903950637921    -1.197368518382    -0.349414588210    15.994914619570
         C            0.561212362079     1.266136481618     0.126273411790    12.000000000000
         C           -0.775927637921     1.166204481618     0.089345411790    12.000000000000
         C            1.500067362079     0.111450481618    -0.018437588210    12.000000000000
         C           -1.253677837921    -0.157924818382    -0.106002788210    12.000000000000
         H            1.030679362079     2.242998481618     0.212878411790     1.007825032230
         H           -1.404782637921     2.046765481618     0.171258411790     1.007825032230
         H            2.216046362079    -1.336766518382     0.929007411790     1.007825032230
         H           -3.161874637921    -0.913939518382    -0.040807588210     1.007825032230

  Basis Set: AUG-CC-PVTZ
    Blend: AUG-CC-PVTZ
  Basis Set: (AUG-CC-PVTZ AUX)
    Blend: AUG-CC-PVTZ-JKFIT
	 Reference Energy          =    -453.3969016342217060 [Eh]
	 Singles Energy            =      -0.0000000000000000 [Eh]
	 Same-Spin Energy          =      -0.4347544870975483 [Eh]
	 Opposite-Spin Energy      =      -1.2904086418469172 [Eh]
	 Correlation Energy        =      -1.7251631289444656 [Eh]
	 Total Energy              =    -455.1220647631661791 [Eh]

	 ================> DF-SCS-MP2 Energies <==================
	-----------------------------------------------------------
	 SCS Same-Spin Scale       =       0.3333333333333333 [-]
	 SCS Opposite-Spin Scale   =       1.2000000000000000 [-]
	 SCS Same-Spin Energy      =      -0.1449181623658494 [Eh]
	 SCS Opposite-Spin Energy  =      -1.5484903702163006 [Eh]
	 SCS Correlation Energy    =      -1.6934085325821502 [Eh]
	 SCS Total Energy          =    -455.0903101668038744 [Eh]
	-----------------------------------------------------------

  Dipole Moment: [D]
     X:     0.6540      Y:     0.9611      Z:     1.3725     Total:     1.7986

*** Psi4 exiting successfully. Buy a developer a beer!
