                               Psi4 1.3.2 release

  ==> Input File <==

--------------------------------------------------------------------------
#psi4
#
memory 32 gb

molecule  {
0 1
  O        1.6287540    -0.6201880     1.1142450
  O       -2.7620560    -0.0348310     0.0798330
  O        2.1886480    -0.1218500    -1.0324370
  O       -0.8732870    -1.2159650    -0.3624810
  C        0.5898700     1.2707367     0.1156505
  C       -0.7452640     1.1476080     0.0762790
  C        1.5307310     0.0928540    -0.0315040
  C       -1.4205430    -0.1583360    -0.0935410
  H        1.0613430     2.2244020     0.1998120
  H       -1.3741190     2.0281690     0.1581920
  H        2.2467100    -1.3553630     0.9159410
  H       -3.1312110    -0.9325360    -0.0538740
units angstrom
no_reorient  #important for SAPT in psi4, default
symmetry c1  #important for SAPT in psi4, default
}

set PROPERTIES_ORIGIN ["COM"]
properties('MP2/aug-cc-pvtz', properties = ['dipole'])
--------------------------------------------------------------------------

    Molecular point group: c1
  Charge       = 0
  Multiplicity = 1
  Basis Set: AUG-CC-PVTZ
    Blend: AUG-CC-PVTZ
  Basis Set: (AUG-CC-PVTZ AUX)
    Blend: AUG-CC-PVTZ-JKFIT

    Orbital Energies [Eh]
    ---------------------

    Doubly Occupied:

       1A    -20.630844     2A    -20.623504     3A    -20.564722
       4A    -20.561077     5A    -11.410070     6A    -11.409734
       7A    -11.298664     8A    -11.280588     9A     -1.475099
      10A     -1.467993    11A     -1.371438    12A     -1.366850
      13A     -1.116032    14A     -0.957151    15A     -0.861816
      16A     -0.784390    17A     -0.734077    18A     -0.718296
      19A     -0.709901    20A     -0.666882    21A     -0.657812
      22A     -0.642455    23A     -0.612385    24A     -0.605198
      25A     -0.578327    26A     -0.506419    27A     -0.486915
      28A     -0.476140    29A     -0.465667    30A     -0.416571

  @DF-RHF Final Energy:  -453.43584874397988

   => Energetics <=

    Nuclear Repulsion Energy =            358.3386598972164734
    One-Electron Energy =               -1332.6349783707180450
    Two-Electron Energy =                 520.8604697295216965
    Total Energy =                       -453.4358487439798182
  Basis Set: (AUG-CC-PVTZ AUX)
    Blend: AUG-CC-PVTZ-RI
    Molecular point group: c1

    Geometry (in Angstrom), charge = 0, multiplicity = 1:

       Center              X                  Y                   Z               Mass
    ------------   -----------------  -----------------  -----------------  -----------------
         O            1.618729943277    -0.605872010552     1.124418060989    15.994914619570
         O           -2.772080056723    -0.020515010552     0.090006060989    15.994914619570
         O            2.178623943277    -0.107534010552    -1.022263939011    15.994914619570
         O           -0.883311056723    -1.201649010552    -0.352307939011    15.994914619570
         C            0.579845943277     1.285052689448     0.125823560989    12.000000000000
         C           -0.755288056723     1.161923989448     0.086452060989    12.000000000000
         C            1.520706943277     0.107169989448    -0.021330939011    12.000000000000
         C           -1.430567056723    -0.144020010552    -0.083367939011    12.000000000000
         H            1.051318943277     2.238717989448     0.209985060989     1.007825032230
         H           -1.384143056723     2.042484989448     0.168365060989     1.007825032230
         H            2.236685943277    -1.341047010552     0.926114060989     1.007825032230
         H           -3.141235056723    -0.918220010552    -0.043700939011     1.007825032230

  Basis Set: AUG-CC-PVTZ
    Blend: AUG-CC-PVTZ
  Basis Set: (AUG-CC-PVTZ AUX)
    Blend: AUG-CC-PVTZ-JKFIT
	 Reference Energy          =    -453.4358487439798751 [Eh]
	 Singles Energy            =      -0.0000000000000000 [Eh]
	 Same-Spin Energy          =      -0.4336110805476747 [Eh]
	 Opposite-Spin Energy      =      -1.2880432361328982 [Eh]
	 Correlation Energy        =      -1.7216543166805729 [Eh]
	 Total Energy              =    -455.1575030606604741 [Eh]

	 ================> DF-SCS-MP2 Energies <==================
	-----------------------------------------------------------
	 SCS Same-Spin Scale       =       0.3333333333333333 [-]
	 SCS Opposite-Spin Scale   =       1.2000000000000000 [-]
	 SCS Same-Spin Energy      =      -0.1445370268492249 [Eh]
	 SCS Opposite-Spin Energy  =      -1.5456518833594777 [Eh]
	 SCS Correlation Energy    =      -1.6901889102087027 [Eh]
	 SCS Total Energy          =    -455.1260376541885648 [Eh]
	-----------------------------------------------------------

  Dipole Moment: [D]
     X:    -1.3658      Y:     1.0646      Z:     1.5943     Total:     2.3538

*** Psi4 exiting successfully. Buy a developer a beer!
