                               Psi4 1.3.2 release

  ==> Input File <==

--------------------------------------------------------------------------
#psi4
#
memory 32 gb

molecule  {
0 1
  O        1.6287540    -0.6201880     1.1142450
  O       -2.7620560    -0.0348310     0.0798330
  O        2.1886480    -0.1218500    -1.0324370
  O       -0.8732870    -1.2159650    -0.3624810
  C        0.5918760     1.2475400     0.1132070
  C       -0.7452640     1.1476080     0.0762790
  C        1.5307310     0.0928540    -0.0315040
  C       -1.4661707    -0.2465769    -0.1050155
  H        1.0613430     2.2244020     0.1998120
  H       -1.3741190     2.0281690     0.1581920
  H        2.2467100    -1.3553630     0.9159410
  H       -3.1312110    -0.9325360    -0.0538740
units angstrom
no_reorient  #important for SAPT in psi4, default
symmetry c1  #important for SAPT in psi4, default
}

set PROPERTIES_ORIGIN ["COM"]
properties('MP2/aug-cc-pvtz', properties = ['dipole'])
--------------------------------------------------------------------------

    Molecular point group: c1
  Charge       = 0
  Multiplicity = 1
  Basis Set: AUG-CC-PVTZ
    Blend: AUG-CC-PVTZ
  Basis Set: (AUG-CC-PVTZ AUX)
    Blend: AUG-CC-PVTZ-JKFIT

    Orbital Energies [Eh]
    ---------------------

    Doubly Occupied:

       1A    -20.642466     2A    -20.620053     3A    -20.573190
       4A    -20.556216     5A    -11.408426     6A    -11.403161
       7A    -11.283842     8A    -11.276090     9A     -1.504074
      10A     -1.465188    11A     -1.412615    12A     -1.362866
      13A     -1.098327    14A     -0.939720    15A     -0.859392
      16A     -0.781260    17A     -0.736706    18A     -0.727024
      19A     -0.706369    20A     -0.672593    21A     -0.665533
      22A     -0.654288    23A     -0.610294    24A     -0.599460
      25A     -0.577951    26A     -0.522662    27A     -0.486489
      28A     -0.474104    29A     -0.458535    30A     -0.408135

  @DF-RHF Final Energy:  -453.42989320264655

   => Energetics <=

    Nuclear Repulsion Energy =            358.7844251810867604
    One-Electron Energy =               -1333.4545790904935529
    Two-Electron Energy =                 521.2402607067601821
    Total Energy =                       -453.4298932026465536
  Basis Set: (AUG-CC-PVTZ AUX)
    Blend: AUG-CC-PVTZ-RI
    Molecular point group: c1

    Geometry (in Angstrom), charge = 0, multiplicity = 1:

       Center              X                  Y                   Z               Mass
    ------------   -----------------  -----------------  -----------------  -----------------
         O            1.623242106664    -0.594345071925     1.125857718087    15.994914619570
         O           -2.767567893336    -0.008988071925     0.091445718087    15.994914619570
         O            2.183136106664    -0.096007071925    -1.020824281913    15.994914619570
         O           -0.878798893336    -1.190122071925    -0.350868281913    15.994914619570
         C            0.586364106664     1.273382928075     0.124819718087    12.000000000000
         C           -0.750775893336     1.173450928075     0.087891718087    12.000000000000
         C            1.525219106664     0.118696928075    -0.019891281913    12.000000000000
         C           -1.471682593336    -0.220733971925    -0.093402781913    12.000000000000
         H            1.055831106664     2.250244928075     0.211424718087     1.007825032230
         H           -1.379630893336     2.054011928075     0.169804718087     1.007825032230
         H            2.241198106664    -1.329520071925     0.927553718087     1.007825032230
         H           -3.136722893336    -0.906693071925    -0.042261281913     1.007825032230

  Basis Set: AUG-CC-PVTZ
    Blend: AUG-CC-PVTZ
  Basis Set: (AUG-CC-PVTZ AUX)
    Blend: AUG-CC-PVTZ-JKFIT
	 Reference Energy          =    -453.4298932026465536 [Eh]
	 Singles Energy            =      -0.0000000000000000 [Eh]
	 Same-Spin Energy          =      -0.4322113264573826 [Eh]
	 Opposite-Spin Energy      =      -1.2850851490894883 [Eh]
	 Correlation Energy        =      -1.7172964755468709 [Eh]
	 Total Energy              =    -455.1471896781933992 [Eh]

	 ================> DF-SCS-MP2 Energies <==================
	-----------------------------------------------------------
	 SCS Same-Spin Scale       =       0.3333333333333333 [-]
	 SCS Opposite-Spin Scale   =       1.2000000000000000 [-]
	 SCS Same-Spin Energy      =      -0.1440704421524609 [Eh]
	 SCS Opposite-Spin Energy  =      -1.5421021789073859 [Eh]
	 SCS Correlation Energy    =      -1.6861726210598467 [Eh]
	 SCS Total Energy          =    -455.1160658237063785 [Eh]
	-----------------------------------------------------------

  Dipole Moment: [D]
     X:    -1.8678      Y:     0.5731      Z:     1.5300     Total:     2.4815

*** Psi4 exiting successfully. Buy a developer a beer!
