                               Psi4 1.3.2 release

  ==> Input File <==

--------------------------------------------------------------------------
#psi4
#
memory 32 gb

molecule  {
0 1
  O        1.6287540    -0.6201880     1.1142450
  O       -2.7620560    -0.0348310     0.0798330
  O        2.1886480    -0.1218500    -1.0324370
  O       -0.8732870    -1.2159650    -0.3624810
  C        0.5918760     1.2475400     0.1132070
  C       -0.7452640     1.1476080     0.0762790
  C        1.5307310     0.0928540    -0.0315040
  C       -1.4234254    -0.1814909    -0.0977288
  H        1.0613430     2.2244020     0.1998120
  H       -1.3741190     2.0281690     0.1581920
  H        2.2467100    -1.3553630     0.9159410
  H       -3.1312110    -0.9325360    -0.0538740
units angstrom
no_reorient  #important for SAPT in psi4, default
symmetry c1  #important for SAPT in psi4, default
}

set PROPERTIES_ORIGIN ["COM"]
properties('MP2/aug-cc-pvtz', properties = ['dipole'])
--------------------------------------------------------------------------

    Molecular point group: c1
  Charge       = 0
  Multiplicity = 1
  Basis Set: AUG-CC-PVTZ
    Blend: AUG-CC-PVTZ
  Basis Set: (AUG-CC-PVTZ AUX)
    Blend: AUG-CC-PVTZ-JKFIT

    Orbital Energies [Eh]
    ---------------------

    Doubly Occupied:

       1A    -20.630870     2A    -20.623149     3A    -20.567718
       4A    -20.560498     5A    -11.408534     6A    -11.408165
       7A    -11.295547     8A    -11.280344     9A     -1.479872
      10A     -1.468329    11A     -1.382487    12A     -1.366630
      13A     -1.113048    14A     -0.954123    15A     -0.860825
      16A     -0.781231    17A     -0.733182    18A     -0.721956
      19A     -0.709790    20A     -0.666552    21A     -0.657991
      22A     -0.645457    23A     -0.612440    24A     -0.603747
      25A     -0.579207    26A     -0.510501    27A     -0.487984
      28A     -0.477083    29A     -0.465950    30A     -0.415319

  @DF-RHF Final Energy:  -453.43732249331993

   => Energetics <=

    Nuclear Repulsion Energy =            358.7806757783567946
    One-Electron Energy =               -1333.4989355304785477
    Two-Electron Energy =                 521.2809372588018277
    Total Energy =                       -453.4373224933199253
  Basis Set: (AUG-CC-PVTZ AUX)
    Blend: AUG-CC-PVTZ-RI
    Molecular point group: c1

    Geometry (in Angstrom), charge = 0, multiplicity = 1:

       Center              X                  Y                   Z               Mass
    ------------   -----------------  -----------------  -----------------  -----------------
         O            1.618820596781    -0.601077470393     1.125103992740    15.994914619570
         O           -2.771989403219    -0.015720470393     0.090691992740    15.994914619570
         O            2.178714596781    -0.102739470393    -1.021578007260    15.994914619570
         O           -0.883220403219    -1.196854470393    -0.351622007260    15.994914619570
         C            0.581942596781     1.266650529607     0.124065992740    12.000000000000
         C           -0.755197403219     1.166718529607     0.087137992740    12.000000000000
         C            1.520797596781     0.111964529607    -0.020645007260    12.000000000000
         C           -1.433358803219    -0.162380370393    -0.086869807260    12.000000000000
         H            1.051409596781     2.243512529607     0.210670992740     1.007825032230
         H           -1.384052403219     2.047279529607     0.169050992740     1.007825032230
         H            2.236776596781    -1.336252470393     0.926799992740     1.007825032230
         H           -3.141144403219    -0.913425470393    -0.043015007260     1.007825032230

  Basis Set: AUG-CC-PVTZ
    Blend: AUG-CC-PVTZ
  Basis Set: (AUG-CC-PVTZ AUX)
    Blend: AUG-CC-PVTZ-JKFIT
	 Reference Energy          =    -453.4373224933199253 [Eh]
	 Singles Energy            =      -0.0000000000000000 [Eh]
	 Same-Spin Energy          =      -0.4332546239044103 [Eh]
	 Opposite-Spin Energy      =      -1.2871745678105517 [Eh]
	 Correlation Energy        =      -1.7204291917149619 [Eh]
	 Total Energy              =    -455.1577516850348957 [Eh]

	 ================> DF-SCS-MP2 Energies <==================
	-----------------------------------------------------------
	 SCS Same-Spin Scale       =       0.3333333333333333 [-]
	 SCS Opposite-Spin Scale   =       1.2000000000000000 [-]
	 SCS Same-Spin Energy      =      -0.1444182079681368 [Eh]
	 SCS Opposite-Spin Energy  =      -1.5446094813726621 [Eh]
	 SCS Correlation Energy    =      -1.6890276893407989 [Eh]
	 SCS Total Energy          =    -455.1263501826607012 [Eh]
	-----------------------------------------------------------

  Dipole Moment: [D]
     X:    -1.4154      Y:     0.9444      Z:     1.5692     Total:     2.3147

*** Psi4 exiting successfully. Buy a developer a beer!
