                               Psi4 1.3.2 release

  ==> Input File <==

--------------------------------------------------------------------------
#psi4
#
memory 32 gb

molecule  {
0 1
  O        1.6287540    -0.6201880     1.1142450
  O       -2.7620560    -0.0348310     0.0798330
  O        2.1886480    -0.1218500    -1.0324370
  O       -0.8732870    -1.2159650    -0.3624810
  C        0.5918760     1.2475400     0.1132070
  C       -0.7452640     1.1476080     0.0762790
  C        1.5307310     0.0928540    -0.0315040
  C       -1.3292876     0.0181457    -0.0705920
  H        1.0613430     2.2244020     0.1998120
  H       -1.3741190     2.0281690     0.1581920
  H        2.2467100    -1.3553630     0.9159410
  H       -3.1312110    -0.9325360    -0.0538740
units angstrom
no_reorient  #important for SAPT in psi4, default
symmetry c1  #important for SAPT in psi4, default
}

set PROPERTIES_ORIGIN ["COM"]
properties('MP2/aug-cc-pvtz', properties = ['dipole'])
--------------------------------------------------------------------------

    Molecular point group: c1
  Charge       = 0
  Multiplicity = 1
  Basis Set: AUG-CC-PVTZ
    Blend: AUG-CC-PVTZ
  Basis Set: (AUG-CC-PVTZ AUX)
    Blend: AUG-CC-PVTZ-JKFIT

    Orbital Energies [Eh]
    ---------------------

    Doubly Occupied:

       1A    -20.632518     2A    -20.603904     3A    -20.574365
       4A    -20.544719     5A    -11.424391     6A    -11.409130
       7A    -11.338304     8A    -11.278392     9A     -1.479852
      10A     -1.411747    11A     -1.378418    12A     -1.290975
      13A     -1.166786    14A     -1.008174    15A     -0.875617
      16A     -0.780908    17A     -0.755015    18A     -0.721089
      19A     -0.696412    20A     -0.671731    21A     -0.650714
      22A     -0.620739    23A     -0.608435    24A     -0.600799
      25A     -0.560802    26A     -0.502765    27A     -0.489924
      28A     -0.472671    29A     -0.446634    30A     -0.415837

  @DF-RHF Final Energy:  -453.35642998997031

   => Energetics <=

    Nuclear Repulsion Energy =            358.8496155592081891
    One-Electron Energy =               -1333.5885558651266365
    Two-Electron Energy =                 521.3825103159481387
    Total Energy =                       -453.3564299899703656
  Basis Set: (AUG-CC-PVTZ AUX)
    Blend: AUG-CC-PVTZ-RI
    Molecular point group: c1

    Geometry (in Angstrom), charge = 0, multiplicity = 1:

       Center              X                  Y                   Z               Mass
    ------------   -----------------  -----------------  -----------------  -----------------
         O            1.609083123584    -0.621727581630     1.122297002746    15.994914619570
         O           -2.781726876416    -0.036370581630     0.087885002746    15.994914619570
         O            2.168977123584    -0.123389581630    -1.024384997254    15.994914619570
         O           -0.892957876416    -1.217504581630    -0.354428997254    15.994914619570
         C            0.572205123584     1.246000418370     0.121259002746    12.000000000000
         C           -0.764934876416     1.146068418370     0.084331002746    12.000000000000
         C            1.511060123584     0.091314418370    -0.023451997254    12.000000000000
         C           -1.348958476416     0.016606118370    -0.062539997254    12.000000000000
         H            1.041672123584     2.222862418370     0.207864002746     1.007825032230
         H           -1.393789876416     2.026629418370     0.166244002746     1.007825032230
         H            2.227039123584    -1.356902581630     0.923993002746     1.007825032230
         H           -3.150881876416    -0.934075581630    -0.045821997254     1.007825032230

  Basis Set: AUG-CC-PVTZ
    Blend: AUG-CC-PVTZ
  Basis Set: (AUG-CC-PVTZ AUX)
    Blend: AUG-CC-PVTZ-JKFIT
	 Reference Energy          =    -453.3564299899703087 [Eh]
	 Singles Energy            =      -0.0000000000000000 [Eh]
	 Same-Spin Energy          =      -0.4400869237223595 [Eh]
	 Opposite-Spin Energy      =      -1.2998515333631790 [Eh]
	 Correlation Energy        =      -1.7399384570855385 [Eh]
	 Total Energy              =    -455.0963684470558519 [Eh]

	 ================> DF-SCS-MP2 Energies <==================
	-----------------------------------------------------------
	 SCS Same-Spin Scale       =       0.3333333333333333 [-]
	 SCS Opposite-Spin Scale   =       1.2000000000000000 [-]
	 SCS Same-Spin Energy      =      -0.1466956412407865 [Eh]
	 SCS Opposite-Spin Energy  =      -1.5598218400358148 [Eh]
	 SCS Correlation Energy    =      -1.7065174812766013 [Eh]
	 SCS Total Energy          =    -455.0629474712469005 [Eh]
	-----------------------------------------------------------

  Dipole Moment: [D]
     X:    -0.3158      Y:     1.8864      Z:     1.6796     Total:     2.5455

*** Psi4 exiting successfully. Buy a developer a beer!
