                               Psi4 1.3.2 release

  ==> Input File <==

--------------------------------------------------------------------------
#psi4
#
memory 32 gb

molecule  {
0 1
  O        1.6287540    -0.6201880     1.1142450
  O       -2.7620560    -0.0348310     0.0798330
  O        2.1886480    -0.1218500    -1.0324370
  O       -0.8732870    -1.2159650    -0.3624810
  C        0.5898641     1.2707017     0.1159584
  C       -0.7452640     1.1476080     0.0762790
  C        1.5307310     0.0928540    -0.0315040
  C       -1.4205430    -0.1583360    -0.0935410
  H        1.0613430     2.2244020     0.1998120
  H       -1.3741190     2.0281690     0.1581920
  H        2.2467100    -1.3553630     0.9159410
  H       -3.1312110    -0.9325360    -0.0538740
units angstrom
no_reorient  #important for SAPT in psi4, default
symmetry c1  #important for SAPT in psi4, default
}

set PROPERTIES_ORIGIN ["COM"]
properties('MP2/aug-cc-pvtz', properties = ['dipole'])
--------------------------------------------------------------------------

    Molecular point group: c1
  Charge       = 0
  Multiplicity = 1
  Basis Set: AUG-CC-PVTZ
    Blend: AUG-CC-PVTZ
  Basis Set: (AUG-CC-PVTZ AUX)
    Blend: AUG-CC-PVTZ-JKFIT

    Orbital Energies [Eh]
    ---------------------

    Doubly Occupied:

       1A    -20.630846     2A    -20.623498     3A    -20.564724
       4A    -20.561084     5A    -11.410072     6A    -11.409736
       7A    -11.298663     8A    -11.280591     9A     -1.475100
      10A     -1.467993    11A     -1.371439    12A     -1.366849
      13A     -1.116034    14A     -0.957154    15A     -0.861819
      16A     -0.784385    17A     -0.734073    18A     -0.718293
      19A     -0.709902    20A     -0.666884    21A     -0.657809
      22A     -0.642454    23A     -0.612384    24A     -0.605199
      25A     -0.578327    26A     -0.506420    27A     -0.486916
      28A     -0.476142    29A     -0.465668    30A     -0.416574

  @DF-RHF Final Energy:  -453.43584602811416

   => Energetics <=

    Nuclear Repulsion Energy =            358.3387122488378509
    One-Electron Energy =               -1332.6350520489586415
    Two-Electron Energy =                 520.8604937720066346
    Total Energy =                       -453.4358460281141561
  Basis Set: (AUG-CC-PVTZ AUX)
    Blend: AUG-CC-PVTZ-RI
    Molecular point group: c1

    Geometry (in Angstrom), charge = 0, multiplicity = 1:

       Center              X                  Y                   Z               Mass
    ------------   -----------------  -----------------  -----------------  -----------------
         O            1.618730553564    -0.605868390205     1.124386212274    15.994914619570
         O           -2.772079446436    -0.020511390205     0.089974212274    15.994914619570
         O            2.178624553564    -0.107530390205    -1.022295787726    15.994914619570
         O           -0.883310446436    -1.201645390205    -0.352339787726    15.994914619570
         C            0.579840653564     1.285021309795     0.126099612274    12.000000000000
         C           -0.755287446436     1.161927609795     0.086420212274    12.000000000000
         C            1.520707553564     0.107173609795    -0.021362787726    12.000000000000
         C           -1.430566446436    -0.144016390205    -0.083399787726    12.000000000000
         H            1.051319553564     2.238721609795     0.209953212274     1.007825032230
         H           -1.384142446436     2.042488609795     0.168333212274     1.007825032230
         H            2.236686553564    -1.341043390205     0.926082212274     1.007825032230
         H           -3.141234446436    -0.918216390205    -0.043732787726     1.007825032230

  Basis Set: AUG-CC-PVTZ
    Blend: AUG-CC-PVTZ
  Basis Set: (AUG-CC-PVTZ AUX)
    Blend: AUG-CC-PVTZ-JKFIT
	 Reference Energy          =    -453.4358460281141561 [Eh]
	 Singles Energy            =      -0.0000000000000000 [Eh]
	 Same-Spin Energy          =      -0.4336120269508513 [Eh]
	 Opposite-Spin Energy      =      -1.2880448649701379 [Eh]
	 Correlation Energy        =      -1.7216568919209891 [Eh]
	 Total Energy              =    -455.1575029200351423 [Eh]

	 ================> DF-SCS-MP2 Energies <==================
	-----------------------------------------------------------
	 SCS Same-Spin Scale       =       0.3333333333333333 [-]
	 SCS Opposite-Spin Scale   =       1.2000000000000000 [-]
	 SCS Same-Spin Energy      =      -0.1445373423169504 [Eh]
	 SCS Opposite-Spin Energy  =      -1.5456538379641656 [Eh]
	 SCS Correlation Energy    =      -1.6901911802811160 [Eh]
	 SCS Total Energy          =    -455.1260372083952461 [Eh]
	-----------------------------------------------------------

  Dipole Moment: [D]
     X:    -1.3659      Y:     1.0646      Z:     1.5941     Total:     2.3537

*** Psi4 exiting successfully. Buy a developer a beer!
