                               Psi4 1.4a3.dev225

  ==> Input File <==

--------------------------------------------------------------------------
#psi4
#
memory 32 gb

molecule  {
0 1
  O        1.6292290    -0.6199230     1.1141820
  O       -2.7620640    -0.0349680     0.0794940
  O        2.1880480    -0.1219360    -1.0328490
  O       -0.8730120    -1.2160300    -0.3618370
  C        0.5917800     1.2475860     0.1132420
  C       -0.7453650     1.1476220     0.0764550
  C        1.5305940     0.0928630    -0.0316350
  C       -1.4204700    -0.1583660    -0.0933140
  H        1.0397178     2.1795033     0.1957632
  H       -1.3742940     2.0281270     0.1583660
  H        2.2470800    -1.3551440     0.9157090
  H       -3.1309400    -0.9327820    -0.0542280
units angstrom
no_reorient  #important for SAPT in psi4, default
symmetry c1  #important for SAPT in psi4, default
}

set PROPERTIES_ORIGIN ["COM"]
properties('MP2/aug-cc-pvtz', properties = ['dipole'])
--------------------------------------------------------------------------

    Molecular point group: c1
  Charge       = 0
  Multiplicity = 1
  Basis Set: AUG-CC-PVTZ
    Blend: AUG-CC-PVTZ
  Basis Set: (AUG-CC-PVTZ AUX)
    Blend: AUG-CC-PVTZ-JKFIT

    Orbital Energies [Eh]
    ---------------------

    Doubly Occupied:

       1A    -20.630468     2A    -20.623479     3A    -20.564326
       4A    -20.561293     5A    -11.409243     6A    -11.408961
       7A    -11.293749     8A    -11.280869     9A     -1.474899
      10A     -1.468477    11A     -1.371121    12A     -1.367245
      13A     -1.119040    14A     -0.961255    15A     -0.863446
      16A     -0.787054    17A     -0.735795    18A     -0.718757
      19A     -0.710281    20A     -0.668203    21A     -0.659598
      22A     -0.642261    23A     -0.612600    24A     -0.605200
      25A     -0.580849    26A     -0.506402    27A     -0.487075
      28A     -0.476336    29A     -0.466838    30A     -0.416542

  @DF-RHF Final Energy:  -453.43532931368270

   => Energetics <=

    Nuclear Repulsion Energy =            358.9823904625413888
    One-Electron Energy =               -1333.8921168950814717
    Two-Electron Energy =                 521.4743971188573823
    Total Energy =                       -453.4353293136827006
  Basis Set: (AUG-CC-PVTZ AUX)
    Blend: AUG-CC-PVTZ-RI
    Molecular point group: c1

    Geometry (in Angstrom), charge = 0, multiplicity = 1:

       Center              X                  Y                   Z               Mass
    ------------   -----------------  -----------------  -----------------  -----------------
         O            1.619188681826    -0.602817792528     1.124638248386    15.994914619570
         O           -2.772104318174    -0.017862792528     0.089950248386    15.994914619570
         O            2.178007681826    -0.104830792528    -1.022392751614    15.994914619570
         O           -0.883052318174    -1.198924792528    -0.351380751614    15.994914619570
         C            0.581739681826     1.264691207472     0.123698248386    12.000000000000
         C           -0.755405318174     1.164727207472     0.086911248386    12.000000000000
         C            1.520553681826     0.109968207472    -0.021178751614    12.000000000000
         C           -1.430510318174    -0.141260792528    -0.082857751614    12.000000000000
         H            1.029677481826     2.196608507472     0.206219448386     1.007825032230
         H           -1.384334318174     2.045232207472     0.168822248386     1.007825032230
         H            2.237039681826    -1.338038792528     0.926165248386     1.007825032230
         H           -3.140980318174    -0.915676792528    -0.043771751614     1.007825032230

  Basis Set: AUG-CC-PVTZ
    Blend: AUG-CC-PVTZ
  Basis Set: (AUG-CC-PVTZ AUX)
    Blend: AUG-CC-PVTZ-JKFIT
	 Reference Energy          =    -453.4353293136827006 [Eh]
	 Singles Energy            =      -0.0000000000000000 [Eh]
	 Same-Spin Energy          =      -0.4337027982399003 [Eh]
	 Opposite-Spin Energy      =      -1.2879114469717829 [Eh]
	 Correlation Energy        =      -1.7216142452116832 [Eh]
	 Total Energy              =    -455.1569435588943975 [Eh]

	 ================> DF-SCS-MP2 Energies <==================
	-----------------------------------------------------------
	 SCS Same-Spin Scale       =       0.3333333333333333 [-]
	 SCS Opposite-Spin Scale   =       1.2000000000000000 [-]
	 SCS Same-Spin Energy      =      -0.1445675994133001 [Eh]
	 SCS Opposite-Spin Energy  =      -1.5454937363661394 [Eh]
	 SCS Correlation Energy    =      -1.6900613357794394 [Eh]
	 SCS Total Energy          =    -455.1253906494621333 [Eh]
	-----------------------------------------------------------

  Dipole Moment: [D]
     X:    -1.3775      Y:     1.0638      Z:     1.5937     Total:     2.3599

*** Psi4 exiting successfully. Buy a developer a beer!
