                               Psi4 1.3.2 release

  ==> Input File <==

--------------------------------------------------------------------------
#psi4
#
memory 32 gb

molecule  {
0 1
  O        1.6287540    -0.6201880     1.1142450
  O       -2.7707778    -0.1742488     0.0533664
  O        2.1886480    -0.1218500    -1.0324370
  O       -0.8732870    -1.2159650    -0.3624810
  C        0.5918760     1.2475400     0.1132070
  C       -0.7452640     1.1476080     0.0762790
  C        1.5307310     0.0928540    -0.0315040
  C       -1.4205430    -0.1583360    -0.0935410
  H        1.0613430     2.2244020     0.1998120
  H       -1.3741190     2.0281690     0.1581920
  H        2.2467100    -1.3553630     0.9159410
  H       -3.1312110    -0.9325360    -0.0538740
units angstrom
no_reorient  #important for SAPT in psi4, default
symmetry c1  #important for SAPT in psi4, default
}

set PROPERTIES_ORIGIN ["COM"]
properties('MP2/aug-cc-pvtz', properties = ['dipole'])
--------------------------------------------------------------------------

    Molecular point group: c1
  Charge       = 0
  Multiplicity = 1
  Basis Set: AUG-CC-PVTZ
    Blend: AUG-CC-PVTZ
  Basis Set: (AUG-CC-PVTZ AUX)
    Blend: AUG-CC-PVTZ-JKFIT

    Orbital Energies [Eh]
    ---------------------

    Doubly Occupied:

       1A    -20.624705     2A    -20.609160     3A    -20.562941
       4A    -20.558442     5A    -11.411271     6A    -11.410823
       7A    -11.304331     8A    -11.287766     9A     -1.490668
      10A     -1.470538    11A     -1.373193    12A     -1.368689
      13A     -1.122180    14A     -0.971655    15A     -0.881077
      16A     -0.803072    17A     -0.740607    18A     -0.714043
      19A     -0.711423    20A     -0.676384    21A     -0.656822
      22A     -0.641962    23A     -0.612165    24A     -0.605502
      25A     -0.577732    26A     -0.504773    27A     -0.487083
      28A     -0.475410    29A     -0.466263    30A     -0.419481

  @DF-RHF Final Energy:  -453.42061438622773

   => Energetics <=

    Nuclear Repulsion Energy =            359.2457809705474574
    One-Electron Energy =               -1334.2524689076878985
    Two-Electron Energy =                 521.5860735509127153
    Total Energy =                       -453.4206143862277258
  Basis Set: (AUG-CC-PVTZ AUX)
    Blend: AUG-CC-PVTZ-RI
    Molecular point group: c1

    Geometry (in Angstrom), charge = 0, multiplicity = 1:

       Center              X                  Y                   Z               Mass
    ------------   -----------------  -----------------  -----------------  -----------------
         O            1.619724956573    -0.584250465161     1.128319873479    15.994914619570
         O           -2.779806843427    -0.138311265161     0.067441273479    15.994914619570
         O            2.179618956573    -0.085912465161    -1.018362126521    15.994914619570
         O           -0.882316043427    -1.180027465161    -0.348406126521    15.994914619570
         C            0.582846956573     1.283477534839     0.127281873479    12.000000000000
         C           -0.754293043427     1.183545534839     0.090353873479    12.000000000000
         C            1.521701956573     0.128791534839    -0.017429126521    12.000000000000
         C           -1.429572043427    -0.122398465161    -0.079466126521    12.000000000000
         H            1.052313956573     2.260339534839     0.213886873479     1.007825032230
         H           -1.383148043427     2.064106534839     0.172266873479     1.007825032230
         H            2.237680956573    -1.319425465161     0.930015873479     1.007825032230
         H           -3.140240043427    -0.896598465161    -0.039799126521     1.007825032230

  Basis Set: AUG-CC-PVTZ
    Blend: AUG-CC-PVTZ
  Basis Set: (AUG-CC-PVTZ AUX)
    Blend: AUG-CC-PVTZ-JKFIT
	 Reference Energy          =    -453.4206143862277258 [Eh]
	 Singles Energy            =      -0.0000000000000000 [Eh]
	 Same-Spin Energy          =      -0.4315412847055027 [Eh]
	 Opposite-Spin Energy      =      -1.2834966869337983 [Eh]
	 Correlation Energy        =      -1.7150379716393009 [Eh]
	 Total Energy              =    -455.1356523578670021 [Eh]

	 ================> DF-SCS-MP2 Energies <==================
	-----------------------------------------------------------
	 SCS Same-Spin Scale       =       0.3333333333333333 [-]
	 SCS Opposite-Spin Scale   =       1.2000000000000000 [-]
	 SCS Same-Spin Energy      =      -0.1438470949018342 [Eh]
	 SCS Opposite-Spin Energy  =      -1.5401960243205579 [Eh]
	 SCS Correlation Energy    =      -1.6840431192223921 [Eh]
	 SCS Total Energy          =    -455.1046575054501204 [Eh]
	-----------------------------------------------------------

  Dipole Moment: [D]
     X:    -1.1536      Y:     1.3073      Z:     1.6233     Total:     2.3822

*** Psi4 exiting successfully. Buy a developer a beer!
