                               Psi4 1.4a3.dev225

  ==> Input File <==

--------------------------------------------------------------------------
#psi4
#
memory 32 gb

molecule  {
0 1
  O        1.6292290    -0.6199230     1.1141820
  O       -2.7620640    -0.0349680     0.0794940
  O        2.1880480    -0.1219360    -1.0328490
  O       -0.8730120    -1.2160300    -0.3618370
  C        0.5917800     1.2475860     0.1132420
  C       -0.7453650     1.1476220     0.0764550
  C        1.5305940     0.0928630    -0.0316350
  C       -1.4204700    -0.1583660    -0.0933140
  H        1.0829022     2.2693467     0.2037188
  H       -1.3742940     2.0281270     0.1583660
  H        2.2470800    -1.3551440     0.9157090
  H       -3.1309400    -0.9327820    -0.0542280
units angstrom
no_reorient  #important for SAPT in psi4, default
symmetry c1  #important for SAPT in psi4, default
}

set PROPERTIES_ORIGIN ["COM"]
properties('MP2/aug-cc-pvtz', properties = ['dipole'])
--------------------------------------------------------------------------

    Molecular point group: c1
  Charge       = 0
  Multiplicity = 1
  Basis Set: AUG-CC-PVTZ
    Blend: AUG-CC-PVTZ
  Basis Set: (AUG-CC-PVTZ AUX)
    Blend: AUG-CC-PVTZ-JKFIT

    Orbital Energies [Eh]
    ---------------------

    Doubly Occupied:

       1A    -20.630598     2A    -20.623633     3A    -20.564366
       4A    -20.561305     5A    -11.409570     6A    -11.409559
       7A    -11.304278     8A    -11.281003     9A     -1.475012
      10A     -1.468572    11A     -1.371226    12A     -1.367287
      13A     -1.115772    14A     -0.957992    15A     -0.862039
      16A     -0.778798    17A     -0.732953    18A     -0.718845
      19A     -0.710328    20A     -0.666401    21A     -0.653525
      22A     -0.642387    23A     -0.610057    24A     -0.603718
      25A     -0.575765    26A     -0.506435    27A     -0.487062
      28A     -0.476426    29A     -0.466213    30A     -0.416615

  @DF-RHF Final Energy:  -453.43371828375348

   => Energetics <=

    Nuclear Repulsion Energy =            358.4594883078175940
    One-Electron Energy =               -1332.8909285224171981
    Two-Electron Energy =                 520.9977219308461827
    Total Energy =                       -453.4337182837534783
  Basis Set: (AUG-CC-PVTZ AUX)
    Blend: AUG-CC-PVTZ-RI
    Molecular point group: c1

    Geometry (in Angstrom), charge = 0, multiplicity = 1:

       Center              X                  Y                   Z               Mass
    ------------   -----------------  -----------------  -----------------  -----------------
         O            1.618813524860    -0.603598291445     1.124569135494    15.994914619570
         O           -2.772479475140    -0.018643291445     0.089881135494    15.994914619570
         O            2.177632524860    -0.105611291445    -1.022461864506    15.994914619570
         O           -0.883427475140    -1.199705291445    -0.351449864506    15.994914619570
         C            0.581364524860     1.263910708555     0.123629135494    12.000000000000
         C           -0.755780475140     1.163946708555     0.086842135494    12.000000000000
         C            1.520178524860     0.109187708555    -0.021247864506    12.000000000000
         C           -1.430885475140    -0.142041291445    -0.082926864506    12.000000000000
         H            1.072486724860     2.285671408555     0.214105935494     1.007825032230
         H           -1.384709475140     2.044451708555     0.168753135494     1.007825032230
         H            2.236664524860    -1.338819291445     0.926096135494     1.007825032230
         H           -3.141355475140    -0.916457291445    -0.043840864506     1.007825032230

  Basis Set: AUG-CC-PVTZ
    Blend: AUG-CC-PVTZ
  Basis Set: (AUG-CC-PVTZ AUX)
    Blend: AUG-CC-PVTZ-JKFIT
	 Reference Energy          =    -453.4337182837534783 [Eh]
	 Singles Energy            =      -0.0000000000000000 [Eh]
	 Same-Spin Energy          =      -0.4338962692233145 [Eh]
	 Opposite-Spin Energy      =      -1.2885142276602273 [Eh]
	 Correlation Energy        =      -1.7224104968835419 [Eh]
	 Total Energy              =    -455.1561287806370046 [Eh]

	 ================> DF-SCS-MP2 Energies <==================
	-----------------------------------------------------------
	 SCS Same-Spin Scale       =       0.3333333333333333 [-]
	 SCS Opposite-Spin Scale   =       1.2000000000000000 [-]
	 SCS Same-Spin Energy      =      -0.1446320897411048 [Eh]
	 SCS Opposite-Spin Energy  =      -1.5462170731922726 [Eh]
	 SCS Correlation Energy    =      -1.6908491629333775 [Eh]
	 SCS Total Energy          =    -455.1245674466868536 [Eh]
	-----------------------------------------------------------

  Dipole Moment: [D]
     X:    -1.3669      Y:     1.0748      Z:     1.5934     Total:     2.3585

*** Psi4 exiting successfully. Buy a developer a beer!
