                               Psi4 1.3.2 release

  ==> Input File <==

--------------------------------------------------------------------------
#psi4
#
memory 32 gb

molecule  {
0 1
  O        1.6287540    -0.6201880     1.1142450
  O       -2.7620560    -0.0348310     0.0798330
  O        2.1886480    -0.1218500    -1.0324370
  O       -0.9113774    -1.2350469    -0.3615726
  C        0.5918760     1.2475400     0.1132070
  C       -0.7452640     1.1476080     0.0762790
  C        1.5307310     0.0928540    -0.0315040
  C       -1.4205430    -0.1583360    -0.0935410
  H        1.0613430     2.2244020     0.1998120
  H       -1.3741190     2.0281690     0.1581920
  H        2.2467100    -1.3553630     0.9159410
  H       -3.1312110    -0.9325360    -0.0538740
units angstrom
no_reorient  #important for SAPT in psi4, default
symmetry c1  #important for SAPT in psi4, default
}

set PROPERTIES_ORIGIN ["COM"]
properties('MP2/aug-cc-pvtz', properties = ['dipole'])
--------------------------------------------------------------------------

    Molecular point group: c1
  Charge       = 0
  Multiplicity = 1
  Basis Set: AUG-CC-PVTZ
    Blend: AUG-CC-PVTZ
  Basis Set: (AUG-CC-PVTZ AUX)
    Blend: AUG-CC-PVTZ-JKFIT

    Orbital Energies [Eh]
    ---------------------

    Doubly Occupied:

       1A    -20.626867     2A    -20.624917     3A    -20.563367
       4A    -20.562840     5A    -11.410541     6A    -11.408870
       7A    -11.300824     8A    -11.282957     9A     -1.474747
      10A     -1.469618    11A     -1.368632    12A     -1.367563
      13A     -1.119116    14A     -0.960344    15A     -0.863173
      16A     -0.782419    17A     -0.734685    18A     -0.717745
      19A     -0.711528    20A     -0.667141    21A     -0.657152
      22A     -0.641127    23A     -0.612804    24A     -0.604855
      25A     -0.579440    26A     -0.504537    27A     -0.487637
      28A     -0.476917    29A     -0.467165    30A     -0.418216

  @DF-RHF Final Energy:  -453.43609207084569

   => Energetics <=

    Nuclear Repulsion Energy =            358.2559533672858834
    One-Electron Energy =               -1332.4486026650706663
    Two-Electron Energy =                 520.7565572269390941
    Total Energy =                       -453.4360920708456888
  Basis Set: (AUG-CC-PVTZ AUX)
    Blend: AUG-CC-PVTZ-RI
    Molecular point group: c1

    Geometry (in Angstrom), charge = 0, multiplicity = 1:

       Center              X                  Y                   Z               Mass
    ------------   -----------------  -----------------  -----------------  -----------------
         O            1.623774127920    -0.600841677485     1.124545568077    15.994914619570
         O           -2.767035872080    -0.015484677485     0.090133568077    15.994914619570
         O            2.183668127920    -0.102503677485    -1.022136431923    15.994914619570
         O           -0.916357272080    -1.215700577485    -0.351272031923    15.994914619570
         C            0.586896127920     1.266886322515     0.123507568077    12.000000000000
         C           -0.750243872080     1.166954322515     0.086579568077    12.000000000000
         C            1.525751127920     0.112200322515    -0.021203431923    12.000000000000
         C           -1.425522872080    -0.138989677485    -0.083240431923    12.000000000000
         H            1.056363127920     2.243748322515     0.210112568077     1.007825032230
         H           -1.379098872080     2.047515322515     0.168492568077     1.007825032230
         H            2.241730127920    -1.336016677485     0.926241568077     1.007825032230
         H           -3.136190872080    -0.913189677485    -0.043573431923     1.007825032230

  Basis Set: AUG-CC-PVTZ
    Blend: AUG-CC-PVTZ
  Basis Set: (AUG-CC-PVTZ AUX)
    Blend: AUG-CC-PVTZ-JKFIT
	 Reference Energy          =    -453.4360920708456888 [Eh]
	 Singles Energy            =      -0.0000000000000000 [Eh]
	 Same-Spin Energy          =      -0.4336673227153138 [Eh]
	 Opposite-Spin Energy      =      -1.2879247656550823 [Eh]
	 Correlation Energy        =      -1.7215920883703961 [Eh]
	 Total Energy              =    -455.1576841592161031 [Eh]

	 ================> DF-SCS-MP2 Energies <==================
	-----------------------------------------------------------
	 SCS Same-Spin Scale       =       0.3333333333333333 [-]
	 SCS Opposite-Spin Scale   =       1.2000000000000000 [-]
	 SCS Same-Spin Energy      =      -0.1445557742384379 [Eh]
	 SCS Opposite-Spin Energy  =      -1.5455097187860987 [Eh]
	 SCS Correlation Energy    =      -1.6900654930245365 [Eh]
	 SCS Total Energy          =    -455.1261575638702084 [Eh]
	-----------------------------------------------------------

  Dipole Moment: [D]
     X:    -1.2372      Y:     1.1452      Z:     1.5997     Total:     2.3241

*** Psi4 exiting successfully. Buy a developer a beer!
