                               Psi4 1.3.2 release

  ==> Input File <==

--------------------------------------------------------------------------
#psi4
#
memory 32 gb

molecule  {
0 1
  O        1.6287540    -0.6201880     1.1142450
  O       -2.7480634     0.0574563     0.0964392
  O        2.1886480    -0.1218500    -1.0324370
  O       -0.8732870    -1.2159650    -0.3624810
  C        0.5918760     1.2475400     0.1132070
  C       -0.7452640     1.1476080     0.0762790
  C        1.5307310     0.0928540    -0.0315040
  C       -1.4205430    -0.1583360    -0.0935410
  H        1.0613430     2.2244020     0.1998120
  H       -1.3741190     2.0281690     0.1581920
  H        2.2467100    -1.3553630     0.9159410
  H       -3.1312110    -0.9325360    -0.0538740
units angstrom
no_reorient  #important for SAPT in psi4, default
symmetry c1  #important for SAPT in psi4, default
}

set PROPERTIES_ORIGIN ["COM"]
properties('MP2/aug-cc-pvtz', properties = ['dipole'])
--------------------------------------------------------------------------

    Molecular point group: c1
  Charge       = 0
  Multiplicity = 1
  Basis Set: AUG-CC-PVTZ
    Blend: AUG-CC-PVTZ
  Basis Set: (AUG-CC-PVTZ AUX)
    Blend: AUG-CC-PVTZ-JKFIT

    Orbital Energies [Eh]
    ---------------------

    Doubly Occupied:

       1A    -20.641934     2A    -20.622822     3A    -20.568517
       4A    -20.560252     5A    -11.409751     6A    -11.407950
       7A    -11.295635     8A    -11.276624     9A     -1.470264
      10A     -1.465337    11A     -1.371621    12A     -1.366350
      13A     -1.113909    14A     -0.953540    15A     -0.854850
      16A     -0.773006    17A     -0.728615    18A     -0.720074
      19A     -0.709300    20A     -0.662538    21A     -0.655011
      22A     -0.642517    23A     -0.611493    24A     -0.598768
      25A     -0.578167    26A     -0.507843    27A     -0.487139
      28A     -0.476613    29A     -0.465921    30A     -0.414463

  @DF-RHF Final Energy:  -453.42074594871241

   => Energetics <=

    Nuclear Repulsion Energy =            358.5431182429621231
    One-Electron Energy =               -1333.1060806525620137
    Two-Electron Energy =                 521.1422164608874255
    Total Energy =                       -453.4207459487124652
  Basis Set: (AUG-CC-PVTZ AUX)
    Blend: AUG-CC-PVTZ-RI
    Molecular point group: c1

    Geometry (in Angstrom), charge = 0, multiplicity = 1:

       Center              X                  Y                   Z               Mass
    ------------   -----------------  -----------------  -----------------  -----------------
         O            1.616593227528    -0.616196613489     1.122381246933    15.994914619570
         O           -2.760224172472     0.061447686511     0.104575446933    15.994914619570
         O            2.176487227528    -0.117858613489    -1.024300753067    15.994914619570
         O           -0.885447772472    -1.211973613489    -0.354344753067    15.994914619570
         C            0.579715227528     1.251531386511     0.121343246933    12.000000000000
         C           -0.757424772472     1.151599386511     0.084415246933    12.000000000000
         C            1.518570227528     0.096845386511    -0.023367753067    12.000000000000
         C           -1.432703772472    -0.154344613489    -0.085404753067    12.000000000000
         H            1.049182227528     2.228393386511     0.207948246933     1.007825032230
         H           -1.386279772472     2.032160386511     0.166328246933     1.007825032230
         H            2.234549227528    -1.351371613489     0.924077246933     1.007825032230
         H           -3.143371772472    -0.928544613489    -0.045737753067     1.007825032230

  Basis Set: AUG-CC-PVTZ
    Blend: AUG-CC-PVTZ
  Basis Set: (AUG-CC-PVTZ AUX)
    Blend: AUG-CC-PVTZ-JKFIT
	 Reference Energy          =    -453.4207459487124083 [Eh]
	 Singles Energy            =      -0.0000000000000000 [Eh]
	 Same-Spin Energy          =      -0.4356875025920127 [Eh]
	 Opposite-Spin Energy      =      -1.2923030184198701 [Eh]
	 Correlation Energy        =      -1.7279905210118827 [Eh]
	 Total Energy              =    -455.1487364697242697 [Eh]

	 ================> DF-SCS-MP2 Energies <==================
	-----------------------------------------------------------
	 SCS Same-Spin Scale       =       0.3333333333333333 [-]
	 SCS Opposite-Spin Scale   =       1.2000000000000000 [-]
	 SCS Same-Spin Energy      =      -0.1452291675306709 [Eh]
	 SCS Opposite-Spin Energy  =      -1.5507636221038441 [Eh]
	 SCS Correlation Energy    =      -1.6959927896345151 [Eh]
	 SCS Total Energy          =    -455.1167387383468963 [Eh]
	-----------------------------------------------------------

  Dipole Moment: [D]
     X:    -1.5004      Y:     0.9319      Z:     1.5764     Total:     2.3674

*** Psi4 exiting successfully. Buy a developer a beer!
