                               Psi4 1.4a3.dev225

  ==> Input File <==

--------------------------------------------------------------------------
#psi4
#
memory 32 gb

molecule  {
0 1
  O        1.6292290    -0.6199230     1.1141820
  O       -2.7620640    -0.0349680     0.0794940
  O        2.1880480    -0.1219360    -1.0328490
  O       -0.8730120    -1.2160300    -0.3618370
  C        0.5917800     1.2475860     0.1132420
  C       -0.7453650     1.1476220     0.0764550
  C        1.5305940     0.0928630    -0.0316350
  C       -1.4115015    -0.1756927    -0.0977130
  H        1.0613100     2.2244250     0.1997410
  H       -1.3742940     2.0281270     0.1583660
  H        2.2470800    -1.3551440     0.9157090
  H       -3.1309400    -0.9327820    -0.0542280
units angstrom
no_reorient  #important for SAPT in psi4, default
symmetry c1  #important for SAPT in psi4, default
}

set PROPERTIES_ORIGIN ["COM"]
properties('MP2/aug-cc-pvtz', properties = ['dipole'])
--------------------------------------------------------------------------

    Molecular point group: c1
  Charge       = 0
  Multiplicity = 1
  Basis Set: AUG-CC-PVTZ
    Blend: AUG-CC-PVTZ
  Basis Set: (AUG-CC-PVTZ AUX)
    Blend: AUG-CC-PVTZ-JKFIT

    Orbital Energies [Eh]
    ---------------------

    Doubly Occupied:

       1A    -20.627425     2A    -20.623935     3A    -20.568308
       4A    -20.561409     5A    -11.409121     6A    -11.408334
       7A    -11.297195     8A    -11.280772     9A     -1.476202
      10A     -1.468728    11A     -1.379876    12A     -1.367484
      13A     -1.115487    14A     -0.955798    15A     -0.860423
      16A     -0.780298    17A     -0.734279    18A     -0.720200
      19A     -0.710574    20A     -0.665918    21A     -0.657554
      22A     -0.642500    23A     -0.613530    24A     -0.604464
      25A     -0.580238    26A     -0.510011    27A     -0.488588
      28A     -0.477543    29A     -0.466998    30A     -0.416490

  @DF-RHF Final Energy:  -453.43703849451072

   => Energetics <=

    Nuclear Repulsion Energy =            358.8400447246464182
    One-Electron Energy =               -1333.6148005174475202
    Two-Electron Energy =                 521.3377172982903858
    Total Energy =                       -453.4370384945107162
  Basis Set: (AUG-CC-PVTZ AUX)
    Blend: AUG-CC-PVTZ-RI
    Molecular point group: c1

    Geometry (in Angstrom), charge = 0, multiplicity = 1:

       Center              X                  Y                   Z               Mass
    ------------   -----------------  -----------------  -----------------  -----------------
         O            1.618073415120    -0.601415794060     1.125058717919    15.994914619570
         O           -2.773219584880    -0.016460794060     0.090370717919    15.994914619570
         O            2.176892415120    -0.103428794060    -1.021972282081    15.994914619570
         O           -0.884167584880    -1.197522794060    -0.350960282081    15.994914619570
         C            0.580624415120     1.266093205940     0.124118717919    12.000000000000
         C           -0.756520584880     1.166129205940     0.087331717919    12.000000000000
         C            1.519438415120     0.111370205940    -0.020758282081    12.000000000000
         C           -1.422657084880    -0.157185494060    -0.086836282081    12.000000000000
         H            1.050154415120     2.242932205940     0.210617717919     1.007825032230
         H           -1.385449584880     2.046634205940     0.169242717919     1.007825032230
         H            2.235924415120    -1.336636794060     0.926585717919     1.007825032230
         H           -3.142095584880    -0.914274794060    -0.043351282081     1.007825032230

  Basis Set: AUG-CC-PVTZ
    Blend: AUG-CC-PVTZ
  Basis Set: (AUG-CC-PVTZ AUX)
    Blend: AUG-CC-PVTZ-JKFIT
	 Reference Energy          =    -453.4370384945107162 [Eh]
	 Singles Energy            =      -0.0000000000000000 [Eh]
	 Same-Spin Energy          =      -0.4333931515900240 [Eh]
	 Opposite-Spin Energy      =      -1.2874671415747900 [Eh]
	 Correlation Energy        =      -1.7208602931648140 [Eh]
	 Total Energy              =    -455.1578987876755491 [Eh]

	 ================> DF-SCS-MP2 Energies <==================
	-----------------------------------------------------------
	 SCS Same-Spin Scale       =       0.3333333333333333 [-]
	 SCS Opposite-Spin Scale   =       1.2000000000000000 [-]
	 SCS Same-Spin Energy      =      -0.1444643838633413 [Eh]
	 SCS Opposite-Spin Energy  =      -1.5449605698897479 [Eh]
	 SCS Correlation Energy    =      -1.6894249537530892 [Eh]
	 SCS Total Energy          =    -455.1264634482637916 [Eh]
	-----------------------------------------------------------

  Dipole Moment: [D]
     X:    -1.2955      Y:     0.9745      Z:     1.5641     Total:     2.2526

*** Psi4 exiting successfully. Buy a developer a beer!
