                               Psi4 1.3.2 release

  ==> Input File <==

--------------------------------------------------------------------------
#psi4
#
memory 32 gb

molecule  {
0 1
  O        1.6287540    -0.6201880     1.1142450
  O       -2.7620560    -0.0348310     0.0798330
  O        2.1886480    -0.1218500    -1.0324370
  O       -0.8732870    -1.2159650    -0.3624810
  C        0.5918760     1.2475400     0.1132070
  C       -0.7452640     1.1476080     0.0762790
  C        1.5307310     0.0928540    -0.0315040
  C       -1.4434110    -0.1463451    -0.0928556
  H        1.0613430     2.2244020     0.1998120
  H       -1.3741190     2.0281690     0.1581920
  H        2.2467100    -1.3553630     0.9159410
  H       -3.1312110    -0.9325360    -0.0538740
units angstrom
no_reorient  #important for SAPT in psi4, default
symmetry c1  #important for SAPT in psi4, default
}

set PROPERTIES_ORIGIN ["COM"]
properties('MP2/aug-cc-pvtz', properties = ['dipole'])
--------------------------------------------------------------------------

    Molecular point group: c1
  Charge       = 0
  Multiplicity = 1
  Basis Set: AUG-CC-PVTZ
    Blend: AUG-CC-PVTZ
  Basis Set: (AUG-CC-PVTZ AUX)
    Blend: AUG-CC-PVTZ-JKFIT

    Orbital Energies [Eh]
    ---------------------

    Doubly Occupied:

       1A    -20.637417     2A    -20.622278     3A    -20.560143
       4A    -20.559529     5A    -11.410563     6A    -11.408301
       7A    -11.299239     8A    -11.280720     9A     -1.481756
      10A     -1.467885    11A     -1.366075    12A     -1.361957
      13A     -1.116184    14A     -0.961421    15A     -0.865568
      16A     -0.786210    17A     -0.733131    18A     -0.720366
      19A     -0.709177    20A     -0.668859    21A     -0.656397
      22A     -0.646732    23A     -0.608590    24A     -0.602698
      25A     -0.575274    26A     -0.502876    27A     -0.484605
      28A     -0.474251    29A     -0.464620    30A     -0.415218

  @DF-RHF Final Energy:  -453.43423140038851

   => Energetics <=

    Nuclear Repulsion Energy =            358.5281800137781261
    One-Electron Energy =               -1333.0287458822115241
    Two-Electron Energy =                 521.0663344680448290
    Total Energy =                       -453.4342314003885122
  Basis Set: (AUG-CC-PVTZ AUX)
    Blend: AUG-CC-PVTZ-RI
    Molecular point group: c1

    Geometry (in Angstrom), charge = 0, multiplicity = 1:

       Center              X                  Y                   Z               Mass
    ------------   -----------------  -----------------  -----------------  -----------------
         O            1.620887877346    -0.604712899365     1.124599916223    15.994914619570
         O           -2.769922122654    -0.019355899365     0.090187916223    15.994914619570
         O            2.180781877346    -0.106374899365    -1.022082083777    15.994914619570
         O           -0.881153122654    -1.200489899365    -0.352126083777    15.994914619570
         C            0.584009877346     1.263015100635     0.123561916223    12.000000000000
         C           -0.753130122654     1.163083100635     0.086633916223    12.000000000000
         C            1.522864877346     0.108329100635    -0.021149083777    12.000000000000
         C           -1.451277122654    -0.130869999365    -0.082500683777    12.000000000000
         H            1.053476877346     2.239877100635     0.210166916223     1.007825032230
         H           -1.381985122654     2.043644100635     0.168546916223     1.007825032230
         H            2.238843877346    -1.339887899365     0.926295916223     1.007825032230
         H           -3.139077122654    -0.917060899365    -0.043519083777     1.007825032230

  Basis Set: AUG-CC-PVTZ
    Blend: AUG-CC-PVTZ
  Basis Set: (AUG-CC-PVTZ AUX)
    Blend: AUG-CC-PVTZ-JKFIT
	 Reference Energy          =    -453.4342314003885122 [Eh]
	 Singles Energy            =      -0.0000000000000000 [Eh]
	 Same-Spin Energy          =      -0.4340358346282047 [Eh]
	 Opposite-Spin Energy      =      -1.2885266219291538 [Eh]
	 Correlation Energy        =      -1.7225624565573585 [Eh]
	 Total Energy              =    -455.1567938569458533 [Eh]

	 ================> DF-SCS-MP2 Energies <==================
	-----------------------------------------------------------
	 SCS Same-Spin Scale       =       0.3333333333333333 [-]
	 SCS Opposite-Spin Scale   =       1.2000000000000000 [-]
	 SCS Same-Spin Energy      =      -0.1446786115427349 [Eh]
	 SCS Opposite-Spin Energy  =      -1.5462319463149845 [Eh]
	 SCS Correlation Energy    =      -1.6909105578577195 [Eh]
	 SCS Total Energy          =    -455.1251419582462177 [Eh]
	-----------------------------------------------------------

  Dipole Moment: [D]
     X:    -1.5809      Y:     1.1342      Z:     1.6239     Total:     2.5343

*** Psi4 exiting successfully. Buy a developer a beer!
