                               Psi4 1.3.2 release

  ==> Input File <==

--------------------------------------------------------------------------
#psi4
#
memory 32 gb

molecule  {
0 1
  O        1.6287540    -0.6201880     1.1142450
  O       -2.7620560    -0.0348310     0.0798330
  O        2.1886480    -0.1218500    -1.0324370
  O       -0.8732870    -1.2159650    -0.3624810
  C        0.5918760     1.2475400     0.1132070
  C       -0.7452640     1.1476080     0.0762790
  C        1.5307310     0.0928540    -0.0315040
  C       -1.4118519    -0.0188641    -0.0673509
  H        1.0613430     2.2244020     0.1998120
  H       -1.3741190     2.0281690     0.1581920
  H        2.2467100    -1.3553630     0.9159410
  H       -3.1312110    -0.9325360    -0.0538740
units angstrom
no_reorient  #important for SAPT in psi4, default
symmetry c1  #important for SAPT in psi4, default
}

set PROPERTIES_ORIGIN ["COM"]
properties('MP2/aug-cc-pvtz', properties = ['dipole'])
--------------------------------------------------------------------------

    Molecular point group: c1
  Charge       = 0
  Multiplicity = 1
  Basis Set: AUG-CC-PVTZ
    Blend: AUG-CC-PVTZ
  Basis Set: (AUG-CC-PVTZ AUX)
    Blend: AUG-CC-PVTZ-JKFIT

    Orbital Energies [Eh]
    ---------------------

    Doubly Occupied:

       1A    -20.628781     2A    -20.626260     3A    -20.566695
       4A    -20.541868     5A    -11.416338     6A    -11.411868
       7A    -11.322953     8A    -11.279970     9A     -1.473105
      10A     -1.454375    11A     -1.371460    12A     -1.297384
      13A     -1.143831    14A     -0.992954    15A     -0.872741
      16A     -0.793723    17A     -0.745401    18A     -0.714721
      19A     -0.703288    20A     -0.677729    21A     -0.654803
      22A     -0.629621    23A     -0.615275    24A     -0.596712
      25A     -0.559563    26A     -0.498144    27A     -0.483556
      28A     -0.467511    29A     -0.451955    30A     -0.413373

  @DF-RHF Final Energy:  -453.39237239011436

   => Energetics <=

    Nuclear Repulsion Energy =            358.3776306180880624
    One-Electron Energy =               -1332.7280902814518413
    Two-Electron Energy =                 520.9580872732494754
    Total Energy =                       -453.3923723901143603
  Basis Set: (AUG-CC-PVTZ AUX)
    Blend: AUG-CC-PVTZ-RI
    Molecular point group: c1

    Geometry (in Angstrom), charge = 0, multiplicity = 1:

       Center              X                  Y                   Z               Mass
    ------------   -----------------  -----------------  -----------------  -----------------
         O            1.617623451256    -0.617899343287     1.121961748211    15.994914619570
         O           -2.773186548744    -0.032542343287     0.087549748211    15.994914619570
         O            2.177517451256    -0.119561343287    -1.024720251789    15.994914619570
         O           -0.884417548744    -1.213676343287    -0.354764251789    15.994914619570
         C            0.580745451256     1.249828656713     0.120923748211    12.000000000000
         C           -0.756394548744     1.149896656713     0.083995748211    12.000000000000
         C            1.519600451256     0.095142656713    -0.023787251789    12.000000000000
         C           -1.422982448744    -0.016575443287    -0.059634151789    12.000000000000
         H            1.050212451256     2.226690656713     0.207528748211     1.007825032230
         H           -1.385249548744     2.030457656713     0.165908748211     1.007825032230
         H            2.235579451256    -1.353074343287     0.923657748211     1.007825032230
         H           -3.142341548744    -0.930247343287    -0.046157251789     1.007825032230

  Basis Set: AUG-CC-PVTZ
    Blend: AUG-CC-PVTZ
  Basis Set: (AUG-CC-PVTZ AUX)
    Blend: AUG-CC-PVTZ-JKFIT
	 Reference Energy          =    -453.3923723901143603 [Eh]
	 Singles Energy            =      -0.0000000000000000 [Eh]
	 Same-Spin Energy          =      -0.4379436400132399 [Eh]
	 Opposite-Spin Energy      =      -1.2956463382210301 [Eh]
	 Correlation Energy        =      -1.7335899782342701 [Eh]
	 Total Energy              =    -455.1259623683486097 [Eh]

	 ================> DF-SCS-MP2 Energies <==================
	-----------------------------------------------------------
	 SCS Same-Spin Scale       =       0.3333333333333333 [-]
	 SCS Opposite-Spin Scale   =       1.2000000000000000 [-]
	 SCS Same-Spin Energy      =      -0.1459812133377466 [Eh]
	 SCS Opposite-Spin Energy  =      -1.5547756058652362 [Eh]
	 SCS Correlation Energy    =      -1.7007568192029829 [Eh]
	 SCS Total Energy          =    -455.0931292093173397 [Eh]
	-----------------------------------------------------------

  Dipole Moment: [D]
     X:    -1.1571      Y:     1.7131      Z:     1.7233     Total:     2.6913

*** Psi4 exiting successfully. Buy a developer a beer!
