                               Psi4 1.3.2 release

  ==> Input File <==

--------------------------------------------------------------------------
#psi4
#
memory 32 gb

molecule  {
0 1
  O        1.6287540    -0.6201880     1.1142450
  O       -2.7620560    -0.0348310     0.0798330
  O        2.1886480    -0.1218500    -1.0324370
  O       -0.8732870    -1.2159650    -0.3624810
  C        0.5874572     1.2938959     0.1180820
  C       -0.7452640     1.1476080     0.0762790
  C        1.5307310     0.0928540    -0.0315040
  C       -1.4205430    -0.1583360    -0.0935410
  H        1.0613430     2.2244020     0.1998120
  H       -1.3741190     2.0281690     0.1581920
  H        2.2467100    -1.3553630     0.9159410
  H       -3.1312110    -0.9325360    -0.0538740
units angstrom
no_reorient  #important for SAPT in psi4, default
symmetry c1  #important for SAPT in psi4, default
}

set PROPERTIES_ORIGIN ["COM"]
properties('MP2/aug-cc-pvtz', properties = ['dipole'])
--------------------------------------------------------------------------

    Molecular point group: c1
  Charge       = 0
  Multiplicity = 1
  Basis Set: AUG-CC-PVTZ
    Blend: AUG-CC-PVTZ
  Basis Set: (AUG-CC-PVTZ AUX)
    Blend: AUG-CC-PVTZ-JKFIT

    Orbital Energies [Eh]
    ---------------------

    Doubly Occupied:

       1A    -20.631191     2A    -20.623435     3A    -20.565132
       4A    -20.560826     5A    -11.410788     6A    -11.410141
       7A    -11.298299     8A    -11.280371     9A     -1.475305
      10A     -1.467448    11A     -1.371727    12A     -1.366416
      13A     -1.114964    14A     -0.955223    15A     -0.860875
      16A     -0.786555    17A     -0.733725    18A     -0.717811
      19A     -0.709479    20A     -0.668020    21A     -0.658059
      22A     -0.642607    23A     -0.613706    24A     -0.605927
      25A     -0.577055    26A     -0.506445    27A     -0.486750
      28A     -0.476079    29A     -0.464421    30A     -0.416624

  @DF-RHF Final Energy:  -453.43427748598305

   => Energetics <=

    Nuclear Repulsion Energy =            357.9753647932526519
    One-Electron Energy =               -1331.9084753021595589
    Two-Electron Energy =                 520.4988330229238045
    Total Energy =                       -453.4342774859831025
  Basis Set: (AUG-CC-PVTZ AUX)
    Blend: AUG-CC-PVTZ-RI
    Molecular point group: c1

    Geometry (in Angstrom), charge = 0, multiplicity = 1:

       Center              X                  Y                   Z               Mass
    ------------   -----------------  -----------------  -----------------  -----------------
         O            1.618979519699    -0.608267563553     1.124166550267    15.994914619570
         O           -2.771830480301    -0.022910563553     0.089754550267    15.994914619570
         O            2.178873519699    -0.109929563553    -1.022515449733    15.994914619570
         O           -0.883061480301    -1.204044563553    -0.352559449733    15.994914619570
         C            0.577682719699     1.305816336447     0.128003550267    12.000000000000
         C           -0.755038480301     1.159528436447     0.086200550267    12.000000000000
         C            1.520956519699     0.104774436447    -0.021582449733    12.000000000000
         C           -1.430317480301    -0.146415563553    -0.083619449733    12.000000000000
         H            1.051568519699     2.236322436447     0.209733550267     1.007825032230
         H           -1.383893480301     2.040089436447     0.168113550267     1.007825032230
         H            2.236935519699    -1.343442563553     0.925862550267     1.007825032230
         H           -3.140985480301    -0.920615563553    -0.043952449733     1.007825032230

  Basis Set: AUG-CC-PVTZ
    Blend: AUG-CC-PVTZ
  Basis Set: (AUG-CC-PVTZ AUX)
    Blend: AUG-CC-PVTZ-JKFIT
	 Reference Energy          =    -453.4342774859830456 [Eh]
	 Singles Energy            =      -0.0000000000000000 [Eh]
	 Same-Spin Energy          =      -0.4334734086509465 [Eh]
	 Opposite-Spin Energy      =      -1.2880122106266825 [Eh]
	 Correlation Energy        =      -1.7214856192776291 [Eh]
	 Total Energy              =    -455.1557631052606894 [Eh]

	 ================> DF-SCS-MP2 Energies <==================
	-----------------------------------------------------------
	 SCS Same-Spin Scale       =       0.3333333333333333 [-]
	 SCS Opposite-Spin Scale   =       1.2000000000000000 [-]
	 SCS Same-Spin Energy      =      -0.1444911362169822 [Eh]
	 SCS Opposite-Spin Energy  =      -1.5456146527520189 [Eh]
	 SCS Correlation Energy    =      -1.6901057889690012 [Eh]
	 SCS Total Energy          =    -455.1243832749520379 [Eh]
	-----------------------------------------------------------

  Dipole Moment: [D]
     X:    -1.3614      Y:     1.0590      Z:     1.5942     Total:     2.3487

*** Psi4 exiting successfully. Buy a developer a beer!
