                               Psi4 1.3.2 release

  ==> Input File <==

--------------------------------------------------------------------------
#psi4
#
memory 32 gb

molecule  {
0 1
  O        1.6287540    -0.6201880     1.1142450
  O       -2.7620560    -0.0348310     0.0798330
  O        2.1886480    -0.1218500    -1.0324370
  O       -0.8732870    -1.2159650    -0.3624810
  C        0.5918760     1.2475400     0.1132070
  C       -0.7452640     1.1476080     0.0762790
  C        1.5307310     0.0928540    -0.0315040
  C       -1.3741970    -0.1811209    -0.0947565
  H        1.0613430     2.2244020     0.1998120
  H       -1.3741190     2.0281690     0.1581920
  H        2.2467100    -1.3553630     0.9159410
  H       -3.1312110    -0.9325360    -0.0538740
units angstrom
no_reorient  #important for SAPT in psi4, default
symmetry c1  #important for SAPT in psi4, default
}

set PROPERTIES_ORIGIN ["COM"]
properties('MP2/aug-cc-pvtz', properties = ['dipole'])
--------------------------------------------------------------------------

    Molecular point group: c1
  Charge       = 0
  Multiplicity = 1
  Basis Set: AUG-CC-PVTZ
    Blend: AUG-CC-PVTZ
  Basis Set: (AUG-CC-PVTZ AUX)
    Blend: AUG-CC-PVTZ-JKFIT

    Orbital Energies [Eh]
    ---------------------

    Doubly Occupied:

       1A    -20.626213     2A    -20.616133     3A    -20.573638
       4A    -20.563767     5A    -11.411296     6A    -11.406948
       7A    -11.299123     8A    -11.281759     9A     -1.475680
      10A     -1.469454    11A     -1.377200    12A     -1.369767
      13A     -1.119594    14A     -0.956376    15A     -0.858066
      16A     -0.776299    17A     -0.736709    18A     -0.719014
      19A     -0.712714    20A     -0.663634    21A     -0.657202
      22A     -0.637726    23A     -0.618433    24A     -0.605097
      25A     -0.583774    26A     -0.511382    27A     -0.491198
      28A     -0.479140    29A     -0.469140    30A     -0.419121

  @DF-RHF Final Energy:  -453.43439485403184

   => Energetics <=

    Nuclear Repulsion Energy =            359.1125565477394730
    One-Electron Energy =               -1334.1227124274410016
    Two-Electron Energy =                 521.5757610256696353
    Total Energy =                       -453.4343948540318934
  Basis Set: (AUG-CC-PVTZ AUX)
    Blend: AUG-CC-PVTZ-RI
    Molecular point group: c1

    Geometry (in Angstrom), charge = 0, multiplicity = 1:

       Center              X                  Y                   Z               Mass
    ------------   -----------------  -----------------  -----------------  -----------------
         O            1.613728484734    -0.601115742639     1.124796542475    15.994914619570
         O           -2.777081515266    -0.015758742639     0.090384542475    15.994914619570
         O            2.173622484734    -0.102777742639    -1.021885457525    15.994914619570
         O           -0.888312515266    -1.196892742639    -0.351929457525    15.994914619570
         C            0.576850484734     1.266612257361     0.123758542475    12.000000000000
         C           -0.760289515266     1.166680257361     0.086830542475    12.000000000000
         C            1.515705484734     0.111926257361    -0.020952457525    12.000000000000
         C           -1.389222515266    -0.162048642639    -0.084204957525    12.000000000000
         H            1.046317484734     2.243474257361     0.210363542475     1.007825032230
         H           -1.389144515266     2.047241257361     0.168743542475     1.007825032230
         H            2.231684484734    -1.336290742639     0.926492542475     1.007825032230
         H           -3.146236515266    -0.913463742639    -0.043322457525     1.007825032230

  Basis Set: AUG-CC-PVTZ
    Blend: AUG-CC-PVTZ
  Basis Set: (AUG-CC-PVTZ AUX)
    Blend: AUG-CC-PVTZ-JKFIT
	 Reference Energy          =    -453.4343948540318365 [Eh]
	 Singles Energy            =      -0.0000000000000000 [Eh]
	 Same-Spin Energy          =      -0.4333891087924083 [Eh]
	 Opposite-Spin Energy      =      -1.2875769196497446 [Eh]
	 Correlation Energy        =      -1.7209660284421529 [Eh]
	 Total Energy              =    -455.1553608824739854 [Eh]

	 ================> DF-SCS-MP2 Energies <==================
	-----------------------------------------------------------
	 SCS Same-Spin Scale       =       0.3333333333333333 [-]
	 SCS Opposite-Spin Scale   =       1.2000000000000000 [-]
	 SCS Same-Spin Energy      =      -0.1444630362641361 [Eh]
	 SCS Opposite-Spin Energy  =      -1.5450923035796935 [Eh]
	 SCS Correlation Energy    =      -1.6895553398438297 [Eh]
	 SCS Total Energy          =    -455.1239501938756575 [Eh]
	-----------------------------------------------------------

  Dipole Moment: [D]
     X:    -0.9362      Y:     0.9450      Z:     1.5344     Total:     2.0308

*** Psi4 exiting successfully. Buy a developer a beer!
