                               Psi4 1.4a3.dev225

  ==> Input File <==

--------------------------------------------------------------------------
#psi4
#
memory 32 gb

molecule  {
0 1
  O        1.6292290    -0.6199230     1.1141820
  O       -2.7620640    -0.0349680     0.0794940
  O        2.1880480    -0.1219360    -1.0328490
  O       -0.8730120    -1.2160300    -0.3618370
  C        0.5917800     1.2475860     0.1132420
  C       -0.7453650     1.1476220     0.0764550
  C        1.5305940     0.0928630    -0.0316350
  C       -1.4402241    -0.1565490    -0.0907695
  H        1.0613100     2.2244250     0.1997410
  H       -1.3742940     2.0281270     0.1583660
  H        2.2470800    -1.3551440     0.9157090
  H       -3.1309400    -0.9327820    -0.0542280
units angstrom
no_reorient  #important for SAPT in psi4, default
symmetry c1  #important for SAPT in psi4, default
}

set PROPERTIES_ORIGIN ["COM"]
properties('MP2/aug-cc-pvtz', properties = ['dipole'])
--------------------------------------------------------------------------

    Molecular point group: c1
  Charge       = 0
  Multiplicity = 1
  Basis Set: AUG-CC-PVTZ
    Blend: AUG-CC-PVTZ
  Basis Set: (AUG-CC-PVTZ AUX)
    Blend: AUG-CC-PVTZ-JKFIT

    Orbital Energies [Eh]
    ---------------------

    Doubly Occupied:

       1A    -20.636455     2A    -20.622358     3A    -20.561414
       4A    -20.560058     5A    -11.410143     6A    -11.408096
       7A    -11.298032     8A    -11.280577     9A     -1.481561
      10A     -1.467892    11A     -1.367694    12A     -1.366059
      13A     -1.115000    14A     -0.959335    15A     -0.864535
      16A     -0.785071    17A     -0.732876    18A     -0.720989
      19A     -0.709184    20A     -0.668195    21A     -0.656855
      22A     -0.646784    23A     -0.609072    24A     -0.603194
      25A     -0.576170    26A     -0.504613    27A     -0.485397
      28A     -0.475009    29A     -0.464893    30A     -0.415121

  @DF-RHF Final Energy:  -453.43548675234683

   => Energetics <=

    Nuclear Repulsion Energy =            358.5877066484429747
    One-Electron Energy =               -1333.1411257452959944
    Two-Electron Energy =                 521.1179323445062437
    Total Energy =                       -453.4354867523468329
  Basis Set: (AUG-CC-PVTZ AUX)
    Blend: AUG-CC-PVTZ-RI
    Molecular point group: c1

    Geometry (in Angstrom), charge = 0, multiplicity = 1:

       Center              X                  Y                   Z               Mass
    ------------   -----------------  -----------------  -----------------  -----------------
         O            1.621044437894    -0.603395989748     1.124340492667    15.994914619570
         O           -2.770248562106    -0.018440989748     0.089652492667    15.994914619570
         O            2.179863437894    -0.105408989748    -1.022690507333    15.994914619570
         O           -0.881196562106    -1.199502989748    -0.351678507333    15.994914619570
         C            0.583595437894     1.264113010252     0.123400492667    12.000000000000
         C           -0.753549562106     1.164149010252     0.086613492667    12.000000000000
         C            1.522409437894     0.109390010252    -0.021476507333    12.000000000000
         C           -1.448408662106    -0.140021989748    -0.080611007333    12.000000000000
         H            1.053125437894     2.240952010252     0.209899492667     1.007825032230
         H           -1.382478562106     2.044654010252     0.168524492667     1.007825032230
         H            2.238895437894    -1.338616989748     0.925867492667     1.007825032230
         H           -3.139124562106    -0.916254989748    -0.044069507333     1.007825032230

  Basis Set: AUG-CC-PVTZ
    Blend: AUG-CC-PVTZ
  Basis Set: (AUG-CC-PVTZ AUX)
    Blend: AUG-CC-PVTZ-JKFIT
	 Reference Energy          =    -453.4354867523468329 [Eh]
	 Singles Energy            =      -0.0000000000000000 [Eh]
	 Same-Spin Energy          =      -0.4338181310730381 [Eh]
	 Opposite-Spin Energy      =      -1.2881393704507027 [Eh]
	 Correlation Energy        =      -1.7219575015237409 [Eh]
	 Total Energy              =    -455.1574442538705512 [Eh]

	 ================> DF-SCS-MP2 Energies <==================
	-----------------------------------------------------------
	 SCS Same-Spin Scale       =       0.3333333333333333 [-]
	 SCS Opposite-Spin Scale   =       1.2000000000000000 [-]
	 SCS Same-Spin Energy      =      -0.1446060436910127 [Eh]
	 SCS Opposite-Spin Energy  =      -1.5457672445408432 [Eh]
	 SCS Correlation Energy    =      -1.6903732882318558 [Eh]
	 SCS Total Energy          =    -455.1258600405786865 [Eh]
	-----------------------------------------------------------

  Dipole Moment: [D]
     X:    -1.5608      Y:     1.0838      Z:     1.6155     Total:     2.4941

*** Psi4 exiting successfully. Buy a developer a beer!
