                               Psi4 1.4a3.dev225

  ==> Input File <==

--------------------------------------------------------------------------
#psi4
#
memory 32 gb

molecule  {
0 1
  O        1.6292290    -0.6199230     1.1141820
  O       -2.7620640    -0.0349680     0.0794940
  O        2.1880480    -0.1219360    -1.0328490
  O       -0.8730120    -1.2160300    -0.3618370
  C        0.5917800     1.2475860     0.1132420
  C       -0.7453650     1.1476220     0.0764550
  C        1.5305940     0.0928630    -0.0316350
  C       -1.4113465    -0.1407167    -0.0910197
  H        1.0613100     2.2244250     0.1997410
  H       -1.3742940     2.0281270     0.1583660
  H        2.2470800    -1.3551440     0.9157090
  H       -3.1309400    -0.9327820    -0.0542280
units angstrom
no_reorient  #important for SAPT in psi4, default
symmetry c1  #important for SAPT in psi4, default
}

set PROPERTIES_ORIGIN ["COM"]
properties('MP2/aug-cc-pvtz', properties = ['dipole'])
--------------------------------------------------------------------------

    Molecular point group: c1
  Charge       = 0
  Multiplicity = 1
  Basis Set: AUG-CC-PVTZ
    Blend: AUG-CC-PVTZ
  Basis Set: (AUG-CC-PVTZ AUX)
    Blend: AUG-CC-PVTZ-JKFIT

    Orbital Energies [Eh]
    ---------------------

    Doubly Occupied:

       1A    -20.628134     2A    -20.624304     3A    -20.562669
       4A    -20.562385     5A    -11.410540     6A    -11.409777
       7A    -11.302406     8A    -11.281305     9A     -1.471591
      10A     -1.466722    11A     -1.368204    12A     -1.362922
      13A     -1.121429    14A     -0.963838    15A     -0.863494
      16A     -0.782695    17A     -0.736048    18A     -0.715752
      19A     -0.711010    20A     -0.667387    21A     -0.655708
      22A     -0.638468    23A     -0.611132    24A     -0.605202
      25A     -0.579037    26A     -0.504281    27A     -0.486750
      28A     -0.475904    29A     -0.467107    30A     -0.417825

  @DF-RHF Final Energy:  -453.43397703126311

   => Energetics <=

    Nuclear Repulsion Energy =            358.7049545142028819
    One-Electron Energy =               -1333.3698149713991370
    Two-Electron Energy =                 521.2308834259331434
    Total Energy =                       -453.4339770312631117
  Basis Set: (AUG-CC-PVTZ AUX)
    Blend: AUG-CC-PVTZ-RI
    Molecular point group: c1

    Geometry (in Angstrom), charge = 0, multiplicity = 1:

       Center              X                  Y                   Z               Mass
    ------------   -----------------  -----------------  -----------------  -----------------
         O            1.618057382152    -0.605033659174     1.124366372980    15.994914619570
         O           -2.773235617848    -0.020078659174     0.089678372980    15.994914619570
         O            2.176876382152    -0.107046659174    -1.022664627020    15.994914619570
         O           -0.884183617848    -1.201140659174    -0.351652627020    15.994914619570
         C            0.580608382152     1.262475340826     0.123426372980    12.000000000000
         C           -0.756536617848     1.162511340826     0.086639372980    12.000000000000
         C            1.519422382152     0.107752340826    -0.021450627020    12.000000000000
         C           -1.422518117848    -0.125827359174    -0.080835327020    12.000000000000
         H            1.050138382152     2.239314340826     0.209925372980     1.007825032230
         H           -1.385465617848     2.043016340826     0.168550372980     1.007825032230
         H            2.235908382152    -1.340254659174     0.925893372980     1.007825032230
         H           -3.142111617848    -0.917892659174    -0.044043627020     1.007825032230

  Basis Set: AUG-CC-PVTZ
    Blend: AUG-CC-PVTZ
  Basis Set: (AUG-CC-PVTZ AUX)
    Blend: AUG-CC-PVTZ-JKFIT
	 Reference Energy          =    -453.4339770312631117 [Eh]
	 Singles Energy            =      -0.0000000000000000 [Eh]
	 Same-Spin Energy          =      -0.4342466509006594 [Eh]
	 Opposite-Spin Energy      =      -1.2890213882939057 [Eh]
	 Correlation Energy        =      -1.7232680391945649 [Eh]
	 Total Energy              =    -455.1572450704576909 [Eh]

	 ================> DF-SCS-MP2 Energies <==================
	-----------------------------------------------------------
	 SCS Same-Spin Scale       =       0.3333333333333333 [-]
	 SCS Opposite-Spin Scale   =       1.2000000000000000 [-]
	 SCS Same-Spin Energy      =      -0.1447488836335531 [Eh]
	 SCS Opposite-Spin Energy  =      -1.5468256659526867 [Eh]
	 SCS Correlation Energy    =      -1.6915745495862398 [Eh]
	 SCS Total Energy          =    -455.1255515808493328 [Eh]
	-----------------------------------------------------------

  Dipole Moment: [D]
     X:    -1.2701      Y:     1.1617      Z:     1.6048     Total:     2.3534

*** Psi4 exiting successfully. Buy a developer a beer!
