                               Psi4 1.3.2 release

  ==> Input File <==

--------------------------------------------------------------------------
#psi4
#
memory 32 gb

molecule  {
0 1
  O        1.6287540    -0.6201880     1.1142450
  O       -2.7620560    -0.0348310     0.0798330
  O        2.1886480    -0.1218500    -1.0324370
  O       -0.8732870    -1.2159650    -0.3624810
  C        0.5918760     1.2475400     0.1132070
  C       -0.7452640     1.1476080     0.0762790
  C        1.5307310     0.0928540    -0.0315040
  C       -1.4205430    -0.1583360    -0.0935410
  H        1.0181645     2.1345567     0.1918466
  H       -1.3741190     2.0281690     0.1581920
  H        2.2467100    -1.3553630     0.9159410
  H       -3.1312110    -0.9325360    -0.0538740
units angstrom
no_reorient  #important for SAPT in psi4, default
symmetry c1  #important for SAPT in psi4, default
}

set PROPERTIES_ORIGIN ["COM"]
properties('MP2/aug-cc-pvtz', properties = ['dipole'])
--------------------------------------------------------------------------

    Molecular point group: c1
  Charge       = 0
  Multiplicity = 1
  Basis Set: AUG-CC-PVTZ
    Blend: AUG-CC-PVTZ
  Basis Set: (AUG-CC-PVTZ AUX)
    Blend: AUG-CC-PVTZ-JKFIT

    Orbital Energies [Eh]
    ---------------------

    Doubly Occupied:

       1A    -20.630446     2A    -20.623418     3A    -20.564361
       4A    -20.561328     5A    -11.409151     6A    -11.408715
       7A    -11.288243     8A    -11.280878     9A     -1.474883
      10A     -1.468447    11A     -1.371127    12A     -1.367245
      13A     -1.121301    14A     -0.963472    15A     -0.864502
      16A     -0.792364    17A     -0.737199    18A     -0.718750
      19A     -0.710279    20A     -0.670373    21A     -0.661593
      22A     -0.642235    23A     -0.614021    24A     -0.605620
      25A     -0.582480    26A     -0.506415    27A     -0.487098
      28A     -0.476342    29A     -0.467115    30A     -0.416587

  @DF-RHF Final Energy:  -453.43018889926725

   => Energetics <=

    Nuclear Repulsion Energy =            359.2618031279385491
    One-Electron Energy =               -1334.4120070451754145
    Two-Electron Energy =                 521.7200150179696720
    Total Energy =                       -453.4301888992672502
  Basis Set: (AUG-CC-PVTZ AUX)
    Blend: AUG-CC-PVTZ-RI
    Molecular point group: c1

    Geometry (in Angstrom), charge = 0, multiplicity = 1:

       Center              X                  Y                   Z               Mass
    ------------   -----------------  -----------------  -----------------  -----------------
         O            1.618897551349    -0.602692063185     1.124740011001    15.994914619570
         O           -2.771912448651    -0.017335063185     0.090328011001    15.994914619570
         O            2.178791551349    -0.104354063185    -1.021941988999    15.994914619570
         O           -0.883143448651    -1.198469063185    -0.351985988999    15.994914619570
         C            0.582019551349     1.265035936815     0.123702011001    12.000000000000
         C           -0.755120448651     1.165103936815     0.086774011001    12.000000000000
         C            1.520874551349     0.110349936815    -0.021008988999    12.000000000000
         C           -1.430399448651    -0.140840063185    -0.083045988999    12.000000000000
         H            1.008308051349     2.152052636815     0.202341611001     1.007825032230
         H           -1.383975448651     2.045664936815     0.168687011001     1.007825032230
         H            2.236853551349    -1.337867063185     0.926436011001     1.007825032230
         H           -3.141067448651    -0.915040063185    -0.043378988999     1.007825032230

  Basis Set: AUG-CC-PVTZ
    Blend: AUG-CC-PVTZ
  Basis Set: (AUG-CC-PVTZ AUX)
    Blend: AUG-CC-PVTZ-JKFIT
	 Reference Energy          =    -453.4301888992672502 [Eh]
	 Singles Energy            =      -0.0000000000000000 [Eh]
	 Same-Spin Energy          =      -0.4336404854745769 [Eh]
	 Opposite-Spin Energy      =      -1.2877806993363465 [Eh]
	 Correlation Energy        =      -1.7214211848109233 [Eh]
	 Total Energy              =    -455.1516100840781860 [Eh]

	 ================> DF-SCS-MP2 Energies <==================
	-----------------------------------------------------------
	 SCS Same-Spin Scale       =       0.3333333333333333 [-]
	 SCS Opposite-Spin Scale   =       1.2000000000000000 [-]
	 SCS Same-Spin Energy      =      -0.1445468284915256 [Eh]
	 SCS Opposite-Spin Energy  =      -1.5453368392036158 [Eh]
	 SCS Correlation Energy    =      -1.6898836676951414 [Eh]
	 SCS Total Energy          =    -455.1200725669623921 [Eh]
	-----------------------------------------------------------

  Dipole Moment: [D]
     X:    -1.3858      Y:     1.0550      Z:     1.5936     Total:     2.3607

*** Psi4 exiting successfully. Buy a developer a beer!
