                               Psi4 1.3.2 release

  ==> Input File <==

--------------------------------------------------------------------------
#psi4
#
memory 32 gb

molecule  {
0 1
  O        1.6287540    -0.6201880     1.1142450
  O       -2.7620560    -0.0348310     0.0798330
  O        2.1886480    -0.1218500    -1.0324370
  O       -0.8732870    -1.2159650    -0.3624810
  C        0.5918760     1.2475400     0.1132070
  C       -0.7452640     1.1476080     0.0762790
  C        1.5307310     0.0928540    -0.0315040
  C       -1.4131066    -0.0654109    -0.0762747
  H        1.0613430     2.2244020     0.1998120
  H       -1.3741190     2.0281690     0.1581920
  H        2.2467100    -1.3553630     0.9159410
  H       -3.1312110    -0.9325360    -0.0538740
units angstrom
no_reorient  #important for SAPT in psi4, default
symmetry c1  #important for SAPT in psi4, default
}

set PROPERTIES_ORIGIN ["COM"]
properties('MP2/aug-cc-pvtz', properties = ['dipole'])
--------------------------------------------------------------------------

    Molecular point group: c1
  Charge       = 0
  Multiplicity = 1
  Basis Set: AUG-CC-PVTZ
    Blend: AUG-CC-PVTZ
  Basis Set: (AUG-CC-PVTZ AUX)
    Blend: AUG-CC-PVTZ-JKFIT

    Orbital Energies [Eh]
    ---------------------

    Doubly Occupied:

       1A    -20.629424     2A    -20.625266     3A    -20.564751
       4A    -20.549909     5A    -11.413829     6A    -11.411809
       7A    -11.314456     8A    -11.280993     9A     -1.471906
      10A     -1.459394    11A     -1.369949    12A     -1.322017
      13A     -1.134799    14A     -0.981626    15A     -0.869498
      16A     -0.789415    17A     -0.741427    18A     -0.713370
      19A     -0.706827    20A     -0.673625    21A     -0.654390
      22A     -0.632804    23A     -0.612731    24A     -0.598652
      25A     -0.571056    26A     -0.498489    27A     -0.483224
      28A     -0.470126    29A     -0.460343    30A     -0.417051

  @DF-RHF Final Energy:  -453.41363832325288

   => Energetics <=

    Nuclear Repulsion Energy =            358.4650808543925677
    One-Electron Energy =               -1332.9111256619446522
    Two-Electron Energy =                 521.0324064842991447
    Total Energy =                       -453.4136383232529397
  Basis Set: (AUG-CC-PVTZ AUX)
    Blend: AUG-CC-PVTZ-RI
    Molecular point group: c1

    Geometry (in Angstrom), charge = 0, multiplicity = 1:

       Center              X                  Y                   Z               Mass
    ------------   -----------------  -----------------  -----------------  -----------------
         O            1.617753235547    -0.613084611931     1.122884812733    15.994914619570
         O           -2.773056764453    -0.027727611931     0.088472812733    15.994914619570
         O            2.177647235547    -0.114746611931    -1.023797187267    15.994914619570
         O           -0.884287764453    -1.208861611931    -0.353841187267    15.994914619570
         C            0.580875235547     1.254643388069     0.121846812733    12.000000000000
         C           -0.756264764453     1.154711388069     0.084918812733    12.000000000000
         C            1.519730235547     0.099957388069    -0.022864187267    12.000000000000
         C           -1.424107364453    -0.058307511931    -0.067634887267    12.000000000000
         H            1.050342235547     2.231505388069     0.208451812733     1.007825032230
         H           -1.385119764453     2.035272388069     0.166831812733     1.007825032230
         H            2.235709235547    -1.348259611931     0.924580812733     1.007825032230
         H           -3.142211764453    -0.925432611931    -0.045234187267     1.007825032230

  Basis Set: AUG-CC-PVTZ
    Blend: AUG-CC-PVTZ
  Basis Set: (AUG-CC-PVTZ AUX)
    Blend: AUG-CC-PVTZ-JKFIT
	 Reference Energy          =    -453.4136383232528829 [Eh]
	 Singles Energy            =      -0.0000000000000000 [Eh]
	 Same-Spin Energy          =      -0.4364115484281844 [Eh]
	 Opposite-Spin Energy      =      -1.2929078794497566 [Eh]
	 Correlation Energy        =      -1.7293194278779409 [Eh]
	 Total Energy              =    -455.1429577511308366 [Eh]

	 ================> DF-SCS-MP2 Energies <==================
	-----------------------------------------------------------
	 SCS Same-Spin Scale       =       0.3333333333333333 [-]
	 SCS Opposite-Spin Scale   =       1.2000000000000000 [-]
	 SCS Same-Spin Energy      =      -0.1454705161427281 [Eh]
	 SCS Opposite-Spin Energy  =      -1.5514894553397078 [Eh]
	 SCS Correlation Energy    =      -1.6969599714824359 [Eh]
	 SCS Total Energy          =    -455.1105982947353255 [Eh]
	-----------------------------------------------------------

  Dipole Moment: [D]
     X:    -1.2202      Y:     1.5203      Z:     1.6842     Total:     2.5762

*** Psi4 exiting successfully. Buy a developer a beer!
