                               Psi4 1.3.2 release

  ==> Input File <==

--------------------------------------------------------------------------
#psi4
#
memory 32 gb

molecule  {
0 1
  O        1.6287540    -0.6201880     1.1142450
  O       -2.7620560    -0.0348310     0.0798330
  O        2.1886480    -0.1218500    -1.0324370
  O       -0.8732870    -1.2159650    -0.3624810
  C        0.5737558     1.3860168     0.1276732
  C       -0.7452640     1.1476080     0.0762790
  C        1.5307310     0.0928540    -0.0315040
  C       -1.4205430    -0.1583360    -0.0935410
  H        1.0613430     2.2244020     0.1998120
  H       -1.3741190     2.0281690     0.1581920
  H        2.2467100    -1.3553630     0.9159410
  H       -3.1312110    -0.9325360    -0.0538740
units angstrom
no_reorient  #important for SAPT in psi4, default
symmetry c1  #important for SAPT in psi4, default
}

set PROPERTIES_ORIGIN ["COM"]
properties('MP2/aug-cc-pvtz', properties = ['dipole'])
--------------------------------------------------------------------------

    Molecular point group: c1
  Charge       = 0
  Multiplicity = 1
  Basis Set: AUG-CC-PVTZ
    Blend: AUG-CC-PVTZ
  Basis Set: (AUG-CC-PVTZ AUX)
    Blend: AUG-CC-PVTZ-JKFIT

    Orbital Energies [Eh]
    ---------------------

    Doubly Occupied:

       1A    -20.632756     2A    -20.622878     3A    -20.566982
       4A    -20.559585     5A    -11.413941     6A    -11.410908
       7A    -11.297801     8A    -11.280692     9A     -1.476488
      10A     -1.465053    11A     -1.373102    12A     -1.364448
      13A     -1.111845    14A     -0.951299    15A     -0.856154
      16A     -0.798287    17A     -0.731952    18A     -0.715992
      19A     -0.707613    20A     -0.679827    21A     -0.654466
      22A     -0.643078    23A     -0.618694    24A     -0.608184
      25A     -0.567311    26A     -0.506731    27A     -0.485983
      28A     -0.477020    29A     -0.456176    30A     -0.417223

  @DF-RHF Final Energy:  -453.41524790519946

   => Energetics <=

    Nuclear Repulsion Energy =            356.5768718782305768
    One-Electron Energy =               -1329.0793082738132398
    Two-Electron Energy =                 519.0871884903832552
    Total Energy =                       -453.4152479051994078
  Basis Set: (AUG-CC-PVTZ AUX)
    Blend: AUG-CC-PVTZ-RI
    Molecular point group: c1

    Geometry (in Angstrom), charge = 0, multiplicity = 1:

       Center              X                  Y                   Z               Mass
    ------------   -----------------  -----------------  -----------------  -----------------
         O            1.620396772017    -0.617796411631     1.123174450888    15.994914619570
         O           -2.770413227983    -0.032439411631     0.088762450888    15.994914619570
         O            2.180290772017    -0.119458411631    -1.023507549112    15.994914619570
         O           -0.881644227983    -1.213573411631    -0.353551549112    15.994914619570
         C            0.565398572017     1.388408388369     0.136602650888    12.000000000000
         C           -0.753621227983     1.149999588369     0.085208450888    12.000000000000
         C            1.522373772017     0.095245588369    -0.022574549112    12.000000000000
         C           -1.428900227983    -0.155944411631    -0.084611549112    12.000000000000
         H            1.052985772017     2.226793588369     0.208741450888     1.007825032230
         H           -1.382476227983     2.030560588369     0.167121450888     1.007825032230
         H            2.238352772017    -1.352971411631     0.924870450888     1.007825032230
         H           -3.139568227983    -0.930144411631    -0.044944549112     1.007825032230

  Basis Set: AUG-CC-PVTZ
    Blend: AUG-CC-PVTZ
  Basis Set: (AUG-CC-PVTZ AUX)
    Blend: AUG-CC-PVTZ-JKFIT
	 Reference Energy          =    -453.4152479051994646 [Eh]
	 Singles Energy            =      -0.0000000000000000 [Eh]
	 Same-Spin Energy          =      -0.4333082593575780 [Eh]
	 Opposite-Spin Energy      =      -1.2887084457421043 [Eh]
	 Correlation Energy        =      -1.7220167050996822 [Eh]
	 Total Energy              =    -455.1372646102991553 [Eh]

	 ================> DF-SCS-MP2 Energies <==================
	-----------------------------------------------------------
	 SCS Same-Spin Scale       =       0.3333333333333333 [-]
	 SCS Opposite-Spin Scale   =       1.2000000000000000 [-]
	 SCS Same-Spin Energy      =      -0.1444360864525260 [Eh]
	 SCS Opposite-Spin Energy  =      -1.5464501348905251 [Eh]
	 SCS Correlation Energy    =      -1.6908862213430511 [Eh]
	 SCS Total Energy          =    -455.1061341265425426 [Eh]
	-----------------------------------------------------------

  Dipole Moment: [D]
     X:    -1.3633      Y:     1.0374      Z:     1.5900     Total:     2.3372

*** Psi4 exiting successfully. Buy a developer a beer!
