                               Psi4 1.3.2 release

  ==> Input File <==

--------------------------------------------------------------------------
#psi4
#
memory 32 gb

molecule  {
0 1
  O        1.6287540    -0.6201880     1.1142450
  O       -2.7620560    -0.0348310     0.0798330
  O        2.1886480    -0.1218500    -1.0324370
  O       -0.8732870    -1.2159650    -0.3624810
  C        0.5918760     1.2475400     0.1132070
  C       -0.7452640     1.1476080     0.0762790
  C        1.5307310     0.0928540    -0.0315040
  C       -1.3217786    -0.1674286    -0.1063051
  H        1.0613430     2.2244020     0.1998120
  H       -1.3741190     2.0281690     0.1581920
  H        2.2467100    -1.3553630     0.9159410
  H       -3.1312110    -0.9325360    -0.0538740
units angstrom
no_reorient  #important for SAPT in psi4, default
symmetry c1  #important for SAPT in psi4, default
}

set PROPERTIES_ORIGIN ["COM"]
properties('MP2/aug-cc-pvtz', properties = ['dipole'])
--------------------------------------------------------------------------

    Molecular point group: c1
  Charge       = 0
  Multiplicity = 1
  Basis Set: AUG-CC-PVTZ
    Blend: AUG-CC-PVTZ
  Basis Set: (AUG-CC-PVTZ AUX)
    Blend: AUG-CC-PVTZ-JKFIT

    Orbital Energies [Eh]
    ---------------------

    Doubly Occupied:

       1A    -20.629738     2A    -20.599814     3A    -20.578624
       4A    -20.567745     5A    -11.415262     6A    -11.406515
       7A    -11.304914     8A    -11.283781     9A     -1.477966
      10A     -1.470210    11A     -1.373517    12A     -1.359399
      13A     -1.129296    14A     -0.962268    15A     -0.858454
      16A     -0.772555    17A     -0.740176    18A     -0.718068
      19A     -0.715439    20A     -0.660622    21A     -0.655573
      22A     -0.631739    23A     -0.623532    24A     -0.605522
      25A     -0.588024    26A     -0.507206    27A     -0.493657
      28A     -0.480432    29A     -0.470429    30A     -0.424022

  @DF-RHF Final Energy:  -453.42575009241983

   => Energetics <=

    Nuclear Repulsion Energy =            359.4412916965692375
    One-Electron Energy =               -1334.7250913770626539
    Two-Electron Energy =                 521.8580495880735270
    Total Energy =                       -453.4257500924198894
  Basis Set: (AUG-CC-PVTZ AUX)
    Blend: AUG-CC-PVTZ-RI
    Molecular point group: c1

    Geometry (in Angstrom), charge = 0, multiplicity = 1:

       Center              X                  Y                   Z               Mass
    ------------   -----------------  -----------------  -----------------  -----------------
         O            1.608306403858    -0.602532053667     1.125991112382    15.994914619570
         O           -2.782503596142    -0.017175053667     0.091579112382    15.994914619570
         O            2.168200403858    -0.104194053667    -1.020690887618    15.994914619570
         O           -0.893734596142    -1.198309053667    -0.350734887618    15.994914619570
         C            0.571428403858     1.265195946333     0.124953112382    12.000000000000
         C           -0.765711596142     1.165263946333     0.088025112382    12.000000000000
         C            1.510283403858     0.110509946333    -0.019757887618    12.000000000000
         C           -1.342226196142    -0.149772653667    -0.094558987618    12.000000000000
         H            1.040895403858     2.242057946333     0.211558112382     1.007825032230
         H           -1.394566596142     2.045824946333     0.169938112382     1.007825032230
         H            2.226262403858    -1.337707053667     0.927687112382     1.007825032230
         H           -3.151658596142    -0.914880053667    -0.042127887618     1.007825032230

  Basis Set: AUG-CC-PVTZ
    Blend: AUG-CC-PVTZ
  Basis Set: (AUG-CC-PVTZ AUX)
    Blend: AUG-CC-PVTZ-JKFIT
	 Reference Energy          =    -453.4257500924198325 [Eh]
	 Singles Energy            =      -0.0000000000000000 [Eh]
	 Same-Spin Energy          =      -0.4339847323671483 [Eh]
	 Opposite-Spin Energy      =      -1.2888202845452787 [Eh]
	 Correlation Energy        =      -1.7228050169124272 [Eh]
	 Total Energy              =    -455.1485551093322783 [Eh]

	 ================> DF-SCS-MP2 Energies <==================
	-----------------------------------------------------------
	 SCS Same-Spin Scale       =       0.3333333333333333 [-]
	 SCS Opposite-Spin Scale   =       1.2000000000000000 [-]
	 SCS Same-Spin Energy      =      -0.1446615774557161 [Eh]
	 SCS Opposite-Spin Energy  =      -1.5465843414543345 [Eh]
	 SCS Correlation Energy    =      -1.6912459189100506 [Eh]
	 SCS Total Energy          =    -455.1169960113298885 [Eh]
	-----------------------------------------------------------

  Dipole Moment: [D]
     X:    -0.3922      Y:     1.0128      Z:     1.4851     Total:     1.8399

*** Psi4 exiting successfully. Buy a developer a beer!
