                               Psi4 1.4a3.dev225

  ==> Input File <==

--------------------------------------------------------------------------
#psi4
#
memory 32 gb

molecule  {
0 1
  O        1.6292290    -0.6199230     1.1141820
  O       -2.7620640    -0.0349680     0.0794940
  O        2.1880480    -0.1219360    -1.0328490
  O       -0.8730120    -1.2160300    -0.3618370
  C        0.5917800     1.2475860     0.1132420
  C       -0.7453650     1.1476220     0.0764550
  C        1.5305940     0.0928630    -0.0316350
  C       -1.4295935    -0.1760153    -0.0956083
  H        1.0613100     2.2244250     0.1997410
  H       -1.3742940     2.0281270     0.1583660
  H        2.2470800    -1.3551440     0.9157090
  H       -3.1309400    -0.9327820    -0.0542280
units angstrom
no_reorient  #important for SAPT in psi4, default
symmetry c1  #important for SAPT in psi4, default
}

set PROPERTIES_ORIGIN ["COM"]
properties('MP2/aug-cc-pvtz', properties = ['dipole'])
--------------------------------------------------------------------------

    Molecular point group: c1
  Charge       = 0
  Multiplicity = 1
  Basis Set: AUG-CC-PVTZ
    Blend: AUG-CC-PVTZ
  Basis Set: (AUG-CC-PVTZ AUX)
    Blend: AUG-CC-PVTZ-JKFIT

    Orbital Energies [Eh]
    ---------------------

    Doubly Occupied:

       1A    -20.632885     2A    -20.622819     3A    -20.565995
       4A    -20.560226     5A    -11.409009     6A    -11.407989
       7A    -11.295928     8A    -11.280335     9A     -1.480478
      10A     -1.468122    11A     -1.379416    12A     -1.366343
      13A     -1.113172    14A     -0.955201    15A     -0.861867
      16A     -0.782309    17A     -0.732892    18A     -0.721903
      19A     -0.709501    20A     -0.666964    21A     -0.657784
      22A     -0.646127    23A     -0.611299    24A     -0.603650
      25A     -0.578321    26A     -0.508997    27A     -0.487267
      28A     -0.476550    29A     -0.465580    30A     -0.415118

  @DF-RHF Final Energy:  -453.43716379721155

   => Energetics <=

    Nuclear Repulsion Energy =            358.7250031819492051
    One-Electron Energy =               -1333.3962424995722813
    Two-Electron Energy =                 521.2340755204114657
    Total Energy =                       -453.4371637972116105
  Basis Set: (AUG-CC-PVTZ AUX)
    Blend: AUG-CC-PVTZ-RI
    Molecular point group: c1

    Geometry (in Angstrom), charge = 0, multiplicity = 1:

       Center              X                  Y                   Z               Mass
    ------------   -----------------  -----------------  -----------------  -----------------
         O            1.619944824534    -0.601382424799     1.124841010900    15.994914619570
         O           -2.771348175466    -0.016427424799     0.090153010900    15.994914619570
         O            2.178763824534    -0.103395424799    -1.022189989100    15.994914619570
         O           -0.882296175466    -1.197489424799    -0.351177989100    15.994914619570
         C            0.582495824534     1.266126575201     0.123901010900    12.000000000000
         C           -0.754649175466     1.166162575201     0.087114010900    12.000000000000
         C            1.521309824534     0.111403575201    -0.020975989100    12.000000000000
         C           -1.438877675466    -0.157474724799    -0.084949289100    12.000000000000
         H            1.052025824534     2.242965575201     0.210400010900     1.007825032230
         H           -1.383578175466     2.046667575201     0.169025010900     1.007825032230
         H            2.237795824534    -1.336603424799     0.926368010900     1.007825032230
         H           -3.140224175466    -0.914241424799    -0.043568989100     1.007825032230

  Basis Set: AUG-CC-PVTZ
    Blend: AUG-CC-PVTZ
  Basis Set: (AUG-CC-PVTZ AUX)
    Blend: AUG-CC-PVTZ-JKFIT
	 Reference Energy          =    -453.4371637972115536 [Eh]
	 Singles Energy            =      -0.0000000000000000 [Eh]
	 Same-Spin Energy          =      -0.4333777454433274 [Eh]
	 Opposite-Spin Energy      =      -1.2873762469447796 [Eh]
	 Correlation Energy        =      -1.7207539923881070 [Eh]
	 Total Energy              =    -455.1579177895996509 [Eh]

	 ================> DF-SCS-MP2 Energies <==================
	-----------------------------------------------------------
	 SCS Same-Spin Scale       =       0.3333333333333333 [-]
	 SCS Opposite-Spin Scale   =       1.2000000000000000 [-]
	 SCS Same-Spin Energy      =      -0.1444592484811091 [Eh]
	 SCS Opposite-Spin Energy  =      -1.5448514963337354 [Eh]
	 SCS Correlation Energy    =      -1.6893107448148446 [Eh]
	 SCS Total Energy          =    -455.1264745420264148 [Eh]
	-----------------------------------------------------------

  Dipole Moment: [D]
     X:    -1.4718      Y:     0.9766      Z:     1.5821     Total:     2.3713

*** Psi4 exiting successfully. Buy a developer a beer!
