                               Psi4 1.3.2 release

  ==> Input File <==

--------------------------------------------------------------------------
#psi4
#
memory 32 gb

molecule  {
0 1
  O        1.6287540    -0.6201880     1.1142450
  O       -2.7620560    -0.0348310     0.0798330
  O        2.1886480    -0.1218500    -1.0324370
  O       -0.8732870    -1.2159650    -0.3624810
  C        0.5918760     1.2475400     0.1132070
  C       -0.7452640     1.1476080     0.0762790
  C        1.5307310     0.0928540    -0.0315040
  C       -1.2792636    -0.2218083    -0.0965610
  H        1.0613430     2.2244020     0.1998120
  H       -1.3741190     2.0281690     0.1581920
  H        2.2467100    -1.3553630     0.9159410
  H       -3.1312110    -0.9325360    -0.0538740
units angstrom
no_reorient  #important for SAPT in psi4, default
symmetry c1  #important for SAPT in psi4, default
}

set PROPERTIES_ORIGIN ["COM"]
properties('MP2/aug-cc-pvtz', properties = ['dipole'])
--------------------------------------------------------------------------

    Molecular point group: c1
  Charge       = 0
  Multiplicity = 1
  Basis Set: AUG-CC-PVTZ
    Blend: AUG-CC-PVTZ
  Basis Set: (AUG-CC-PVTZ AUX)
    Blend: AUG-CC-PVTZ-JKFIT

    Orbital Energies [Eh]
    ---------------------

    Doubly Occupied:

       1A    -20.632248     2A    -20.592004     3A    -20.584065
       4A    -20.569517     5A    -11.416147     6A    -11.402814
       7A    -11.300495     8A    -11.285821     9A     -1.518009
      10A     -1.477583    11A     -1.375533    12A     -1.347008
      13A     -1.125968    14A     -0.953280    15A     -0.853443
      16A     -0.772520    17A     -0.742033    18A     -0.727724
      19A     -0.718474    20A     -0.662677    21A     -0.659961
      22A     -0.648880    23A     -0.629036    24A     -0.600327
      25A     -0.590005    26A     -0.505680    27A     -0.496832
      28A     -0.481836    29A     -0.466256    30A     -0.424409

  @DF-RHF Final Energy:  -453.40855750513987

   => Energetics <=

    Nuclear Repulsion Energy =            360.0907532714938952
    One-Electron Energy =               -1335.8774519919204522
    Two-Electron Energy =                 522.3781412152866324
    Total Energy =                       -453.4085575051399246
  Basis Set: (AUG-CC-PVTZ AUX)
    Blend: AUG-CC-PVTZ-RI
    Molecular point group: c1

    Geometry (in Angstrom), charge = 0, multiplicity = 1:

       Center              X                  Y                   Z               Mass
    ------------   -----------------  -----------------  -----------------  -----------------
         O            1.603908715863    -0.596907098853     1.124983197255    15.994914619570
         O           -2.786901284137    -0.011550098853     0.090571197255    15.994914619570
         O            2.163802715863    -0.098569098853    -1.021698802745    15.994914619570
         O           -0.898132284137    -1.192684098853    -0.351742802745    15.994914619570
         C            0.567030715863     1.270820901147     0.123945197255    12.000000000000
         C           -0.770109284137     1.170888901147     0.087017197255    12.000000000000
         C            1.505885715863     0.116134901147    -0.020765802745    12.000000000000
         C           -1.304108884137    -0.198527398853    -0.085822802745    12.000000000000
         H            1.036497715863     2.247682901147     0.210550197255     1.007825032230
         H           -1.398964284137     2.051449901147     0.168930197255     1.007825032230
         H            2.221864715863    -1.332082098853     0.926679197255     1.007825032230
         H           -3.156056284137    -0.909255098853    -0.043135802745     1.007825032230

  Basis Set: AUG-CC-PVTZ
    Blend: AUG-CC-PVTZ
  Basis Set: (AUG-CC-PVTZ AUX)
    Blend: AUG-CC-PVTZ-JKFIT
	 Reference Energy          =    -453.4085575051398678 [Eh]
	 Singles Energy            =      -0.0000000000000000 [Eh]
	 Same-Spin Energy          =      -0.4330410559886155 [Eh]
	 Opposite-Spin Energy      =      -1.2871823501191764 [Eh]
	 Correlation Energy        =      -1.7202234061077919 [Eh]
	 Total Energy              =    -455.1287809112476452 [Eh]

	 ================> DF-SCS-MP2 Energies <==================
	-----------------------------------------------------------
	 SCS Same-Spin Scale       =       0.3333333333333333 [-]
	 SCS Opposite-Spin Scale   =       1.2000000000000000 [-]
	 SCS Same-Spin Energy      =      -0.1443470186628718 [Eh]
	 SCS Opposite-Spin Energy  =      -1.5446188201430116 [Eh]
	 SCS Correlation Energy    =      -1.6889658388058835 [Eh]
	 SCS Total Energy          =    -455.0975233439457384 [Eh]
	-----------------------------------------------------------

  Dipole Moment: [D]
     X:     0.0212      Y:     0.7081      Z:     1.4144     Total:     1.5818

*** Psi4 exiting successfully. Buy a developer a beer!
