                               Psi4 1.3.2 release

  ==> Input File <==

--------------------------------------------------------------------------
#psi4
#
memory 32 gb

molecule  {
0 1
  O        1.6287540    -0.6201880     1.1142450
  O       -2.7620560    -0.0348310     0.0798330
  O        2.1886480    -0.1218500    -1.0324370
  O       -0.8732870    -1.2159650    -0.3624810
  C        0.5918760     1.2475400     0.1132070
  C       -0.7452640     1.1476080     0.0762790
  C        1.5307310     0.0928540    -0.0315040
  C       -1.4345151    -0.2506594    -0.1099627
  H        1.0613430     2.2244020     0.1998120
  H       -1.3741190     2.0281690     0.1581920
  H        2.2467100    -1.3553630     0.9159410
  H       -3.1312110    -0.9325360    -0.0538740
units angstrom
no_reorient  #important for SAPT in psi4, default
symmetry c1  #important for SAPT in psi4, default
}

set PROPERTIES_ORIGIN ["COM"]
properties('MP2/aug-cc-pvtz', properties = ['dipole'])
--------------------------------------------------------------------------

    Molecular point group: c1
  Charge       = 0
  Multiplicity = 1
  Basis Set: AUG-CC-PVTZ
    Blend: AUG-CC-PVTZ
  Basis Set: (AUG-CC-PVTZ AUX)
    Blend: AUG-CC-PVTZ-JKFIT

    Orbital Energies [Eh]
    ---------------------

    Doubly Occupied:

       1A    -20.632544     2A    -20.621949     3A    -20.577827
       4A    -20.558124     5A    -11.406213     6A    -11.404905
       7A    -11.285229     8A    -11.276966     9A     -1.502229
      10A     -1.466969    11A     -1.411162    12A     -1.364743
      13A     -1.101082    14A     -0.938987    15A     -0.855083
      16A     -0.778549    17A     -0.735639    18A     -0.728826
      19A     -0.708203    20A     -0.671486    21A     -0.662272
      22A     -0.653602    23A     -0.614321    24A     -0.600634
      25A     -0.580870    26A     -0.525404    27A     -0.488725
      28A     -0.475949    29A     -0.461048    30A     -0.410025

  @DF-RHF Final Energy:  -453.42925280596171

   => Energetics <=

    Nuclear Repulsion Energy =            359.0273486713530247
    One-Electron Energy =               -1333.9140665741033445
    Two-Electron Energy =                 521.4574650967886100
    Total Energy =                       -453.4292528059617098
  Basis Set: (AUG-CC-PVTZ AUX)
    Blend: AUG-CC-PVTZ-RI
    Molecular point group: c1

    Geometry (in Angstrom), charge = 0, multiplicity = 1:

       Center              X                  Y                   Z               Mass
    ------------   -----------------  -----------------  -----------------  -----------------
         O            1.619967698759    -0.593922784232     1.126369449054    15.994914619570
         O           -2.770842301241    -0.008565784232     0.091957449054    15.994914619570
         O            2.179861698759    -0.095584784232    -1.020312550946    15.994914619570
         O           -0.882073301241    -1.189699784232    -0.350356550946    15.994914619570
         C            0.583089698759     1.273805215768     0.125331449054    12.000000000000
         C           -0.754050301241     1.173873215768     0.088403449054    12.000000000000
         C            1.521944698759     0.119119215768    -0.019379550946    12.000000000000
         C           -1.443301401241    -0.224394184232    -0.097838250946    12.000000000000
         H            1.052556698759     2.250667215768     0.211936449054     1.007825032230
         H           -1.382905301241     2.054434215768     0.170316449054     1.007825032230
         H            2.237923698759    -1.329097784232     0.928065449054     1.007825032230
         H           -3.139997301241    -0.906270784232    -0.041749550946     1.007825032230

  Basis Set: AUG-CC-PVTZ
    Blend: AUG-CC-PVTZ
  Basis Set: (AUG-CC-PVTZ AUX)
    Blend: AUG-CC-PVTZ-JKFIT
	 Reference Energy          =    -453.4292528059617098 [Eh]
	 Singles Energy            =      -0.0000000000000000 [Eh]
	 Same-Spin Energy          =      -0.4320031866158085 [Eh]
	 Opposite-Spin Energy      =      -1.2848132497209921 [Eh]
	 Correlation Energy        =      -1.7168164363368006 [Eh]
	 Total Energy              =    -455.1460692422984948 [Eh]

	 ================> DF-SCS-MP2 Energies <==================
	-----------------------------------------------------------
	 SCS Same-Spin Scale       =       0.3333333333333333 [-]
	 SCS Opposite-Spin Scale   =       1.2000000000000000 [-]
	 SCS Same-Spin Energy      =      -0.1440010622052695 [Eh]
	 SCS Opposite-Spin Energy  =      -1.5417758996651905 [Eh]
	 SCS Correlation Energy    =      -1.6857769618704599 [Eh]
	 SCS Total Energy          =    -455.1150297678321976 [Eh]
	-----------------------------------------------------------

  Dipole Moment: [D]
     X:    -1.5616      Y:     0.5341      Z:     1.4899     Total:     2.2234

*** Psi4 exiting successfully. Buy a developer a beer!
