                               Psi4 1.3.2 release

  ==> Input File <==

--------------------------------------------------------------------------
#psi4
#
memory 32 gb

molecule  {
0 1
  O        1.6287540    -0.6201880     1.1142450
  O       -2.7620560    -0.0348310     0.0798330
  O        2.1886480    -0.1218500    -1.0324370
  O       -0.8544890    -1.2059393    -0.3628124
  C        0.5918760     1.2475400     0.1132070
  C       -0.7452640     1.1476080     0.0762790
  C        1.5307310     0.0928540    -0.0315040
  C       -1.4205430    -0.1583360    -0.0935410
  H        1.0613430     2.2244020     0.1998120
  H       -1.3741190     2.0281690     0.1581920
  H        2.2467100    -1.3553630     0.9159410
  H       -3.1312110    -0.9325360    -0.0538740
units angstrom
no_reorient  #important for SAPT in psi4, default
symmetry c1  #important for SAPT in psi4, default
}

set PROPERTIES_ORIGIN ["COM"]
properties('MP2/aug-cc-pvtz', properties = ['dipole'])
--------------------------------------------------------------------------

    Molecular point group: c1
  Charge       = 0
  Multiplicity = 1
  Basis Set: AUG-CC-PVTZ
    Blend: AUG-CC-PVTZ
  Basis Set: (AUG-CC-PVTZ AUX)
    Blend: AUG-CC-PVTZ-JKFIT

    Orbital Energies [Eh]
    ---------------------

    Doubly Occupied:

       1A    -20.632314     2A    -20.622860     3A    -20.564802
       4A    -20.560522     5A    -11.409655     6A    -11.408608
       7A    -11.298241     8A    -11.279893     9A     -1.475121
      10A     -1.467928    11A     -1.372929    12A     -1.366573
      13A     -1.116251    14A     -0.959007    15A     -0.862388
      16A     -0.782587    17A     -0.734205    18A     -0.719308
      19A     -0.709670    20A     -0.666925    21A     -0.656535
      22A     -0.642903    23A     -0.610402    24A     -0.604471
      25A     -0.578267    26A     -0.507390    27A     -0.486748
      28A     -0.476066    29A     -0.466119    30A     -0.415714

  @DF-RHF Final Energy:  -453.43592848090907

   => Energetics <=

    Nuclear Repulsion Energy =            358.9428132416795734
    One-Electron Energy =               -1333.8486852313576492
    Two-Electron Energy =                 521.4699435087690063
    Total Energy =                       -453.4359284809090695
  Basis Set: (AUG-CC-PVTZ AUX)
    Blend: AUG-CC-PVTZ-RI
    Molecular point group: c1

    Geometry (in Angstrom), charge = 0, multiplicity = 1:

       Center              X                  Y                   Z               Mass
    ------------   -----------------  -----------------  -----------------  -----------------
         O            1.615930686992    -0.604854863673     1.124716504473    15.994914619570
         O           -2.774879313008    -0.019497863673     0.090304504473    15.994914619570
         O            2.175824686992    -0.106516863673    -1.021965495527    15.994914619570
         O           -0.867312313008    -1.190606163673    -0.352340895527    15.994914619570
         C            0.579052686992     1.262873136327     0.123678504473    12.000000000000
         C           -0.758087313008     1.162941136327     0.086750504473    12.000000000000
         C            1.517907686992     0.108187136327    -0.021032495527    12.000000000000
         C           -1.433366313008    -0.143002863673    -0.083069495527    12.000000000000
         H            1.048519686992     2.239735136327     0.210283504473     1.007825032230
         H           -1.386942313008     2.043502136327     0.168663504473     1.007825032230
         H            2.233886686992    -1.340029863673     0.926412504473     1.007825032230
         H           -3.144034313008    -0.917202863673    -0.043402495527     1.007825032230

  Basis Set: AUG-CC-PVTZ
    Blend: AUG-CC-PVTZ
  Basis Set: (AUG-CC-PVTZ AUX)
    Blend: AUG-CC-PVTZ-JKFIT
	 Reference Energy          =    -453.4359284809090695 [Eh]
	 Singles Energy            =      -0.0000000000000000 [Eh]
	 Same-Spin Energy          =      -0.4338578563549822 [Eh]
	 Opposite-Spin Energy      =      -1.2882920485062341 [Eh]
	 Correlation Energy        =      -1.7221499048612163 [Eh]
	 Total Energy              =    -455.1580783857702954 [Eh]

	 ================> DF-SCS-MP2 Energies <==================
	-----------------------------------------------------------
	 SCS Same-Spin Scale       =       0.3333333333333333 [-]
	 SCS Opposite-Spin Scale   =       1.2000000000000000 [-]
	 SCS Same-Spin Energy      =      -0.1446192854516607 [Eh]
	 SCS Opposite-Spin Energy  =      -1.5459504582074810 [Eh]
	 SCS Correlation Energy    =      -1.6905697436591418 [Eh]
	 SCS Total Energy          =    -455.1264982245681949 [Eh]
	-----------------------------------------------------------

  Dipole Moment: [D]
     X:    -1.4395      Y:     1.0316      Z:     1.5909     Total:     2.3806

*** Psi4 exiting successfully. Buy a developer a beer!
