                               Psi4 1.3.2 release

  ==> Input File <==

--------------------------------------------------------------------------
#psi4
#
memory 32 gb

molecule  {
0 1
  O        1.6287540    -0.6201880     1.1142450
  O       -2.7620560    -0.0348310     0.0798330
  O        2.1886480    -0.1218500    -1.0324370
  O       -0.8732870    -1.2159650    -0.3624810
  C        0.5918760     1.2475400     0.1132070
  C       -0.7452640     1.1476080     0.0762790
  C        1.5307310     0.0928540    -0.0315040
  C       -1.4180692    -0.1351435    -0.0893004
  H        1.0613430     2.2244020     0.1998120
  H       -1.3741190     2.0281690     0.1581920
  H        2.2467100    -1.3553630     0.9159410
  H       -3.1312110    -0.9325360    -0.0538740
units angstrom
no_reorient  #important for SAPT in psi4, default
symmetry c1  #important for SAPT in psi4, default
}

set PROPERTIES_ORIGIN ["COM"]
properties('MP2/aug-cc-pvtz', properties = ['dipole'])
--------------------------------------------------------------------------

    Molecular point group: c1
  Charge       = 0
  Multiplicity = 1
  Basis Set: AUG-CC-PVTZ
    Blend: AUG-CC-PVTZ
  Basis Set: (AUG-CC-PVTZ AUX)
    Blend: AUG-CC-PVTZ-JKFIT

    Orbital Energies [Eh]
    ---------------------

    Doubly Occupied:

       1A    -20.630218     2A    -20.623954     3A    -20.562121
       4A    -20.560888     5A    -11.410357     6A    -11.410180
       7A    -11.302771     8A    -11.281248     9A     -1.471818
      10A     -1.467731    11A     -1.367902    12A     -1.359275
      13A     -1.121484    14A     -0.964879    15A     -0.864420
      16A     -0.784010    17A     -0.735866    18A     -0.715784
      19A     -0.710728    20A     -0.668161    21A     -0.655570
      22A     -0.639472    23A     -0.610352    24A     -0.604516
      25A     -0.577938    26A     -0.503128    27A     -0.485897
      28A     -0.475143    29A     -0.466474    30A     -0.417441

  @DF-RHF Final Energy:  -453.43315899797864

   => Energetics <=

    Nuclear Repulsion Energy =            358.6383854096171717
    One-Electron Energy =               -1333.2436390684633807
    Two-Electron Energy =                 521.1720946608676286
    Total Energy =                       -453.4331589979785804
  Basis Set: (AUG-CC-PVTZ AUX)
    Blend: AUG-CC-PVTZ-RI
    Molecular point group: c1

    Geometry (in Angstrom), charge = 0, multiplicity = 1:

       Center              X                  Y                   Z               Mass
    ------------   -----------------  -----------------  -----------------  -----------------
         O            1.618266559467    -0.605871576110     1.124232171653    15.994914619570
         O           -2.772543440533    -0.020514576110     0.089820171653    15.994914619570
         O            2.178160559467    -0.107533576110    -1.022449828347    15.994914619570
         O           -0.883774440533    -1.201648576110    -0.352493828347    15.994914619570
         C            0.581388559467     1.261856423890     0.123194171653    12.000000000000
         C           -0.755751440533     1.161924423890     0.086266171653    12.000000000000
         C            1.520243559467     0.107170423890    -0.021516828347    12.000000000000
         C           -1.428556640533    -0.120827076110    -0.079313228347    12.000000000000
         H            1.050855559467     2.238718423890     0.209799171653     1.007825032230
         H           -1.384606440533     2.042485423890     0.168179171653     1.007825032230
         H            2.236222559467    -1.341046576110     0.925928171653     1.007825032230
         H           -3.141698440533    -0.918219576110    -0.043886828347     1.007825032230

  Basis Set: AUG-CC-PVTZ
    Blend: AUG-CC-PVTZ
  Basis Set: (AUG-CC-PVTZ AUX)
    Blend: AUG-CC-PVTZ-JKFIT
	 Reference Energy          =    -453.4331589979786372 [Eh]
	 Singles Energy            =      -0.0000000000000000 [Eh]
	 Same-Spin Energy          =      -0.4343733855210696 [Eh]
	 Opposite-Spin Energy      =      -1.2892282531994066 [Eh]
	 Correlation Energy        =      -1.7236016387204762 [Eh]
	 Total Energy              =    -455.1567606366991185 [Eh]

	 ================> DF-SCS-MP2 Energies <==================
	-----------------------------------------------------------
	 SCS Same-Spin Scale       =       0.3333333333333333 [-]
	 SCS Opposite-Spin Scale   =       1.2000000000000000 [-]
	 SCS Same-Spin Energy      =      -0.1447911285070232 [Eh]
	 SCS Opposite-Spin Energy  =      -1.5470739038392878 [Eh]
	 SCS Correlation Energy    =      -1.6918650323463109 [Eh]
	 SCS Total Energy          =    -455.1250240303249370 [Eh]
	-----------------------------------------------------------

  Dipole Moment: [D]
     X:    -1.3312      Y:     1.1908      Z:     1.6180     Total:     2.4100

*** Psi4 exiting successfully. Buy a developer a beer!
