                               Psi4 1.3.2 release

  ==> Input File <==

--------------------------------------------------------------------------
#psi4
#
memory 32 gb

molecule  {
0 1
  O        1.6287540    -0.6201880     1.1142450
  O       -2.7620560    -0.0348310     0.0798330
  O        2.1886480    -0.1218500    -1.0324370
  O       -0.8732870    -1.2159650    -0.3624810
  C        0.5918760     1.2475400     0.1132070
  C       -0.7452640     1.1476080     0.0762790
  C        1.5307310     0.0928540    -0.0315040
  C       -1.4660663    -0.1339600    -0.0921186
  H        1.0613430     2.2244020     0.1998120
  H       -1.3741190     2.0281690     0.1581920
  H        2.2467100    -1.3553630     0.9159410
  H       -3.1312110    -0.9325360    -0.0538740
units angstrom
no_reorient  #important for SAPT in psi4, default
symmetry c1  #important for SAPT in psi4, default
}

set PROPERTIES_ORIGIN ["COM"]
properties('MP2/aug-cc-pvtz', properties = ['dipole'])
--------------------------------------------------------------------------

    Molecular point group: c1
  Charge       = 0
  Multiplicity = 1
  Basis Set: AUG-CC-PVTZ
    Blend: AUG-CC-PVTZ
  Basis Set: (AUG-CC-PVTZ AUX)
    Blend: AUG-CC-PVTZ-JKFIT

    Orbital Energies [Eh]
    ---------------------

    Doubly Occupied:

       1A    -20.644170     2A    -20.621044     3A    -20.559025
       4A    -20.554590     5A    -11.411673     6A    -11.407385
       7A    -11.299441     8A    -11.280646     9A     -1.492050
      10A     -1.466817    11A     -1.364925    12A     -1.350333
      13A     -1.115240    14A     -0.963722    15A     -0.868923
      16A     -0.790069    17A     -0.731941    18A     -0.723057
      19A     -0.708093    20A     -0.670799    21A     -0.656336
      22A     -0.651784    23A     -0.607293    24A     -0.599429
      25A     -0.571015    26A     -0.499225    27A     -0.481906
      28A     -0.471642    29A     -0.462188    30A     -0.413796

  @DF-RHF Final Energy:  -453.43042615547523

   => Energetics <=

    Nuclear Repulsion Energy =            358.3660348836138496
    One-Electron Energy =               -1332.7158117561427844
    Two-Electron Energy =                 520.9193507170538169
    Total Energy =                       -453.4304261554751747
  Basis Set: (AUG-CC-PVTZ AUX)
    Blend: AUG-CC-PVTZ-RI
    Molecular point group: c1

    Geometry (in Angstrom), charge = 0, multiplicity = 1:

       Center              X                  Y                   Z               Mass
    ------------   -----------------  -----------------  -----------------  -----------------
         O            1.623231307685    -0.605993995580     1.124523682045    15.994914619570
         O           -2.767578692315    -0.020636995580     0.090111682045    15.994914619570
         O            2.183125307685    -0.107655995580    -1.022158317955    15.994914619570
         O           -0.878809692315    -1.201770995580    -0.352202317955    15.994914619570
         C            0.586353307685     1.261734004420     0.123485682045    12.000000000000
         C           -0.750786692315     1.161802004420     0.086557682045    12.000000000000
         C            1.525208307685     0.107048004420    -0.021225317955    12.000000000000
         C           -1.471588992315    -0.119765995580    -0.081839917955    12.000000000000
         H            1.055820307685     2.238596004420     0.210090682045     1.007825032230
         H           -1.379641692315     2.042363004420     0.168470682045     1.007825032230
         H            2.241187307685    -1.341168995580     0.926219682045     1.007825032230
         H           -3.136733692315    -0.918341995580    -0.043595317955     1.007825032230

  Basis Set: AUG-CC-PVTZ
    Blend: AUG-CC-PVTZ
  Basis Set: (AUG-CC-PVTZ AUX)
    Blend: AUG-CC-PVTZ-JKFIT
	 Reference Energy          =    -453.4304261554752316 [Eh]
	 Singles Energy            =      -0.0000000000000000 [Eh]
	 Same-Spin Energy          =      -0.4343100085270578 [Eh]
	 Opposite-Spin Energy      =      -1.2889357750915003 [Eh]
	 Correlation Energy        =      -1.7232457836185580 [Eh]
	 Total Energy              =    -455.1536719390937833 [Eh]

	 ================> DF-SCS-MP2 Energies <==================
	-----------------------------------------------------------
	 SCS Same-Spin Scale       =       0.3333333333333333 [-]
	 SCS Opposite-Spin Scale   =       1.2000000000000000 [-]
	 SCS Same-Spin Energy      =      -0.1447700028423526 [Eh]
	 SCS Opposite-Spin Energy  =      -1.5467229301098002 [Eh]
	 SCS Correlation Energy    =      -1.6914929329521529 [Eh]
	 SCS Total Energy          =    -455.1219190884273758 [Eh]
	-----------------------------------------------------------

  Dipole Moment: [D]
     X:    -1.7841      Y:     1.1991      Z:     1.6540     Total:     2.7123

*** Psi4 exiting successfully. Buy a developer a beer!
