                               Psi4 1.3.2 release

  ==> Input File <==

--------------------------------------------------------------------------
#psi4
#
memory 32 gb

molecule  {
0 1
  O        1.6287540    -0.6201880     1.1142450
  O       -2.7620560    -0.0348310     0.0798330
  O        2.1886480    -0.1218500    -1.0324370
  O       -0.8732870    -1.2159650    -0.3624810
  C        0.5918760     1.2475400     0.1132070
  C       -0.7452640     1.1476080     0.0762790
  C        1.5307310     0.0928540    -0.0315040
  C       -1.3308890    -0.3316016    -0.1376000
  H        1.0613430     2.2244020     0.1998120
  H       -1.3741190     2.0281690     0.1581920
  H        2.2467100    -1.3553630     0.9159410
  H       -3.1312110    -0.9325360    -0.0538740
units angstrom
no_reorient  #important for SAPT in psi4, default
symmetry c1  #important for SAPT in psi4, default
}

set PROPERTIES_ORIGIN ["COM"]
properties('MP2/aug-cc-pvtz', properties = ['dipole'])
--------------------------------------------------------------------------

    Molecular point group: c1
  Charge       = 0
  Multiplicity = 1
  Basis Set: AUG-CC-PVTZ
    Blend: AUG-CC-PVTZ
  Basis Set: (AUG-CC-PVTZ AUX)
    Blend: AUG-CC-PVTZ-JKFIT

    Orbital Energies [Eh]
    ---------------------

    Doubly Occupied:

       1A    -20.628335     2A    -20.604270     3A    -20.594688
       4A    -20.563540     5A    -11.408681     6A    -11.395565
       7A    -11.281468     8A    -11.277814     9A     -1.592487
      10A     -1.473130    11A     -1.370438    12A     -1.369991
      13A     -1.100833    14A     -0.927480    15A     -0.838879
      16A     -0.782764    17A     -0.752105    18A     -0.741631
      19A     -0.714828    20A     -0.699469    21A     -0.674456
      22A     -0.655017    23A     -0.622967    24A     -0.596717
      25A     -0.588334    26A     -0.522368    27A     -0.494574
      28A     -0.476857    29A     -0.452723    30A     -0.410682

  @DF-RHF Final Energy:  -453.35630407187068

   => Energetics <=

    Nuclear Repulsion Energy =            360.5605180156821348
    One-Electron Energy =               -1336.6074628585381561
    Two-Electron Energy =                 522.6906407709852829
    Total Energy =                       -453.3563040718706816
  Basis Set: (AUG-CC-PVTZ AUX)
    Blend: AUG-CC-PVTZ-RI
    Molecular point group: c1

    Geometry (in Angstrom), charge = 0, multiplicity = 1:

       Center              X                  Y                   Z               Mass
    ------------   -----------------  -----------------  -----------------  -----------------
         O            1.609248770005    -0.585550244158     1.129228210019    15.994914619570
         O           -2.781561229995    -0.000193244158     0.094816210019    15.994914619570
         O            2.169142770005    -0.087212244158    -1.017453789981    15.994914619570
         O           -0.892792229995    -1.181327244158    -0.347497789981    15.994914619570
         C            0.572370770005     1.282177755842     0.128190210019    12.000000000000
         C           -0.764769229995     1.182245755842     0.091262210019    12.000000000000
         C            1.511225770005     0.127491755842    -0.016520789981    12.000000000000
         C           -1.350394229995    -0.296963844158    -0.122616789981    12.000000000000
         H            1.041837770005     2.259039755842     0.214795210019     1.007825032230
         H           -1.393624229995     2.062806755842     0.173175210019     1.007825032230
         H            2.227204770005    -1.320725244158     0.930924210019     1.007825032230
         H           -3.150716229995    -0.897898244158    -0.038890789981     1.007825032230

  Basis Set: AUG-CC-PVTZ
    Blend: AUG-CC-PVTZ
  Basis Set: (AUG-CC-PVTZ AUX)
    Blend: AUG-CC-PVTZ-JKFIT
	 Reference Energy          =    -453.3563040718706816 [Eh]
	 Singles Energy            =      -0.0000000000000000 [Eh]
	 Same-Spin Energy          =      -0.4306807567796621 [Eh]
	 Opposite-Spin Energy      =      -1.2826290121553905 [Eh]
	 Correlation Energy        =      -1.7133097689350525 [Eh]
	 Total Energy              =    -455.0696138408057436 [Eh]

	 ================> DF-SCS-MP2 Energies <==================
	-----------------------------------------------------------
	 SCS Same-Spin Scale       =       0.3333333333333333 [-]
	 SCS Opposite-Spin Scale   =       1.2000000000000000 [-]
	 SCS Same-Spin Energy      =      -0.1435602522598873 [Eh]
	 SCS Opposite-Spin Energy  =      -1.5391548145864686 [Eh]
	 SCS Correlation Energy    =      -1.6827150668463560 [Eh]
	 SCS Total Energy          =    -455.0390191387170375 [Eh]
	-----------------------------------------------------------

  Dipole Moment: [D]
     X:    -0.5117      Y:    -0.0404      Z:     1.2567     Total:     1.3575

*** Psi4 exiting successfully. Buy a developer a beer!
