                               Psi4 1.4a3.dev225

  ==> Input File <==

--------------------------------------------------------------------------
#psi4
#
memory 32 gb

molecule  {
0 1
  O        1.6292290    -0.6199230     1.1141820
  O       -2.7620640    -0.0349680     0.0794940
  O        2.1880480    -0.1219360    -1.0328490
  O       -0.8730120    -1.2160300    -0.3618370
  C        0.5917800     1.2475860     0.1132420
  C       -0.7453650     1.1476220     0.0764550
  C        1.5305940     0.0928630    -0.0316350
  C       -1.3980488    -0.2016828    -0.1043114
  H        1.0613100     2.2244250     0.1997410
  H       -1.3742940     2.0281270     0.1583660
  H        2.2470800    -1.3551440     0.9157090
  H       -3.1309400    -0.9327820    -0.0542280
units angstrom
no_reorient  #important for SAPT in psi4, default
symmetry c1  #important for SAPT in psi4, default
}

set PROPERTIES_ORIGIN ["COM"]
properties('MP2/aug-cc-pvtz', properties = ['dipole'])
--------------------------------------------------------------------------

    Molecular point group: c1
  Charge       = 0
  Multiplicity = 1
  Basis Set: AUG-CC-PVTZ
    Blend: AUG-CC-PVTZ
  Basis Set: (AUG-CC-PVTZ AUX)
    Blend: AUG-CC-PVTZ-JKFIT

    Orbital Energies [Eh]
    ---------------------

    Doubly Occupied:

       1A    -20.624549     2A    -20.622603     3A    -20.574237
       4A    -20.561631     5A    -11.408959     6A    -11.406580
       7A    -11.294373     8A    -11.280490     9A     -1.482951
      10A     -1.469472    11A     -1.388548    12A     -1.367858
      13A     -1.112907    14A     -0.950443    15A     -0.857013
      16A     -0.777512    17A     -0.734593    18A     -0.723130
      19A     -0.711029    20A     -0.665422    21A     -0.658573
      22A     -0.644349    23A     -0.616824    24A     -0.603615
      25A     -0.582196    26A     -0.515401    27A     -0.490421
      28A     -0.478568    29A     -0.467062    30A     -0.416078

  @DF-RHF Final Energy:  -453.43556333264627

   => Energetics <=

    Nuclear Repulsion Energy =            359.0503560046167308
    One-Electron Energy =               -1333.9970645998214422
    Two-Electron Energy =                 521.5111452625584434
    Total Energy =                       -453.4355633326462112
  Basis Set: (AUG-CC-PVTZ AUX)
    Blend: AUG-CC-PVTZ-RI
    Molecular point group: c1

    Geometry (in Angstrom), charge = 0, multiplicity = 1:

       Center              X                  Y                   Z               Mass
    ------------   -----------------  -----------------  -----------------  -----------------
         O            1.616681887958    -0.598727416998     1.125741246543    15.994914619570
         O           -2.774611112042    -0.013772416998     0.091053246543    15.994914619570
         O            2.175500887958    -0.100740416998    -1.021289753457    15.994914619570
         O           -0.885559112042    -1.194834416998    -0.350277753457    15.994914619570
         C            0.579232887958     1.268781583002     0.124801246543    12.000000000000
         C           -0.757912112042     1.168817583001     0.088014246543    12.000000000000
         C            1.518046887958     0.114058583002    -0.020075753457    12.000000000000
         C           -1.410595912042    -0.180487216998    -0.092752153457    12.000000000000
         H            1.048762887958     2.245620583002     0.211300246543     1.007825032230
         H           -1.386841112042     2.049322583002     0.169925246543     1.007825032230
         H            2.234532887958    -1.333948416998     0.927268246543     1.007825032230
         H           -3.143487112042    -0.911586416998    -0.042668753457     1.007825032230

  Basis Set: AUG-CC-PVTZ
    Blend: AUG-CC-PVTZ
  Basis Set: (AUG-CC-PVTZ AUX)
    Blend: AUG-CC-PVTZ-JKFIT
	 Reference Energy          =    -453.4355633326462680 [Eh]
	 Singles Energy            =      -0.0000000000000000 [Eh]
	 Same-Spin Energy          =      -0.4328360641775699 [Eh]
	 Opposite-Spin Energy      =      -1.2864876134106042 [Eh]
	 Correlation Energy        =      -1.7193236775881742 [Eh]
	 Total Energy              =    -455.1548870102344608 [Eh]

	 ================> DF-SCS-MP2 Energies <==================
	-----------------------------------------------------------
	 SCS Same-Spin Scale       =       0.3333333333333333 [-]
	 SCS Opposite-Spin Scale   =       1.2000000000000000 [-]
	 SCS Same-Spin Energy      =      -0.1442786880591899 [Eh]
	 SCS Opposite-Spin Energy  =      -1.5437851360927251 [Eh]
	 SCS Correlation Energy    =      -1.6880638241519150 [Eh]
	 SCS Total Energy          =    -455.1236271567981930 [Eh]
	-----------------------------------------------------------

  Dipole Moment: [D]
     X:    -1.1776      Y:     0.8234      Z:     1.5178     Total:     2.0901

*** Psi4 exiting successfully. Buy a developer a beer!
