                               Psi4 1.4a3.dev225

  ==> Input File <==

--------------------------------------------------------------------------
#psi4
#
memory 32 gb

molecule  {
0 1
  O        1.6292290    -0.6199230     1.1141820
  O       -2.7620640    -0.0349680     0.0794940
  O        2.1880480    -0.1219360    -1.0328490
  O       -0.8730120    -1.2160300    -0.3618370
  C        0.5917800     1.2475860     0.1132420
  C       -0.7453650     1.1476220     0.0764550
  C        1.5305940     0.0928630    -0.0316350
  C       -1.3976613    -0.1142427    -0.0875783
  H        1.0613100     2.2244250     0.1997410
  H       -1.3742940     2.0281270     0.1583660
  H        2.2470800    -1.3551440     0.9157090
  H       -3.1309400    -0.9327820    -0.0542280
units angstrom
no_reorient  #important for SAPT in psi4, default
symmetry c1  #important for SAPT in psi4, default
}

set PROPERTIES_ORIGIN ["COM"]
properties('MP2/aug-cc-pvtz', properties = ['dipole'])
--------------------------------------------------------------------------

    Molecular point group: c1
  Charge       = 0
  Multiplicity = 1
  Basis Set: AUG-CC-PVTZ
    Blend: AUG-CC-PVTZ
  Basis Set: (AUG-CC-PVTZ AUX)
    Blend: AUG-CC-PVTZ-JKFIT

    Orbital Energies [Eh]
    ---------------------

    Doubly Occupied:

       1A    -20.625482     2A    -20.624497     3A    -20.564098
       4A    -20.560142     5A    -11.412549     6A    -11.410347
       7A    -11.307543     8A    -11.281589     9A     -1.471978
      10A     -1.458600    11A     -1.369675    12A     -1.350623
      13A     -1.128067    14A     -0.970677    15A     -0.864932
      16A     -0.782808    17A     -0.738847    18A     -0.713384
      19A     -0.710070    20A     -0.668267    21A     -0.654547
      22A     -0.632794    23A     -0.611560    24A     -0.604930
      25A     -0.579400    26A     -0.502039    27A     -0.486210
      28A     -0.474953    29A     -0.466911    30A     -0.419359

  @DF-RHF Final Energy:  -453.42843888279094

   => Energetics <=

    Nuclear Repulsion Energy =            358.6991724355773385
    One-Electron Energy =               -1333.3614658574010718
    Two-Electron Energy =                 521.2338545390327909
    Total Energy =                       -453.4284388827909424
  Basis Set: (AUG-CC-PVTZ AUX)
    Blend: AUG-CC-PVTZ-RI
    Molecular point group: c1

    Geometry (in Angstrom), charge = 0, multiplicity = 1:

       Center              X                  Y                   Z               Mass
    ------------   -----------------  -----------------  -----------------  -----------------
         O            1.616641805538    -0.607772090128     1.124010399713    15.994914619570
         O           -2.774651194462    -0.022817090128     0.089322399713    15.994914619570
         O            2.175460805538    -0.109785090128    -1.023020600287    15.994914619570
         O           -0.885599194462    -1.203879090128    -0.352008600287    15.994914619570
         C            0.579192805538     1.259736909872     0.123070399713    12.000000000000
         C           -0.757952194462     1.159772909872     0.086283399713    12.000000000000
         C            1.518006805538     0.105013909872    -0.021806600287    12.000000000000
         C           -1.410248494462    -0.102091790128    -0.077749900287    12.000000000000
         H            1.048722805538     2.236575909872     0.209569399713     1.007825032230
         H           -1.386881194462     2.040277909872     0.168194399713     1.007825032230
         H            2.234492805538    -1.342993090128     0.925537399713     1.007825032230
         H           -3.143527194462    -0.920631090128    -0.044399600287     1.007825032230

  Basis Set: AUG-CC-PVTZ
    Blend: AUG-CC-PVTZ
  Basis Set: (AUG-CC-PVTZ AUX)
    Blend: AUG-CC-PVTZ-JKFIT
	 Reference Energy          =    -453.4284388827909424 [Eh]
	 Singles Energy            =      -0.0000000000000000 [Eh]
	 Same-Spin Energy          =      -0.4350175216419498 [Eh]
	 Opposite-Spin Energy      =      -1.2904649508972419 [Eh]
	 Correlation Energy        =      -1.7254824725391917 [Eh]
	 Total Energy              =    -455.1539213553301124 [Eh]

	 ================> DF-SCS-MP2 Energies <==================
	-----------------------------------------------------------
	 SCS Same-Spin Scale       =       0.3333333333333333 [-]
	 SCS Opposite-Spin Scale   =       1.2000000000000000 [-]
	 SCS Same-Spin Energy      =      -0.1450058405473166 [Eh]
	 SCS Opposite-Spin Energy  =      -1.5485579410766903 [Eh]
	 SCS Correlation Energy    =      -1.6935637816240070 [Eh]
	 SCS Total Energy          =    -455.1220026644149357 [Eh]
	-----------------------------------------------------------

  Dipole Moment: [D]
     X:    -1.1160      Y:     1.2946      Z:     1.6204     Total:     2.3553

*** Psi4 exiting successfully. Buy a developer a beer!
