                               Psi4 1.3.2 release

  ==> Input File <==

--------------------------------------------------------------------------
#psi4
#
memory 32 gb

molecule  {
0 1
  O        1.6287540    -0.6201880     1.1142450
  O       -2.7620560    -0.0348310     0.0798330
  O        2.1886480    -0.1218500    -1.0324370
  O       -0.8732870    -1.2159650    -0.3624810
  C        0.5953814     1.1081781     0.0964918
  C       -0.7452640     1.1476080     0.0762790
  C        1.5307310     0.0928540    -0.0315040
  C       -1.4205430    -0.1583360    -0.0935410
  H        1.0613430     2.2244020     0.1998120
  H       -1.3741190     2.0281690     0.1581920
  H        2.2467100    -1.3553630     0.9159410
  H       -3.1312110    -0.9325360    -0.0538740
units angstrom
no_reorient  #important for SAPT in psi4, default
symmetry c1  #important for SAPT in psi4, default
}

set PROPERTIES_ORIGIN ["COM"]
properties('MP2/aug-cc-pvtz', properties = ['dipole'])
--------------------------------------------------------------------------

    Molecular point group: c1
  Charge       = 0
  Multiplicity = 1
  Basis Set: AUG-CC-PVTZ
    Blend: AUG-CC-PVTZ
  Basis Set: (AUG-CC-PVTZ AUX)
    Blend: AUG-CC-PVTZ-JKFIT

    Orbital Energies [Eh]
    ---------------------

    Doubly Occupied:

       1A    -20.628917     2A    -20.623296     3A    -20.562415
       4A    -20.561902     5A    -11.405916     6A    -11.405120
       7A    -11.303330     8A    -11.285018     9A     -1.475388
      10A     -1.470576    11A     -1.370043    12A     -1.369156
      13A     -1.126622    14A     -0.979552    15A     -0.865399
      16A     -0.776924    17A     -0.734111    18A     -0.722004
      19A     -0.712185    20A     -0.675795    21A     -0.650291
      22A     -0.641640    23A     -0.609327    24A     -0.607191
      25A     -0.558072    26A     -0.506489    27A     -0.487690
      28A     -0.479615    29A     -0.465798    30A     -0.417232

  @DF-RHF Final Energy:  -453.41292033864926

   => Energetics <=

    Nuclear Repulsion Energy =            361.0036028016724572
    One-Electron Energy =               -1337.8790155476958716
    Two-Electron Energy =                 523.4624924073740431
    Total Energy =                       -453.4129203386493145
  Basis Set: (AUG-CC-PVTZ AUX)
    Blend: AUG-CC-PVTZ-RI
    Molecular point group: c1

    Geometry (in Angstrom), charge = 0, multiplicity = 1:

       Center              X                  Y                   Z               Mass
    ------------   -----------------  -----------------  -----------------  -----------------
         O            1.618159852306    -0.589057192164     1.126399808255    15.994914619570
         O           -2.772650147694    -0.003700192164     0.091987808255    15.994914619570
         O            2.178053852306    -0.090719192164    -1.020282191745    15.994914619570
         O           -0.883881147694    -1.184834192164    -0.350326191745    15.994914619570
         C            0.584787252306     1.139308907836     0.108646608255    12.000000000000
         C           -0.755858147694     1.178738807836     0.088433808255    12.000000000000
         C            1.520136852306     0.123984807836    -0.019349191745    12.000000000000
         C           -1.431137147694    -0.127205192164    -0.081386191745    12.000000000000
         H            1.050748852306     2.255532807836     0.211966808255     1.007825032230
         H           -1.384713147694     2.059299807836     0.170346808255     1.007825032230
         H            2.236115852306    -1.324232192164     0.928095808255     1.007825032230
         H           -3.141805147694    -0.901405192164    -0.041719191745     1.007825032230

  Basis Set: AUG-CC-PVTZ
    Blend: AUG-CC-PVTZ
  Basis Set: (AUG-CC-PVTZ AUX)
    Blend: AUG-CC-PVTZ-JKFIT
	 Reference Energy          =    -453.4129203386492577 [Eh]
	 Singles Energy            =      -0.0000000000000000 [Eh]
	 Same-Spin Energy          =      -0.4356218063441208 [Eh]
	 Opposite-Spin Energy      =      -1.2904912532546171 [Eh]
	 Correlation Energy        =      -1.7261130595987380 [Eh]
	 Total Energy              =    -455.1390333982479888 [Eh]

	 ================> DF-SCS-MP2 Energies <==================
	-----------------------------------------------------------
	 SCS Same-Spin Scale       =       0.3333333333333333 [-]
	 SCS Opposite-Spin Scale   =       1.2000000000000000 [-]
	 SCS Same-Spin Energy      =      -0.1452072687813736 [Eh]
	 SCS Opposite-Spin Energy  =      -1.5485895039055404 [Eh]
	 SCS Correlation Energy    =      -1.6937967726869141 [Eh]
	 SCS Total Energy          =    -455.1067171113361951 [Eh]
	-----------------------------------------------------------

  Dipole Moment: [D]
     X:    -1.4502      Y:     1.1085      Z:     1.5886     Total:     2.4198

*** Psi4 exiting successfully. Buy a developer a beer!
