                               Psi4 1.3.2 release

  ==> Input File <==

--------------------------------------------------------------------------
#psi4
#
memory 32 gb

molecule  {
0 1
  O        1.6287540    -0.6201880     1.1142450
  O       -2.7620560    -0.0348310     0.0798330
  O        2.1886480    -0.1218500    -1.0324370
  O       -0.9500880    -1.2528170    -0.3603376
  C        0.5918760     1.2475400     0.1132070
  C       -0.7452640     1.1476080     0.0762790
  C        1.5307310     0.0928540    -0.0315040
  C       -1.4205430    -0.1583360    -0.0935410
  H        1.0613430     2.2244020     0.1998120
  H       -1.3741190     2.0281690     0.1581920
  H        2.2467100    -1.3553630     0.9159410
  H       -3.1312110    -0.9325360    -0.0538740
units angstrom
no_reorient  #important for SAPT in psi4, default
symmetry c1  #important for SAPT in psi4, default
}

set PROPERTIES_ORIGIN ["COM"]
properties('MP2/aug-cc-pvtz', properties = ['dipole'])
--------------------------------------------------------------------------

    Molecular point group: c1
  Charge       = 0
  Multiplicity = 1
  Basis Set: AUG-CC-PVTZ
    Blend: AUG-CC-PVTZ
  Basis Set: (AUG-CC-PVTZ AUX)
    Blend: AUG-CC-PVTZ-JKFIT

    Orbital Energies [Eh]
    ---------------------

    Doubly Occupied:

       1A    -20.626278     2A    -20.623145     3A    -20.564352
       4A    -20.562353     5A    -11.411823     6A    -11.408403
       7A    -11.302494     8A    -11.284983     9A     -1.474830
      10A     -1.470607    11A     -1.369986    12A     -1.363843
      13A     -1.120973    14A     -0.961262    15A     -0.863715
      16A     -0.782306    17A     -0.735055    18A     -0.716795
      19A     -0.712665    20A     -0.667244    21A     -0.657632
      22A     -0.639981    23A     -0.614316    24A     -0.605185
      25A     -0.580140    26A     -0.502844    27A     -0.488057
      28A     -0.477405    29A     -0.467419    30A     -0.419833

  @DF-RHF Final Energy:  -453.43530170324175

   => Energetics <=

    Nuclear Repulsion Energy =            357.8324781063701039
    One-Electron Energy =               -1331.5837108483494831
    Two-Electron Energy =                 520.3159310387376308
    Total Energy =                       -453.4353017032417483
  Basis Set: (AUG-CC-PVTZ AUX)
    Blend: AUG-CC-PVTZ-RI
    Molecular point group: c1

    Geometry (in Angstrom), charge = 0, multiplicity = 1:

       Center              X                  Y                   Z               Mass
    ------------   -----------------  -----------------  -----------------  -----------------
         O            1.629111319762    -0.598391639698     1.124375293478    15.994914619570
         O           -2.761698680238    -0.013034639698     0.089963293478    15.994914619570
         O            2.189005319762    -0.100053639698    -1.022306706522    15.994914619570
         O           -0.949730680238    -1.231020639698    -0.350207306522    15.994914619570
         C            0.592233319762     1.269336360302     0.123337293478    12.000000000000
         C           -0.744906680238     1.169404360302     0.086409293478    12.000000000000
         C            1.531088319762     0.114650360302    -0.021373706522    12.000000000000
         C           -1.420185680238    -0.136539639698    -0.083410706522    12.000000000000
         H            1.061700319762     2.246198360302     0.209942293478     1.007825032230
         H           -1.373761680238     2.049965360302     0.168322293478     1.007825032230
         H            2.247067319762    -1.333566639698     0.926071293478     1.007825032230
         H           -3.130853680238    -0.910739639698    -0.043743706522     1.007825032230

  Basis Set: AUG-CC-PVTZ
    Blend: AUG-CC-PVTZ
  Basis Set: (AUG-CC-PVTZ AUX)
    Blend: AUG-CC-PVTZ-JKFIT
	 Reference Energy          =    -453.4353017032417483 [Eh]
	 Singles Energy            =      -0.0000000000000000 [Eh]
	 Same-Spin Energy          =      -0.4335761963475819 [Eh]
	 Opposite-Spin Energy      =      -1.2877463569846714 [Eh]
	 Correlation Energy        =      -1.7213225533322534 [Eh]
	 Total Energy              =    -455.1566242565739913 [Eh]

	 ================> DF-SCS-MP2 Energies <==================
	-----------------------------------------------------------
	 SCS Same-Spin Scale       =       0.3333333333333333 [-]
	 SCS Opposite-Spin Scale   =       1.2000000000000000 [-]
	 SCS Same-Spin Energy      =      -0.1445253987825273 [Eh]
	 SCS Opposite-Spin Energy  =      -1.5452956283816057 [Eh]
	 SCS Correlation Energy    =      -1.6898210271641330 [Eh]
	 SCS Total Energy          =    -455.1251227304059057 [Eh]
	-----------------------------------------------------------

  Dipole Moment: [D]
     X:    -1.1015      Y:     1.2170      Z:     1.6044     Total:     2.2953

*** Psi4 exiting successfully. Buy a developer a beer!
