                               Psi4 1.3.2 release

  ==> Input File <==

--------------------------------------------------------------------------
#psi4
#
memory 32 gb

molecule  {
0 1
  O        1.6287540    -0.6201880     1.1142450
  O       -2.7620560    -0.0348310     0.0798330
  O        2.1886480    -0.1218500    -1.0324370
  O       -0.8732870    -1.2159650    -0.3624810
  C        0.5958464     1.1546595     0.1020973
  C       -0.7452640     1.1476080     0.0762790
  C        1.5307310     0.0928540    -0.0315040
  C       -1.4205430    -0.1583360    -0.0935410
  H        1.0613430     2.2244020     0.1998120
  H       -1.3741190     2.0281690     0.1581920
  H        2.2467100    -1.3553630     0.9159410
  H       -3.1312110    -0.9325360    -0.0538740
units angstrom
no_reorient  #important for SAPT in psi4, default
symmetry c1  #important for SAPT in psi4, default
}

set PROPERTIES_ORIGIN ["COM"]
properties('MP2/aug-cc-pvtz', properties = ['dipole'])
--------------------------------------------------------------------------

    Molecular point group: c1
  Charge       = 0
  Multiplicity = 1
  Basis Set: AUG-CC-PVTZ
    Blend: AUG-CC-PVTZ
  Basis Set: (AUG-CC-PVTZ AUX)
    Blend: AUG-CC-PVTZ-JKFIT

    Orbital Energies [Eh]
    ---------------------

    Doubly Occupied:

       1A    -20.629376     2A    -20.623486     3A    -20.562975
       4A    -20.561857     5A    -11.406937     6A    -11.406699
       7A    -11.301651     8A    -11.283271     9A     -1.474925
      10A     -1.470130    11A     -1.370323    12A     -1.368641
      13A     -1.123069    14A     -0.971845    15A     -0.864866
      16A     -0.777910    17A     -0.734509    18A     -0.720838
      19A     -0.711658    20A     -0.672435    21A     -0.651574
      22A     -0.641803    23A     -0.608347    24A     -0.606365
      25A     -0.568181    26A     -0.506463    27A     -0.487550
      28A     -0.478518    29A     -0.466875    30A     -0.416869

  @DF-RHF Final Energy:  -453.42526136671972

   => Energetics <=

    Nuclear Repulsion Energy =            360.2243389565261964
    One-Electron Energy =               -1336.3593072411174489
    Two-Electron Energy =                 522.7097069178714719
    Total Energy =                       -453.4252613667197238
  Basis Set: (AUG-CC-PVTZ AUX)
    Blend: AUG-CC-PVTZ-RI
    Molecular point group: c1

    Geometry (in Angstrom), charge = 0, multiplicity = 1:

       Center              X                  Y                   Z               Mass
    ------------   -----------------  -----------------  -----------------  -----------------
         O            1.618111753402    -0.593865158642     1.125819983721    15.994914619570
         O           -2.772698246598    -0.008508158642     0.091407983721    15.994914619570
         O            2.178005753402    -0.095527158642    -1.020862016279    15.994914619570
         O           -0.883929246598    -1.189642158642    -0.350906016279    15.994914619570
         C            0.585204153402     1.180982341358     0.113672283721    12.000000000000
         C           -0.755906246598     1.173930841358     0.087853983721    12.000000000000
         C            1.520088753402     0.119176841358    -0.019929016279    12.000000000000
         C           -1.431185246598    -0.132013158642    -0.081966016279    12.000000000000
         H            1.050700753402     2.250724841358     0.211386983721     1.007825032230
         H           -1.384761246598     2.054491841358     0.169766983721     1.007825032230
         H            2.236067753402    -1.329040158642     0.927515983721     1.007825032230
         H           -3.141853246598    -0.906213158642    -0.042299016279     1.007825032230

  Basis Set: AUG-CC-PVTZ
    Blend: AUG-CC-PVTZ
  Basis Set: (AUG-CC-PVTZ AUX)
    Blend: AUG-CC-PVTZ-JKFIT
	 Reference Energy          =    -453.4252613667197238 [Eh]
	 Singles Energy            =      -0.0000000000000000 [Eh]
	 Same-Spin Energy          =      -0.4348646587468066 [Eh]
	 Opposite-Spin Energy      =      -1.2894075091083428 [Eh]
	 Correlation Energy        =      -1.7242721678551494 [Eh]
	 Total Energy              =    -455.1495335345748572 [Eh]

	 ================> DF-SCS-MP2 Energies <==================
	-----------------------------------------------------------
	 SCS Same-Spin Scale       =       0.3333333333333333 [-]
	 SCS Opposite-Spin Scale   =       1.2000000000000000 [-]
	 SCS Same-Spin Energy      =      -0.1449548862489355 [Eh]
	 SCS Opposite-Spin Energy  =      -1.5472890109300113 [Eh]
	 SCS Correlation Energy    =      -1.6922438971789469 [Eh]
	 SCS Total Energy          =    -455.1175052638986926 [Eh]
	-----------------------------------------------------------

  Dipole Moment: [D]
     X:    -1.4167      Y:     1.0947      Z:     1.5912     Total:     2.3953

*** Psi4 exiting successfully. Buy a developer a beer!
