                               Psi4 1.4a3.dev225

  ==> Input File <==

--------------------------------------------------------------------------
#psi4
#
memory 32 gb

molecule  {
0 1
  O        1.6292290    -0.6199230     1.1141820
  O       -2.7620640    -0.0349680     0.0794940
  O        2.1880480    -0.1219360    -1.0328490
  O       -0.8730120    -1.2160300    -0.3618370
  C        0.5917800     1.2475860     0.1132420
  C       -0.7453650     1.1476220     0.0764550
  C        1.5305940     0.0928630    -0.0316350
  C       -1.4432787    -0.2024893    -0.0990497
  H        1.0613100     2.2244250     0.1997410
  H       -1.3742940     2.0281270     0.1583660
  H        2.2470800    -1.3551440     0.9157090
  H       -3.1309400    -0.9327820    -0.0542280
units angstrom
no_reorient  #important for SAPT in psi4, default
symmetry c1  #important for SAPT in psi4, default
}

set PROPERTIES_ORIGIN ["COM"]
properties('MP2/aug-cc-pvtz', properties = ['dipole'])
--------------------------------------------------------------------------

    Molecular point group: c1
  Charge       = 0
  Multiplicity = 1
  Basis Set: AUG-CC-PVTZ
    Blend: AUG-CC-PVTZ
  Basis Set: (AUG-CC-PVTZ AUX)
    Blend: AUG-CC-PVTZ-JKFIT

    Orbital Energies [Eh]
    ---------------------

    Doubly Occupied:

       1A    -20.636435     2A    -20.621757     3A    -20.568557
       4A    -20.558681     5A    -11.408571     6A    -11.406146
       7A    -11.291290     8A    -11.279124     9A     -1.489248
      10A     -1.467070    11A     -1.391841    12A     -1.365010
      13A     -1.107376    14A     -0.949112    15A     -0.860832
      16A     -0.781909    17A     -0.731659    18A     -0.726039
      19A     -0.708299    20A     -0.668048    21A     -0.659266
      22A     -0.651367    23A     -0.611151    24A     -0.602030
      25A     -0.577953    26A     -0.513596    27A     -0.487286
      28A     -0.476206    29A     -0.463542    30A     -0.412708

  @DF-RHF Final Energy:  -453.43651438365714

   => Energetics <=

    Nuclear Repulsion Energy =            358.7468880100586830
    One-Electron Energy =               -1333.4225878968952657
    Two-Electron Energy =                 521.2391855031794421
    Total Energy =                       -453.4365143836571406
  Basis Set: (AUG-CC-PVTZ AUX)
    Blend: AUG-CC-PVTZ-RI
    Molecular point group: c1

    Geometry (in Angstrom), charge = 0, multiplicity = 1:

       Center              X                  Y                   Z               Mass
    ------------   -----------------  -----------------  -----------------  -----------------
         O            1.621360401148    -0.598643993845     1.125196984167    15.994914619570
         O           -2.769932598852    -0.013688993845     0.090508984167    15.994914619570
         O            2.180179401148    -0.100656993845    -1.021834015833    15.994914619570
         O           -0.880880598852    -1.194750993845    -0.350822015833    15.994914619570
         C            0.583911401148     1.268865006155     0.124256984167    12.000000000000
         C           -0.753233598852     1.168901006155     0.087469984167    12.000000000000
         C            1.522725401148     0.114142006155    -0.020620015833    12.000000000000
         C           -1.451147298852    -0.181210293845    -0.088034715833    12.000000000000
         H            1.053441401148     2.245704006155     0.210755984167     1.007825032230
         H           -1.382162598852     2.049406006155     0.169380984167     1.007825032230
         H            2.239211401148    -1.333864993845     0.926723984167     1.007825032230
         H           -3.138808598852    -0.911502993845    -0.043213015833     1.007825032230

  Basis Set: AUG-CC-PVTZ
    Blend: AUG-CC-PVTZ
  Basis Set: (AUG-CC-PVTZ AUX)
    Blend: AUG-CC-PVTZ-JKFIT
	 Reference Energy          =    -453.4365143836571406 [Eh]
	 Singles Energy            =      -0.0000000000000000 [Eh]
	 Same-Spin Energy          =      -0.4328503834879963 [Eh]
	 Opposite-Spin Energy      =      -1.2863598885248850 [Eh]
	 Correlation Energy        =      -1.7192102720128815 [Eh]
	 Total Energy              =    -455.1557246556700420 [Eh]

	 ================> DF-SCS-MP2 Energies <==================
	-----------------------------------------------------------
	 SCS Same-Spin Scale       =       0.3333333333333333 [-]
	 SCS Opposite-Spin Scale   =       1.2000000000000000 [-]
	 SCS Same-Spin Energy      =      -0.1442834611626654 [Eh]
	 SCS Opposite-Spin Energy  =      -1.5436318662298620 [Eh]
	 SCS Correlation Energy    =      -1.6879153273925274 [Eh]
	 SCS Total Energy          =    -455.1244297110496859 [Eh]
	-----------------------------------------------------------

  Dipole Moment: [D]
     X:    -1.6209      Y:     0.8310      Z:     1.5636     Total:     2.4006

*** Psi4 exiting successfully. Buy a developer a beer!
