                               Psi4 1.3.2 release

  ==> Input File <==

--------------------------------------------------------------------------
#psi4
#
memory 32 gb

molecule  {
0 1
  O        1.6287540    -0.6201880     1.1142450
  O       -2.7620560    -0.0348310     0.0798330
  O        2.1886480    -0.1218500    -1.0324370
  O       -0.8732870    -1.2159650    -0.3624810
  C        0.5918760     1.2475400     0.1132070
  C       -0.7452640     1.1476080     0.0762790
  C        1.5307310     0.0928540    -0.0315040
  C       -1.4205430    -0.1583360    -0.0935410
  H        1.1476999     2.4040926     0.2157427
  H       -1.3741190     2.0281690     0.1581920
  H        2.2467100    -1.3553630     0.9159410
  H       -3.1312110    -0.9325360    -0.0538740
units angstrom
no_reorient  #important for SAPT in psi4, default
symmetry c1  #important for SAPT in psi4, default
}

set PROPERTIES_ORIGIN ["COM"]
properties('MP2/aug-cc-pvtz', properties = ['dipole'])
--------------------------------------------------------------------------

    Molecular point group: c1
  Charge       = 0
  Multiplicity = 1
  Basis Set: AUG-CC-PVTZ
    Blend: AUG-CC-PVTZ
  Basis Set: (AUG-CC-PVTZ AUX)
    Blend: AUG-CC-PVTZ-JKFIT

    Orbital Energies [Eh]
    ---------------------

    Doubly Occupied:

       1A    -20.631007     2A    -20.623959     3A    -20.564677
       4A    -20.561504     5A    -11.410711     6A    -11.410334
       7A    -11.318189     8A    -11.281635     9A     -1.475391
      10A     -1.468835    11A     -1.371619    12A     -1.367467
      13A     -1.113126    14A     -0.955219    15A     -0.861116
      16A     -0.771549    17A     -0.729392    18A     -0.719174
      19A     -0.710516    20A     -0.666017    21A     -0.645495
      22A     -0.642709    23A     -0.608518    24A     -0.600349
      25A     -0.561651    26A     -0.506605    27A     -0.487114
      28A     -0.476778    29A     -0.464887    30A     -0.417092

  @DF-RHF Final Energy:  -453.41393562543090

   => Energetics <=

    Nuclear Repulsion Energy =            357.7664050294509366
    One-Electron Energy =               -1331.5154138127425085
    Two-Electron Energy =                 520.3350731578607338
    Total Energy =                       -453.4139356254308950
  Basis Set: (AUG-CC-PVTZ AUX)
    Blend: AUG-CC-PVTZ-RI
    Molecular point group: c1

    Geometry (in Angstrom), charge = 0, multiplicity = 1:

       Center              X                  Y                   Z               Mass
    ------------   -----------------  -----------------  -----------------  -----------------
         O            1.617772235084    -0.605033609453     1.124532417787    15.994914619570
         O           -2.773037764916    -0.019676609453     0.090120417787    15.994914619570
         O            2.177666235084    -0.106695609453    -1.022149582213    15.994914619570
         O           -0.884268764916    -1.200810609453    -0.352193582213    15.994914619570
         C            0.580894235084     1.262694390547     0.123494417787    12.000000000000
         C           -0.756245764916     1.162762390547     0.086566417787    12.000000000000
         C            1.519749235084     0.108008390547    -0.021216582213    12.000000000000
         C           -1.431524764916    -0.143181609453    -0.083253582213    12.000000000000
         H            1.136718135084     2.419246990547     0.226030117787     1.007825032230
         H           -1.385100764916     2.043323390547     0.168479417787     1.007825032230
         H            2.235728235084    -1.340208609453     0.926228417787     1.007825032230
         H           -3.142192764916    -0.917381609453    -0.043586582213     1.007825032230

  Basis Set: AUG-CC-PVTZ
    Blend: AUG-CC-PVTZ
  Basis Set: (AUG-CC-PVTZ AUX)
    Blend: AUG-CC-PVTZ-JKFIT
	 Reference Energy          =    -453.4139356254308950 [Eh]
	 Singles Energy            =      -0.0000000000000000 [Eh]
	 Same-Spin Energy          =      -0.4343071848740885 [Eh]
	 Opposite-Spin Energy      =      -1.2901227296653275 [Eh]
	 Correlation Energy        =      -1.7244299145394160 [Eh]
	 Total Energy              =    -455.1383655399703230 [Eh]

	 ================> DF-SCS-MP2 Energies <==================
	-----------------------------------------------------------
	 SCS Same-Spin Scale       =       0.3333333333333333 [-]
	 SCS Opposite-Spin Scale   =       1.2000000000000000 [-]
	 SCS Same-Spin Energy      =      -0.1447690616246962 [Eh]
	 SCS Opposite-Spin Energy  =      -1.5481472755983929 [Eh]
	 SCS Correlation Energy    =      -1.6929163372230891 [Eh]
	 SCS Total Energy          =    -455.1068519626539910 [Eh]
	-----------------------------------------------------------

  Dipole Moment: [D]
     X:    -1.3624      Y:     1.0744      Z:     1.5903     Total:     2.3537

*** Psi4 exiting successfully. Buy a developer a beer!
