                               Psi4 1.4a3.dev225

  ==> Input File <==

--------------------------------------------------------------------------
#psi4
#
memory 32 gb

molecule  {
0 1
  O        1.6292290    -0.6199230     1.1141820
  O       -2.7620640    -0.0349680     0.0794940
  O        2.1880480    -0.1219360    -1.0328490
  O       -0.8730120    -1.2160300    -0.3618370
  C        0.5917800     1.2475860     0.1132420
  C       -0.7453650     1.1476220     0.0764550
  C        1.5305940     0.0928630    -0.0316350
  C       -1.4007159    -0.1601830    -0.0958585
  H        1.0613100     2.2244250     0.1997410
  H       -1.3742940     2.0281270     0.1583660
  H        2.2470800    -1.3551440     0.9157090
  H       -3.1309400    -0.9327820    -0.0542280
units angstrom
no_reorient  #important for SAPT in psi4, default
symmetry c1  #important for SAPT in psi4, default
}

set PROPERTIES_ORIGIN ["COM"]
properties('MP2/aug-cc-pvtz', properties = ['dipole'])
--------------------------------------------------------------------------

    Molecular point group: c1
  Charge       = 0
  Multiplicity = 1
  Basis Set: AUG-CC-PVTZ
    Blend: AUG-CC-PVTZ
  Basis Set: (AUG-CC-PVTZ AUX)
    Blend: AUG-CC-PVTZ-JKFIT

    Orbital Energies [Eh]
    ---------------------

    Doubly Occupied:

       1A    -20.624754     2A    -20.624534     3A    -20.567204
       4A    -20.562536     5A    -11.410414     6A    -11.408659
       7A    -11.300226     8A    -11.281309     9A     -1.472462
      10A     -1.467233    11A     -1.372798    12A     -1.368472
      13A     -1.119502    14A     -0.959749    15A     -0.861133
      16A     -0.780041    17A     -0.735762    18A     -0.717317
      19A     -0.711397    20A     -0.665730    21A     -0.656509
      22A     -0.638515    23A     -0.613680    24A     -0.605465
      25A     -0.580908    26A     -0.507755    27A     -0.488621
      28A     -0.477493    29A     -0.467977    30A     -0.418002

  @DF-RHF Final Energy:  -453.43584346725657

   => Energetics <=

    Nuclear Repulsion Energy =            358.8470843712175906
    One-Electron Energy =               -1333.6335397106597611
    Two-Electron Energy =                 521.3506118721857092
    Total Energy =                       -453.4358434672565181
  Basis Set: (AUG-CC-PVTZ AUX)
    Blend: AUG-CC-PVTZ-RI
    Molecular point group: c1

    Geometry (in Angstrom), charge = 0, multiplicity = 1:

       Center              X                  Y                   Z               Mass
    ------------   -----------------  -----------------  -----------------  -----------------
         O            1.616957768792    -0.603020094225     1.124866891213    15.994914619570
         O           -2.774335231208    -0.018065094225     0.090178891213    15.994914619570
         O            2.175776768792    -0.105033094225    -1.022164108787    15.994914619570
         O           -0.885283231208    -1.199127094225    -0.351152108787    15.994914619570
         C            0.579508768792     1.264488905775     0.123926891213    12.000000000000
         C           -0.757636231208     1.164524905775     0.087139891213    12.000000000000
         C            1.518322768792     0.109765905775    -0.020950108787    12.000000000000
         C           -1.412987131208    -0.143280094225    -0.085173608787    12.000000000000
         H            1.049038768792     2.241327905775     0.210425891213     1.007825032230
         H           -1.386565231208     2.045029905775     0.169050891213     1.007825032230
         H            2.234808768792    -1.338241094225     0.926393891213     1.007825032230
         H           -3.143211231208    -0.915879094225    -0.043543108787     1.007825032230

  Basis Set: AUG-CC-PVTZ
    Blend: AUG-CC-PVTZ
  Basis Set: (AUG-CC-PVTZ AUX)
    Blend: AUG-CC-PVTZ-JKFIT
	 Reference Energy          =    -453.4358434672565750 [Eh]
	 Singles Energy            =      -0.0000000000000000 [Eh]
	 Same-Spin Energy          =      -0.4337809312542593 [Eh]
	 Opposite-Spin Energy      =      -1.2882116977458768 [Eh]
	 Correlation Energy        =      -1.7219926290001362 [Eh]
	 Total Energy              =    -455.1578360962566876 [Eh]

	 ================> DF-SCS-MP2 Energies <==================
	-----------------------------------------------------------
	 SCS Same-Spin Scale       =       0.3333333333333333 [-]
	 SCS Opposite-Spin Scale   =       1.2000000000000000 [-]
	 SCS Same-Spin Energy      =      -0.1445936437514198 [Eh]
	 SCS Opposite-Spin Energy  =      -1.5458540372950522 [Eh]
	 SCS Correlation Energy    =      -1.6904476810464719 [Eh]
	 SCS Total Energy          =    -455.1262911483030393 [Eh]
	-----------------------------------------------------------

  Dipole Moment: [D]
     X:    -1.1801      Y:     1.0578      Z:     1.5721     Total:     2.2323

*** Psi4 exiting successfully. Buy a developer a beer!
