                               Psi4 1.3.2 release

  ==> Input File <==

--------------------------------------------------------------------------
#psi4
#
memory 32 gb

molecule  {
0 1
  O        1.6287540    -0.6201880     1.1142450
  O       -2.7591684    -0.0116851     0.0840670
  O        2.1886480    -0.1218500    -1.0324370
  O       -0.8732870    -1.2159650    -0.3624810
  C        0.5918760     1.2475400     0.1132070
  C       -0.7452640     1.1476080     0.0762790
  C        1.5307310     0.0928540    -0.0315040
  C       -1.4205430    -0.1583360    -0.0935410
  H        1.0613430     2.2244020     0.1998120
  H       -1.3741190     2.0281690     0.1581920
  H        2.2467100    -1.3553630     0.9159410
  H       -3.1312110    -0.9325360    -0.0538740
units angstrom
no_reorient  #important for SAPT in psi4, default
symmetry c1  #important for SAPT in psi4, default
}

set PROPERTIES_ORIGIN ["COM"]
properties('MP2/aug-cc-pvtz', properties = ['dipole'])
--------------------------------------------------------------------------

    Molecular point group: c1
  Charge       = 0
  Multiplicity = 1
  Basis Set: AUG-CC-PVTZ
    Blend: AUG-CC-PVTZ
  Basis Set: (AUG-CC-PVTZ AUX)
    Blend: AUG-CC-PVTZ-JKFIT

    Orbital Energies [Eh]
    ---------------------

    Doubly Occupied:

       1A    -20.633582     2A    -20.623362     3A    -20.565359
       4A    -20.561035     5A    -11.409385     6A    -11.408924
       7A    -11.298243     8A    -11.279822     9A     -1.473272
      10A     -1.467944    11A     -1.371152    12A     -1.367029
      13A     -1.116388    14A     -0.957840    15A     -0.860405
      16A     -0.779658    17A     -0.732995    18A     -0.719286
      19A     -0.710056    20A     -0.665522    21A     -0.656574
      22A     -0.642369    23A     -0.611313    24A     -0.603512
      25A     -0.578634    26A     -0.506738    27A     -0.487082
      28A     -0.476478    29A     -0.466428    30A     -0.416044

  @DF-RHF Final Energy:  -453.43376370495008

   => Energetics <=

    Nuclear Repulsion Energy =            358.6518464009471927
    One-Electron Energy =               -1333.2783618772812133
    Two-Electron Energy =                 521.1927517713839961
    Total Energy =                       -453.4337637049500245
  Basis Set: (AUG-CC-PVTZ AUX)
    Blend: AUG-CC-PVTZ-RI
    Molecular point group: c1

    Geometry (in Angstrom), charge = 0, multiplicity = 1:

       Center              X                  Y                   Z               Mass
    ------------   -----------------  -----------------  -----------------  -----------------
         O            1.618124320185    -0.606663800357     1.124087053738    15.994914619570
         O           -2.769798079815     0.001839099643     0.093909053738    15.994914619570
         O            2.178018320185    -0.108325800357    -1.022594946262    15.994914619570
         O           -0.883916679815    -1.202440800357    -0.352638946262    15.994914619570
         C            0.581246320185     1.261064199643     0.123049053738    12.000000000000
         C           -0.755893679815     1.161132199643     0.086121053738    12.000000000000
         C            1.520101320185     0.106378199643    -0.021661946262    12.000000000000
         C           -1.431172679815    -0.144811800357    -0.083698946262    12.000000000000
         H            1.050713320185     2.237926199643     0.209654053738     1.007825032230
         H           -1.384748679815     2.041693199643     0.168034053738     1.007825032230
         H            2.236080320185    -1.341838800357     0.925783053738     1.007825032230
         H           -3.141840679815    -0.919011800357    -0.044031946262     1.007825032230

  Basis Set: AUG-CC-PVTZ
    Blend: AUG-CC-PVTZ
  Basis Set: (AUG-CC-PVTZ AUX)
    Blend: AUG-CC-PVTZ-JKFIT
	 Reference Energy          =    -453.4337637049500813 [Eh]
	 Singles Energy            =      -0.0000000000000000 [Eh]
	 Same-Spin Energy          =      -0.4342356733402216 [Eh]
	 Opposite-Spin Energy      =      -1.2891184733793279 [Eh]
	 Correlation Energy        =      -1.7233541467195495 [Eh]
	 Total Energy              =    -455.1571178516696250 [Eh]

	 ================> DF-SCS-MP2 Energies <==================
	-----------------------------------------------------------
	 SCS Same-Spin Scale       =       0.3333333333333333 [-]
	 SCS Opposite-Spin Scale   =       1.2000000000000000 [-]
	 SCS Same-Spin Energy      =      -0.1447452244467405 [Eh]
	 SCS Opposite-Spin Energy  =      -1.5469421680551936 [Eh]
	 SCS Correlation Energy    =      -1.6916873925019340 [Eh]
	 SCS Total Energy          =    -455.1254510974520144 [Eh]
	-----------------------------------------------------------

  Dipole Moment: [D]
     X:    -1.4058      Y:     1.0342      Z:     1.5895     Total:     2.3606

*** Psi4 exiting successfully. Buy a developer a beer!
