                               Psi4 1.3.2 release

  ==> Input File <==

--------------------------------------------------------------------------
#psi4
#
memory 32 gb

molecule  {
0 1
  O        1.6287540    -0.6201880     1.1142450
  O       -2.7620560    -0.0348310     0.0798330
  O        2.1886480    -0.1218500    -1.0324370
  O       -0.8732870    -1.2159650    -0.3624810
  C        0.5953462     1.1079683     0.0983362
  C       -0.7452640     1.1476080     0.0762790
  C        1.5307310     0.0928540    -0.0315040
  C       -1.4205430    -0.1583360    -0.0935410
  H        1.0613430     2.2244020     0.1998120
  H       -1.3741190     2.0281690     0.1581920
  H        2.2467100    -1.3553630     0.9159410
  H       -3.1312110    -0.9325360    -0.0538740
units angstrom
no_reorient  #important for SAPT in psi4, default
symmetry c1  #important for SAPT in psi4, default
}

set PROPERTIES_ORIGIN ["COM"]
properties('MP2/aug-cc-pvtz', properties = ['dipole'])
--------------------------------------------------------------------------

    Molecular point group: c1
  Charge       = 0
  Multiplicity = 1
  Basis Set: AUG-CC-PVTZ
    Blend: AUG-CC-PVTZ
  Basis Set: (AUG-CC-PVTZ AUX)
    Blend: AUG-CC-PVTZ-JKFIT

    Orbital Energies [Eh]
    ---------------------

    Doubly Occupied:

       1A    -20.628925     2A    -20.623257     3A    -20.562427
       4A    -20.561933     5A    -11.405926     6A    -11.405134
       7A    -11.303330     8A    -11.285040     9A     -1.475393
      10A     -1.470581    11A     -1.370051    12A     -1.369145
      13A     -1.126634    14A     -0.979581    15A     -0.865420
      16A     -0.776867    17A     -0.734094    18A     -0.721986
      19A     -0.712198    20A     -0.675803    21A     -0.650281
      22A     -0.641638    23A     -0.609348    24A     -0.607191
      25A     -0.558049    26A     -0.506494    27A     -0.487693
      28A     -0.479616    29A     -0.465804    30A     -0.417259

  @DF-RHF Final Energy:  -453.41288905493491

   => Energetics <=

    Nuclear Repulsion Energy =            361.0040884916973027
    One-Electron Energy =               -1337.8797616040542380
    Two-Electron Energy =                 523.4627840574220272
    Total Energy =                       -453.4128890549349080
  Basis Set: (AUG-CC-PVTZ AUX)
    Blend: AUG-CC-PVTZ-RI
    Molecular point group: c1

    Geometry (in Angstrom), charge = 0, multiplicity = 1:

       Center              X                  Y                   Z               Mass
    ------------   -----------------  -----------------  -----------------  -----------------
         O            1.618163493341    -0.589035490766     1.126209026278    15.994914619570
         O           -2.772646506659    -0.003678490766     0.091797026278    15.994914619570
         O            2.178057493341    -0.090697490766    -1.020472973722    15.994914619570
         O           -0.883877506659    -1.184812490766    -0.350516973722    15.994914619570
         C            0.584755693341     1.139120809234     0.110300226278    12.000000000000
         C           -0.755854506659     1.178760509234     0.088243026278    12.000000000000
         C            1.520140493341     0.124006509234    -0.019539973722    12.000000000000
         C           -1.431133506659    -0.127183490766    -0.081576973722    12.000000000000
         H            1.050752493341     2.255554509234     0.211776026278     1.007825032230
         H           -1.384709506659     2.059321509234     0.170156026278     1.007825032230
         H            2.236119493341    -1.324210490766     0.927905026278     1.007825032230
         H           -3.141801506659    -0.901383490766    -0.041909973722     1.007825032230

  Basis Set: AUG-CC-PVTZ
    Blend: AUG-CC-PVTZ
  Basis Set: (AUG-CC-PVTZ AUX)
    Blend: AUG-CC-PVTZ-JKFIT
	 Reference Energy          =    -453.4128890549349080 [Eh]
	 Singles Energy            =      -0.0000000000000000 [Eh]
	 Same-Spin Energy          =      -0.4356274725256292 [Eh]
	 Opposite-Spin Energy      =      -1.2905005440300923 [Eh]
	 Correlation Energy        =      -1.7261280165557213 [Eh]
	 Total Energy              =    -455.1390170714906276 [Eh]

	 ================> DF-SCS-MP2 Energies <==================
	-----------------------------------------------------------
	 SCS Same-Spin Scale       =       0.3333333333333333 [-]
	 SCS Opposite-Spin Scale   =       1.2000000000000000 [-]
	 SCS Same-Spin Energy      =      -0.1452091575085430 [Eh]
	 SCS Opposite-Spin Energy  =      -1.5486006528361107 [Eh]
	 SCS Correlation Energy    =      -1.6938098103446537 [Eh]
	 SCS Total Energy          =    -455.1066988652795544 [Eh]
	-----------------------------------------------------------

  Dipole Moment: [D]
     X:    -1.4507      Y:     1.1086      Z:     1.5874     Total:     2.4193

*** Psi4 exiting successfully. Buy a developer a beer!
