                               Psi4 1.3.2 release

  ==> Input File <==

--------------------------------------------------------------------------
#psi4
#
memory 32 gb

molecule  {
0 1
  O        1.6287540    -0.6201880     1.1142450
  O       -2.7620560    -0.0348310     0.0798330
  O        2.1886480    -0.1218500    -1.0324370
  O       -0.8732870    -1.2159650    -0.3624810
  C        0.5934747     1.2243128     0.1107523
  C       -0.7452640     1.1476080     0.0762790
  C        1.5307310     0.0928540    -0.0315040
  C       -1.4205430    -0.1583360    -0.0935410
  H        1.0613430     2.2244020     0.1998120
  H       -1.3741190     2.0281690     0.1581920
  H        2.2467100    -1.3553630     0.9159410
  H       -3.1312110    -0.9325360    -0.0538740
units angstrom
no_reorient  #important for SAPT in psi4, default
symmetry c1  #important for SAPT in psi4, default
}

set PROPERTIES_ORIGIN ["COM"]
properties('MP2/aug-cc-pvtz', properties = ['dipole'])
--------------------------------------------------------------------------

    Molecular point group: c1
  Charge       = 0
  Multiplicity = 1
  Basis Set: AUG-CC-PVTZ
    Blend: AUG-CC-PVTZ
  Basis Set: (AUG-CC-PVTZ AUX)
    Blend: AUG-CC-PVTZ-JKFIT

    Orbital Energies [Eh]
    ---------------------

    Doubly Occupied:

       1A    -20.630205     2A    -20.623564     3A    -20.563966
       4A    -20.561496     5A    -11.408724     6A    -11.408705
       7A    -11.299639     8A    -11.281355     9A     -1.474833
      10A     -1.468992    11A     -1.370925    12A     -1.367644
      13A     -1.118515    14A     -0.962091    15A     -0.863365
      16A     -0.780972    17A     -0.734531    18A     -0.719271
      19A     -0.710677    20A     -0.667933    21A     -0.655262
      22A     -0.642162    23A     -0.610255    24A     -0.604322
      25A     -0.577838    26A     -0.506412    27A     -0.487209
      28A     -0.476778    29A     -0.467053    30A     -0.416584

  @DF-RHF Final Energy:  -453.43523365288814

   => Energetics <=

    Nuclear Repulsion Energy =            359.0801557626240310
    One-Electron Energy =               -1334.1082261325100262
    Two-Electron Energy =                 521.5928367169979083
    Total Energy =                       -453.4352336528880869
  Basis Set: (AUG-CC-PVTZ AUX)
    Blend: AUG-CC-PVTZ-RI
    Molecular point group: c1

    Geometry (in Angstrom), charge = 0, multiplicity = 1:

       Center              X                  Y                   Z               Mass
    ------------   -----------------  -----------------  -----------------  -----------------
         O            1.618357078501    -0.601069991789     1.124924723469    15.994914619570
         O           -2.772452921499    -0.015712991789     0.090512723469    15.994914619570
         O            2.178251078501    -0.102731991789    -1.021757276531    15.994914619570
         O           -0.883683921499    -1.196846991789    -0.351801276531    15.994914619570
         C            0.583077778501     1.243430808211     0.121432023469    12.000000000000
         C           -0.755660921499     1.166726008211     0.086958723469    12.000000000000
         C            1.520334078501     0.111972008211    -0.020824276531    12.000000000000
         C           -1.430939921499    -0.139217991789    -0.082861276531    12.000000000000
         H            1.050946078501     2.243520008211     0.210491723469     1.007825032230
         H           -1.384515921499     2.047287008211     0.168871723469     1.007825032230
         H            2.236313078501    -1.336244991789     0.926620723469     1.007825032230
         H           -3.141607921499    -0.913417991789    -0.043194276531     1.007825032230

  Basis Set: AUG-CC-PVTZ
    Blend: AUG-CC-PVTZ
  Basis Set: (AUG-CC-PVTZ AUX)
    Blend: AUG-CC-PVTZ-JKFIT
	 Reference Energy          =    -453.4352336528881438 [Eh]
	 Singles Energy            =      -0.0000000000000000 [Eh]
	 Same-Spin Energy          =      -0.4340013435413044 [Eh]
	 Opposite-Spin Energy      =      -1.2883513161986899 [Eh]
	 Correlation Energy        =      -1.7223526597399943 [Eh]
	 Total Energy              =    -455.1575863126281547 [Eh]

	 ================> DF-SCS-MP2 Energies <==================
	-----------------------------------------------------------
	 SCS Same-Spin Scale       =       0.3333333333333333 [-]
	 SCS Opposite-Spin Scale   =       1.2000000000000000 [-]
	 SCS Same-Spin Energy      =      -0.1446671145137681 [Eh]
	 SCS Opposite-Spin Energy  =      -1.5460215794384278 [Eh]
	 SCS Correlation Energy    =      -1.6906886939521959 [Eh]
	 SCS Total Energy          =    -455.1259223468403547 [Eh]
	-----------------------------------------------------------

  Dipole Moment: [D]
     X:    -1.3805      Y:     1.0761      Z:     1.5936     Total:     2.3671

*** Psi4 exiting successfully. Buy a developer a beer!
