                               Psi4 1.3.2 release

  ==> Input File <==

--------------------------------------------------------------------------
#psi4
#
memory 32 gb

molecule  {
0 1
  O        1.6287540    -0.6201880     1.1142450
  O       -2.7620560    -0.0348310     0.0798330
  O        2.1886480    -0.1218500    -1.0324370
  O       -0.8732870    -1.2159650    -0.3624810
  C        0.5918760     1.2475400     0.1132070
  C       -0.7452640     1.1476080     0.0762790
  C        1.5307310     0.0928540    -0.0315040
  C       -1.4267156    -0.2046011    -0.1018625
  H        1.0613430     2.2244020     0.1998120
  H       -1.3741190     2.0281690     0.1581920
  H        2.2467100    -1.3553630     0.9159410
  H       -3.1312110    -0.9325360    -0.0538740
units angstrom
no_reorient  #important for SAPT in psi4, default
symmetry c1  #important for SAPT in psi4, default
}

set PROPERTIES_ORIGIN ["COM"]
properties('MP2/aug-cc-pvtz', properties = ['dipole'])
--------------------------------------------------------------------------

    Molecular point group: c1
  Charge       = 0
  Multiplicity = 1
  Basis Set: AUG-CC-PVTZ
    Blend: AUG-CC-PVTZ
  Basis Set: (AUG-CC-PVTZ AUX)
    Blend: AUG-CC-PVTZ-JKFIT

    Orbital Energies [Eh]
    ---------------------

    Doubly Occupied:

       1A    -20.631307     2A    -20.622754     3A    -20.571072
       4A    -20.559706     5A    -11.407688     6A    -11.407083
       7A    -11.292057     8A    -11.279509     9A     -1.486051
      10A     -1.467935    11A     -1.393028    12A     -1.366004
      13A     -1.108976    14A     -0.948929    15A     -0.858956
      16A     -0.780119    17A     -0.732619    18A     -0.725042
      19A     -0.709263    20A     -0.667222    21A     -0.658969
      22A     -0.648817    23A     -0.613391    24A     -0.602651
      25A     -0.579711    26A     -0.515174    27A     -0.488566
      28A     -0.477221    29A     -0.464834    30A     -0.413788

  @DF-RHF Final Energy:  -453.43658899265426

   => Energetics <=

    Nuclear Repulsion Energy =            358.8589636936965803
    One-Electron Energy =               -1333.6342315589031386
    Two-Electron Energy =                 521.3386788725523502
    Total Energy =                       -453.4365889926542650
  Basis Set: (AUG-CC-PVTZ AUX)
    Blend: AUG-CC-PVTZ-RI
    Molecular point group: c1

    Geometry (in Angstrom), charge = 0, multiplicity = 1:

       Center              X                  Y                   Z               Mass
    ------------   -----------------  -----------------  -----------------  -----------------
         O            1.619160930147    -0.598686985879     1.125531576484    15.994914619570
         O           -2.771649069853    -0.013329985879     0.091119576484    15.994914619570
         O            2.179054930147    -0.100348985879    -1.021150423516    15.994914619570
         O           -0.882880069853    -1.194463985879    -0.351194423516    15.994914619570
         C            0.582282930147     1.269041014121     0.124493576484    12.000000000000
         C           -0.754857069853     1.169109014121     0.087565576484    12.000000000000
         C            1.521137930147     0.114355014121    -0.020217423516    12.000000000000
         C           -1.436308669853    -0.183100085879    -0.090575923516    12.000000000000
         H            1.051749930147     2.245903014121     0.211098576484     1.007825032230
         H           -1.383712069853     2.049670014121     0.169478576484     1.007825032230
         H            2.237116930147    -1.333861985879     0.927227576484     1.007825032230
         H           -3.140804069853    -0.911034985879    -0.042587423516     1.007825032230

  Basis Set: AUG-CC-PVTZ
    Blend: AUG-CC-PVTZ
  Basis Set: (AUG-CC-PVTZ AUX)
    Blend: AUG-CC-PVTZ-JKFIT
	 Reference Energy          =    -453.4365889926542650 [Eh]
	 Singles Energy            =      -0.0000000000000000 [Eh]
	 Same-Spin Energy          =      -0.4327786678264709 [Eh]
	 Opposite-Spin Energy      =      -1.2862879128414284 [Eh]
	 Correlation Energy        =      -1.7190665806678993 [Eh]
	 Total Energy              =    -455.1556555733221785 [Eh]

	 ================> DF-SCS-MP2 Energies <==================
	-----------------------------------------------------------
	 SCS Same-Spin Scale       =       0.3333333333333333 [-]
	 SCS Opposite-Spin Scale   =       1.2000000000000000 [-]
	 SCS Same-Spin Energy      =      -0.1442595559421569 [Eh]
	 SCS Opposite-Spin Energy  =      -1.5435454954097141 [Eh]
	 SCS Correlation Energy    =      -1.6878050513518710 [Eh]
	 SCS Total Energy          =    -455.1243940440061237 [Eh]
	-----------------------------------------------------------

  Dipole Moment: [D]
     X:    -1.4611      Y:     0.8132      Z:     1.5436     Total:     2.2756

*** Psi4 exiting successfully. Buy a developer a beer!
