                               Psi4 1.3.2 release

  ==> Input File <==

--------------------------------------------------------------------------
#psi4
#
memory 32 gb

molecule  {
0 1
  O        1.6287540    -0.6201880     1.1142450
  O       -2.7620560    -0.0348310     0.0798330
  O        2.1886480    -0.1218500    -1.0324370
  O       -0.8732870    -1.2159650    -0.3624810
  C        0.5946775     1.2011324     0.1076713
  C       -0.7452640     1.1476080     0.0762790
  C        1.5307310     0.0928540    -0.0315040
  C       -1.4205430    -0.1583360    -0.0935410
  H        1.0613430     2.2244020     0.1998120
  H       -1.3741190     2.0281690     0.1581920
  H        2.2467100    -1.3553630     0.9159410
  H       -3.1312110    -0.9325360    -0.0538740
units angstrom
no_reorient  #important for SAPT in psi4, default
symmetry c1  #important for SAPT in psi4, default
}

set PROPERTIES_ORIGIN ["COM"]
properties('MP2/aug-cc-pvtz', properties = ['dipole'])
--------------------------------------------------------------------------

    Molecular point group: c1
  Charge       = 0
  Multiplicity = 1
  Basis Set: AUG-CC-PVTZ
    Blend: AUG-CC-PVTZ
  Basis Set: (AUG-CC-PVTZ AUX)
    Blend: AUG-CC-PVTZ-JKFIT

    Orbital Energies [Eh]
    ---------------------

    Doubly Occupied:

       1A    -20.629909     2A    -20.623569     3A    -20.563614
       4A    -20.561647     5A    -11.408095     6A    -11.408089
       7A    -11.300240     8A    -11.281892     9A     -1.474788
      10A     -1.469428    11A     -1.370700    12A     -1.368004
      13A     -1.119923    14A     -0.965053    15A     -0.863967
      16A     -0.779705    17A     -0.734621    18A     -0.719777
      19A     -0.711028    20A     -0.669267    21A     -0.653824
      22A     -0.642030    23A     -0.609475    24A     -0.604567
      25A     -0.575707    26A     -0.506424    27A     -0.487336
      28A     -0.477306    29A     -0.467240    30A     -0.416640

  @DF-RHF Final Energy:  -453.43309439580150

   => Energetics <=

    Nuclear Repulsion Energy =            359.4576018145686476
    One-Electron Energy =               -1334.8536605214355859
    Two-Electron Energy =                 521.9629643110654342
    Total Energy =                       -453.4330943958015041
  Basis Set: (AUG-CC-PVTZ AUX)
    Blend: AUG-CC-PVTZ-RI
    Molecular point group: c1

    Geometry (in Angstrom), charge = 0, multiplicity = 1:

       Center              X                  Y                   Z               Mass
    ------------   -----------------  -----------------  -----------------  -----------------
         O            1.618232662669    -0.598672245892     1.125243417500    15.994914619570
         O           -2.772577337331    -0.013315245892     0.090831417500    15.994914619570
         O            2.178126662669    -0.100334245892    -1.021438582500    15.994914619570
         O           -0.883808337331    -1.194449245892    -0.351482582500    15.994914619570
         C            0.584156162669     1.222648154108     0.118669717500    12.000000000000
         C           -0.755785337331     1.169123754108     0.087277417500    12.000000000000
         C            1.520209662669     0.114369754108    -0.020505582500    12.000000000000
         C           -1.431064337331    -0.136820245892    -0.082542582500    12.000000000000
         H            1.050821662669     2.245917754108     0.210810417500     1.007825032230
         H           -1.384640337331     2.049684754108     0.169190417500     1.007825032230
         H            2.236188662669    -1.333847245892     0.926939417500     1.007825032230
         H           -3.141732337331    -0.911020245892    -0.042875582500     1.007825032230

  Basis Set: AUG-CC-PVTZ
    Blend: AUG-CC-PVTZ
  Basis Set: (AUG-CC-PVTZ AUX)
    Blend: AUG-CC-PVTZ-JKFIT
	 Reference Energy          =    -453.4330943958015041 [Eh]
	 Singles Energy            =      -0.0000000000000000 [Eh]
	 Same-Spin Energy          =      -0.4342514016118705 [Eh]
	 Opposite-Spin Energy      =      -1.2886236797081421 [Eh]
	 Correlation Energy        =      -1.7228750813200127 [Eh]
	 Total Energy              =    -455.1559694771215163 [Eh]

	 ================> DF-SCS-MP2 Energies <==================
	-----------------------------------------------------------
	 SCS Same-Spin Scale       =       0.3333333333333333 [-]
	 SCS Opposite-Spin Scale   =       1.2000000000000000 [-]
	 SCS Same-Spin Energy      =      -0.1447504672039568 [Eh]
	 SCS Opposite-Spin Energy  =      -1.5463484156497704 [Eh]
	 SCS Correlation Energy    =      -1.6910988828537272 [Eh]
	 SCS Total Energy          =    -455.1241932786552411 [Eh]
	-----------------------------------------------------------

  Dipole Moment: [D]
     X:    -1.3907      Y:     1.0820      Z:     1.5932     Total:     2.3755

*** Psi4 exiting successfully. Buy a developer a beer!
