                               Psi4 1.3.2 release

  ==> Input File <==

--------------------------------------------------------------------------
#psi4
#
memory 32 gb

molecule  {
0 1
  O        1.6287540    -0.6201880     1.1142450
  O       -2.7620560    -0.0348310     0.0798330
  O        2.1886480    -0.1218500    -1.0324370
  O       -0.8732870    -1.2159650    -0.3624810
  C        0.5958229     1.1545195     0.1033281
  C       -0.7452640     1.1476080     0.0762790
  C        1.5307310     0.0928540    -0.0315040
  C       -1.4205430    -0.1583360    -0.0935410
  H        1.0613430     2.2244020     0.1998120
  H       -1.3741190     2.0281690     0.1581920
  H        2.2467100    -1.3553630     0.9159410
  H       -3.1312110    -0.9325360    -0.0538740
units angstrom
no_reorient  #important for SAPT in psi4, default
symmetry c1  #important for SAPT in psi4, default
}

set PROPERTIES_ORIGIN ["COM"]
properties('MP2/aug-cc-pvtz', properties = ['dipole'])
--------------------------------------------------------------------------

    Molecular point group: c1
  Charge       = 0
  Multiplicity = 1
  Basis Set: AUG-CC-PVTZ
    Blend: AUG-CC-PVTZ
  Basis Set: (AUG-CC-PVTZ AUX)
    Blend: AUG-CC-PVTZ-JKFIT

    Orbital Energies [Eh]
    ---------------------

    Doubly Occupied:

       1A    -20.629381     2A    -20.623459     3A    -20.562983
       4A    -20.561879     5A    -11.406943     6A    -11.406708
       7A    -11.301650     8A    -11.283285     9A     -1.474928
      10A     -1.470132    11A     -1.370329    12A     -1.368636
      13A     -1.123076    14A     -0.971862    15A     -0.864880
      16A     -0.777878    17A     -0.734494    18A     -0.720826
      19A     -0.711666    20A     -0.672441    21A     -0.651566
      22A     -0.641801    23A     -0.608352    24A     -0.606369
      25A     -0.568169    26A     -0.506466    27A     -0.487553
      28A     -0.478522    29A     -0.466879    30A     -0.416885

  @DF-RHF Final Energy:  -453.42524278708777

   => Energetics <=

    Nuclear Repulsion Energy =            360.2246286075462081
    One-Electron Energy =               -1336.3597423448748032
    Two-Electron Energy =                 522.7098709502407701
    Total Energy =                       -453.4252427870877682
  Basis Set: (AUG-CC-PVTZ AUX)
    Blend: AUG-CC-PVTZ-RI
    Molecular point group: c1

    Geometry (in Angstrom), charge = 0, multiplicity = 1:

       Center              X                  Y                   Z               Mass
    ------------   -----------------  -----------------  -----------------  -----------------
         O            1.618114184206    -0.593850677251     1.125692671610    15.994914619570
         O           -2.772695815794    -0.008493677251     0.091280671610    15.994914619570
         O            2.178008184206    -0.095512677251    -1.020989328390    15.994914619570
         O           -0.883926815794    -1.189627677251    -0.351033328390    15.994914619570
         C            0.585183084206     1.180856822749     0.114775771610    12.000000000000
         C           -0.755903815794     1.173945322749     0.087726671610    12.000000000000
         C            1.520091184206     0.119191322749    -0.020056328390    12.000000000000
         C           -1.431182815794    -0.131998677251    -0.082093328390    12.000000000000
         H            1.050703184206     2.250739322749     0.211259671610     1.007825032230
         H           -1.384758815794     2.054506322749     0.169639671610     1.007825032230
         H            2.236070184206    -1.329025677251     0.927388671610     1.007825032230
         H           -3.141850815794    -0.906198677251    -0.042426328390     1.007825032230

  Basis Set: AUG-CC-PVTZ
    Blend: AUG-CC-PVTZ
  Basis Set: (AUG-CC-PVTZ AUX)
    Blend: AUG-CC-PVTZ-JKFIT
	 Reference Energy          =    -453.4252427870877682 [Eh]
	 Singles Energy            =      -0.0000000000000000 [Eh]
	 Same-Spin Energy          =      -0.4348684514543306 [Eh]
	 Opposite-Spin Energy      =      -1.2894139119295427 [Eh]
	 Correlation Energy        =      -1.7242823633838733 [Eh]
	 Total Energy              =    -455.1495251504716180 [Eh]

	 ================> DF-SCS-MP2 Energies <==================
	-----------------------------------------------------------
	 SCS Same-Spin Scale       =       0.3333333333333333 [-]
	 SCS Opposite-Spin Scale   =       1.2000000000000000 [-]
	 SCS Same-Spin Energy      =      -0.1449561504847769 [Eh]
	 SCS Opposite-Spin Energy  =      -1.5472966943154511 [Eh]
	 SCS Correlation Energy    =      -1.6922528448002281 [Eh]
	 SCS Total Energy          =    -455.1174956318880049 [Eh]
	-----------------------------------------------------------

  Dipole Moment: [D]
     X:    -1.4170      Y:     1.0947      Z:     1.5904     Total:     2.3949

*** Psi4 exiting successfully. Buy a developer a beer!
