                               Psi4 1.3.2 release

  ==> Input File <==

--------------------------------------------------------------------------
#psi4
#
memory 32 gb

molecule  {
0 1
  O        1.6287540    -0.6201880     1.1142450
  O       -2.7620560    -0.0348310     0.0798330
  O        2.1886480    -0.1218500    -1.0324370
  O       -0.8922517    -1.2256685    -0.3620677
  C        0.5918760     1.2475400     0.1132070
  C       -0.7452640     1.1476080     0.0762790
  C        1.5307310     0.0928540    -0.0315040
  C       -1.4205430    -0.1583360    -0.0935410
  H        1.0613430     2.2244020     0.1998120
  H       -1.3741190     2.0281690     0.1581920
  H        2.2467100    -1.3553630     0.9159410
  H       -3.1312110    -0.9325360    -0.0538740
units angstrom
no_reorient  #important for SAPT in psi4, default
symmetry c1  #important for SAPT in psi4, default
}

set PROPERTIES_ORIGIN ["COM"]
properties('MP2/aug-cc-pvtz', properties = ['dipole'])
--------------------------------------------------------------------------

    Molecular point group: c1
  Charge       = 0
  Multiplicity = 1
  Basis Set: AUG-CC-PVTZ
    Blend: AUG-CC-PVTZ
  Basis Set: (AUG-CC-PVTZ AUX)
    Blend: AUG-CC-PVTZ-JKFIT

    Orbital Energies [Eh]
    ---------------------

    Doubly Occupied:

       1A    -20.628700     2A    -20.624233     3A    -20.563856
       4A    -20.562074     5A    -11.409898     6A    -11.409120
       7A    -11.299973     8A    -11.281938     9A     -1.474813
      10A     -1.469076    11A     -1.369386    12A     -1.367942
      13A     -1.118172    14A     -0.959892    15A     -0.862908
      16A     -0.782476    17A     -0.734512    18A     -0.718257
      19A     -0.710921    20A     -0.667073    21A     -0.656932
      22A     -0.641713    23A     -0.612021    24A     -0.604714
      25A     -0.579067    26A     -0.505456    27A     -0.487367
      28A     -0.476656    29A     -0.466894    30A     -0.417392

  @DF-RHF Final Energy:  -453.43621641870220

   => Energetics <=

    Nuclear Repulsion Energy =            358.4780547028722140
    One-Electron Energy =               -1332.9016796461057766
    Two-Electron Energy =                 520.9874085245313609
    Total Energy =                       -453.4362164187022017
  Basis Set: (AUG-CC-PVTZ AUX)
    Blend: AUG-CC-PVTZ-RI
    Molecular point group: c1

    Geometry (in Angstrom), charge = 0, multiplicity = 1:

       Center              X                  Y                   Z               Mass
    ------------   -----------------  -----------------  -----------------  -----------------
         O            1.621137187908    -0.602134716600     1.124613829579    15.994914619570
         O           -2.769672812092    -0.016777716600     0.090201829579    15.994914619570
         O            2.181031187908    -0.103796716600    -1.022068170421    15.994914619570
         O           -0.899868512092    -1.207615216600    -0.351698870421    15.994914619570
         C            0.584259187908     1.265593283400     0.123575829579    12.000000000000
         C           -0.752880812092     1.165661283400     0.086647829579    12.000000000000
         C            1.523114187908     0.110907283400    -0.021135170421    12.000000000000
         C           -1.428159812092    -0.140282716600    -0.083172170421    12.000000000000
         H            1.053726187908     2.242455283400     0.210180829579     1.007825032230
         H           -1.381735812092     2.046222283400     0.168560829579     1.007825032230
         H            2.239093187908    -1.337309716600     0.926309829579     1.007825032230
         H           -3.138827812092    -0.914482716600    -0.043505170421     1.007825032230

  Basis Set: AUG-CC-PVTZ
    Blend: AUG-CC-PVTZ
  Basis Set: (AUG-CC-PVTZ AUX)
    Blend: AUG-CC-PVTZ-JKFIT
	 Reference Energy          =    -453.4362164187022017 [Eh]
	 Singles Energy            =      -0.0000000000000000 [Eh]
	 Same-Spin Energy          =      -0.4337236425557517 [Eh]
	 Opposite-Spin Energy      =      -1.2880339754155430 [Eh]
	 Correlation Energy        =      -1.7217576179712948 [Eh]
	 Total Energy              =    -455.1579740366735223 [Eh]

	 ================> DF-SCS-MP2 Energies <==================
	-----------------------------------------------------------
	 SCS Same-Spin Scale       =       0.3333333333333333 [-]
	 SCS Opposite-Spin Scale   =       1.2000000000000000 [-]
	 SCS Same-Spin Energy      =      -0.1445745475185839 [Eh]
	 SCS Opposite-Spin Energy  =      -1.5456407704986515 [Eh]
	 SCS Correlation Energy    =      -1.6902153180172355 [Eh]
	 SCS Total Energy          =    -455.1264317367194394 [Eh]
	-----------------------------------------------------------

  Dipole Moment: [D]
     X:    -1.3048      Y:     1.1081      Z:     1.5970     Total:     2.3411

*** Psi4 exiting successfully. Buy a developer a beer!
