                               Psi4 1.3.2 release

  ==> Input File <==

--------------------------------------------------------------------------
#psi4
#
memory 32 gb

molecule  {
0 1
  O        1.6287540    -0.6201880     1.1142450
  O       -2.7620560    -0.0348310     0.0798330
  O        2.1886480    -0.1218500    -1.0324370
  O       -0.8732870    -1.2159650    -0.3624810
  C        0.5813912     1.3399336     0.1241368
  C       -0.7452640     1.1476080     0.0762790
  C        1.5307310     0.0928540    -0.0315040
  C       -1.4205430    -0.1583360    -0.0935410
  H        1.0613430     2.2244020     0.1998120
  H       -1.3741190     2.0281690     0.1581920
  H        2.2467100    -1.3553630     0.9159410
  H       -3.1312110    -0.9325360    -0.0538740
units angstrom
no_reorient  #important for SAPT in psi4, default
symmetry c1  #important for SAPT in psi4, default
}

set PROPERTIES_ORIGIN ["COM"]
properties('MP2/aug-cc-pvtz', properties = ['dipole'])
--------------------------------------------------------------------------

    Molecular point group: c1
  Charge       = 0
  Multiplicity = 1
  Basis Set: AUG-CC-PVTZ
    Blend: AUG-CC-PVTZ
  Basis Set: (AUG-CC-PVTZ AUX)
    Blend: AUG-CC-PVTZ-JKFIT

    Orbital Energies [Eh]
    ---------------------

    Doubly Occupied:

       1A    -20.631942     2A    -20.623188     3A    -20.566021
       4A    -20.560280     5A    -11.412315     6A    -11.410719
       7A    -11.297838     8A    -11.280300     9A     -1.475836
      10A     -1.466285    11A     -1.372377    12A     -1.365480
      13A     -1.113177    14A     -0.952510    15A     -0.858698
      16A     -0.791808    17A     -0.732849    18A     -0.716837
      19A     -0.708582    20A     -0.673245    21A     -0.656595
      22A     -0.642885    23A     -0.616413    24A     -0.607232
      25A     -0.572781    26A     -0.506551    27A     -0.486392
      28A     -0.476384    29A     -0.460905    30A     -0.416860

  @DF-RHF Final Energy:  -453.42731094011589

   => Energetics <=

    Nuclear Repulsion Energy =            357.2650388682874905
    One-Electron Energy =               -1330.4781321436848884
    Two-Electron Energy =                 519.7857823352813966
    Total Energy =                       -453.4273109401159445
  Basis Set: (AUG-CC-PVTZ AUX)
    Blend: AUG-CC-PVTZ-RI
    Molecular point group: c1

    Geometry (in Angstrom), charge = 0, multiplicity = 1:

       Center              X                  Y                   Z               Mass
    ------------   -----------------  -----------------  -----------------  -----------------
         O            1.619606977664    -0.613029634366     1.123540250813    15.994914619570
         O           -2.771203022336    -0.027672634366     0.089128250813    15.994914619570
         O            2.179500977664    -0.114691634366    -1.023141749187    15.994914619570
         O           -0.882434022336    -1.208806634366    -0.353185749187    15.994914619570
         C            0.572244177664     1.347091965634     0.133432050813    12.000000000000
         C           -0.754411022336     1.154766365634     0.085574250813    12.000000000000
         C            1.521583977664     0.100012365634    -0.022208749187    12.000000000000
         C           -1.429690022336    -0.151177634366    -0.084245749187    12.000000000000
         H            1.052195977664     2.231560365634     0.209107250813     1.007825032230
         H           -1.383266022336     2.035327365634     0.167487250813     1.007825032230
         H            2.237562977664    -1.348204634366     0.925236250813     1.007825032230
         H           -3.140358022336    -0.925377634366    -0.044578749187     1.007825032230

  Basis Set: AUG-CC-PVTZ
    Blend: AUG-CC-PVTZ
  Basis Set: (AUG-CC-PVTZ AUX)
    Blend: AUG-CC-PVTZ-JKFIT
	 Reference Energy          =    -453.4273109401158877 [Eh]
	 Singles Energy            =      -0.0000000000000000 [Eh]
	 Same-Spin Energy          =      -0.4333175028664607 [Eh]
	 Opposite-Spin Energy      =      -1.2882030996275209 [Eh]
	 Correlation Energy        =      -1.7215206024939815 [Eh]
	 Total Energy              =    -455.1488315426098552 [Eh]

	 ================> DF-SCS-MP2 Energies <==================
	-----------------------------------------------------------
	 SCS Same-Spin Scale       =       0.3333333333333333 [-]
	 SCS Opposite-Spin Scale   =       1.2000000000000000 [-]
	 SCS Same-Spin Energy      =      -0.1444391676221536 [Eh]
	 SCS Opposite-Spin Energy  =      -1.5458437195530250 [Eh]
	 SCS Correlation Energy    =      -1.6902828871751785 [Eh]
	 SCS Total Energy          =    -455.1175938272910457 [Eh]
	-----------------------------------------------------------

  Dipole Moment: [D]
     X:    -1.3585      Y:     1.0480      Z:     1.5920     Total:     2.3406

*** Psi4 exiting successfully. Buy a developer a beer!
