                               Psi4 1.3.2 release

  ==> Input File <==

--------------------------------------------------------------------------
#psi4
#
memory 32 gb

molecule  {
0 1
  O        1.6287540    -0.6201880     1.1142450
  O       -2.7620560    -0.0348310     0.0798330
  O        2.1886480    -0.1218500    -1.0324370
  O       -0.8732870    -1.2159650    -0.3624810
  C        0.5918760     1.2475400     0.1132070
  C       -0.7452640     1.1476080     0.0762790
  C        1.5307310     0.0928540    -0.0315040
  C       -1.5107114    -0.1080227    -0.0904911
  H        1.0613430     2.2244020     0.1998120
  H       -1.3741190     2.0281690     0.1581920
  H        2.2467100    -1.3553630     0.9159410
  H       -3.1312110    -0.9325360    -0.0538740
units angstrom
no_reorient  #important for SAPT in psi4, default
symmetry c1  #important for SAPT in psi4, default
}

set PROPERTIES_ORIGIN ["COM"]
properties('MP2/aug-cc-pvtz', properties = ['dipole'])
--------------------------------------------------------------------------

    Molecular point group: c1
  Charge       = 0
  Multiplicity = 1
  Basis Set: AUG-CC-PVTZ
    Blend: AUG-CC-PVTZ
  Basis Set: (AUG-CC-PVTZ AUX)
    Blend: AUG-CC-PVTZ-JKFIT

    Orbital Energies [Eh]
    ---------------------

    Doubly Occupied:

       1A    -20.657339     2A    -20.618661     3A    -20.556889
       4A    -20.544263     5A    -11.413550     6A    -11.405642
       7A    -11.300036     8A    -11.280802     9A     -1.518215
      10A     -1.464539    11A     -1.362716    12A     -1.323652
      13A     -1.113570    14A     -0.969432    15A     -0.876870
      16A     -0.797889    17A     -0.732301    18A     -0.728658
      19A     -0.706040    20A     -0.675619    21A     -0.666298
      22A     -0.652882    23A     -0.606010    24A     -0.592517
      25A     -0.559170    26A     -0.492851    27A     -0.476315
      28A     -0.465054    29A     -0.455345    30A     -0.410558

  @DF-RHF Final Energy:  -453.41717960321733

   => Energetics <=

    Nuclear Repulsion Energy =            358.0931426361049716
    One-Electron Energy =               -1332.1732806612194508
    Two-Electron Energy =                 520.6629584218972013
    Total Energy =                       -453.4171796032172779
  Basis Set: (AUG-CC-PVTZ AUX)
    Blend: AUG-CC-PVTZ-RI
    Molecular point group: c1

    Geometry (in Angstrom), charge = 0, multiplicity = 1:

       Center              X                  Y                   Z               Mass
    ------------   -----------------  -----------------  -----------------  -----------------
         O            1.627849330037    -0.608676911088     1.124355335880    15.994914619570
         O           -2.762960669963    -0.023319911088     0.089943335880    15.994914619570
         O            2.187743330037    -0.110338911088    -1.022326664120    15.994914619570
         O           -0.874191669963    -1.204453911088    -0.352370664120    15.994914619570
         C            0.590971330037     1.259051088912     0.123317335880    12.000000000000
         C           -0.746168669963     1.159119088912     0.086389335880    12.000000000000
         C            1.529826330037     0.104365088912    -0.021393664120    12.000000000000
         C           -1.511616069963    -0.096511611088    -0.080380764120    12.000000000000
         H            1.060438330037     2.235913088912     0.209922335880     1.007825032230
         H           -1.375023669963     2.039680088912     0.168302335880     1.007825032230
         H            2.245805330037    -1.343851911088     0.926051335880     1.007825032230
         H           -3.132115669963    -0.921024911088    -0.043763664120     1.007825032230

  Basis Set: AUG-CC-PVTZ
    Blend: AUG-CC-PVTZ
  Basis Set: (AUG-CC-PVTZ AUX)
    Blend: AUG-CC-PVTZ-JKFIT
	 Reference Energy          =    -453.4171796032173347 [Eh]
	 Singles Energy            =      -0.0000000000000000 [Eh]
	 Same-Spin Energy          =      -0.4349035438911532 [Eh]
	 Opposite-Spin Energy      =      -1.2898176622617319 [Eh]
	 Correlation Energy        =      -1.7247212061528852 [Eh]
	 Total Energy              =    -455.1419008093702132 [Eh]

	 ================> DF-SCS-MP2 Energies <==================
	-----------------------------------------------------------
	 SCS Same-Spin Scale       =       0.3333333333333333 [-]
	 SCS Opposite-Spin Scale   =       1.2000000000000000 [-]
	 SCS Same-Spin Energy      =      -0.1449678479637177 [Eh]
	 SCS Opposite-Spin Energy  =      -1.5477811947140783 [Eh]
	 SCS Correlation Energy    =      -1.6927490426777960 [Eh]
	 SCS Total Energy          =    -455.1099286458951383 [Eh]
	-----------------------------------------------------------

  Dipole Moment: [D]
     X:    -2.1764      Y:     1.3339      Z:     1.7152     Total:     3.0754

*** Psi4 exiting successfully. Buy a developer a beer!
