                               Psi4 1.3.2 release

  ==> Input File <==

--------------------------------------------------------------------------
#psi4
#
memory 32 gb

molecule  {
0 1
 Br       -2.8410010     0.6223350     0.0000430
 Br        2.8410110     0.6223260    -0.0000690
  C        0.0000010     0.3842340     0.0000060
  C       -1.1947360    -0.3356120     0.0000280
  C        1.1947310    -0.3356150     0.0000060
  C       -1.2149130    -1.7308340     0.0000450
  C        1.2148860    -1.7308340     0.0000120
  C       -0.0000170    -2.4179180     0.0000370
  H        0.0000118     1.4694282     0.2999920
  H       -2.1604800    -2.2639390     0.0000780
  H        2.1604490    -2.2639450     0.0000000
  H       -0.0000260    -3.5052070     0.0000330
units angstrom
no_reorient  #important for SAPT in psi4, default
symmetry c1  #important for SAPT in psi4, default
}

set PROPERTIES_ORIGIN ["COM"]
properties('MP2/aug-cc-pvtz', properties = ['dipole'])
--------------------------------------------------------------------------

    Molecular point group: c1
  Charge       = 0
  Multiplicity = 1
  Basis Set: AUG-CC-PVTZ
    Blend: AUG-CC-PVTZ
  Basis Set: (AUG-CC-PVTZ AUX)
    Blend: AUG-CC-PVTZ-JKFIT

    Orbital Energies [Eh]
    ---------------------

    Doubly Occupied:

       1A   -490.034340     2A   -490.034340     3A    -65.174059
       4A    -65.174058     5A    -58.529386     6A    -58.529386
       7A    -58.527972     8A    -58.527971     9A    -58.527940
      10A    -58.527939    11A    -11.318239    12A    -11.318227
      13A    -11.274570    14A    -11.268908    15A    -11.266786
      16A    -11.266430    17A     -9.846786    18A     -9.846786
      19A     -7.458442    20A     -7.458442    21A     -7.451547
      22A     -7.451546    23A     -7.451471    24A     -7.451471
      25A     -3.202245    26A     -3.202244    27A     -3.198666
      28A     -3.198665    29A     -3.198429    30A     -3.198428
      31A     -3.189618    32A     -3.189618    33A     -3.189610
      34A     -3.189610    35A     -1.196173    36A     -1.098847
      37A     -1.068328    38A     -0.999100    39A     -0.980307
      40A     -0.849740    41A     -0.817014    42A     -0.714110
      43A     -0.668713    44A     -0.635960    45A     -0.590895
      46A     -0.590272    47A     -0.556201    48A     -0.515807
      49A     -0.499070    50A     -0.470102    51A     -0.431735
      52A     -0.428361    53A     -0.422404    54A     -0.356395
      55A     -0.342397

  @DF-RHF Final Energy: -5374.52621374822047

   => Energetics <=

    Nuclear Repulsion Energy =            764.1965291286014690
    One-Electron Energy =               -8997.6332695180535666
    Two-Electron Energy =                2858.9105266412320816
    Total Energy =                      -5374.5262137482204707
  Basis Set: (AUG-CC-PVTZ AUX)
    Blend: AUG-CC-PVTZ-RI
    Molecular point group: c1

    Geometry (in Angstrom), charge = 0, multiplicity = 1:

       Center              X                  Y                   Z               Mass
    ------------   -----------------  -----------------  -----------------  -----------------
         BR          -2.841001716771     0.547024965363    -0.001248358676    78.918337600000
         BR           2.841010283229     0.547015965363    -0.001360358676    78.918337600000
         C            0.000000283229     0.308923965363    -0.001285358676    12.000000000000
         C           -1.194736716771    -0.410922034637    -0.001263358676    12.000000000000
         C            1.194730283229    -0.410925034637    -0.001285358676    12.000000000000
         C           -1.214913716771    -1.806144034637    -0.001246358676    12.000000000000
         C            1.214885283229    -1.806144034637    -0.001279358676    12.000000000000
         C           -0.000017716771    -2.493228034637    -0.001254358676    12.000000000000
         H            0.000011083229     1.394118165363     0.298700641324     1.007825032230
         H           -2.160480716771    -2.339249034637    -0.001213358676     1.007825032230
         H            2.160448283229    -2.339255034637    -0.001291358676     1.007825032230
         H           -0.000026716771    -3.580517034637    -0.001258358676     1.007825032230

  Basis Set: AUG-CC-PVTZ
    Blend: AUG-CC-PVTZ
  Basis Set: (AUG-CC-PVTZ AUX)
    Blend: AUG-CC-PVTZ-JKFIT
	 Reference Energy          =   -5374.5262137482204707 [Eh]
	 Singles Energy            =      -0.0000000000000000 [Eh]
	 Same-Spin Energy          =      -0.4440357576852170 [Eh]
	 Opposite-Spin Energy      =      -1.2079654694626205 [Eh]
	 Correlation Energy        =      -1.6520012271478375 [Eh]
	 Total Energy              =   -5376.1782149753680642 [Eh]

	 ================> DF-SCS-MP2 Energies <==================
	-----------------------------------------------------------
	 SCS Same-Spin Scale       =       0.3333333333333333 [-]
	 SCS Opposite-Spin Scale   =       1.2000000000000000 [-]
	 SCS Same-Spin Energy      =      -0.1480119192284057 [Eh]
	 SCS Opposite-Spin Energy  =      -1.4495585633551447 [Eh]
	 SCS Correlation Energy    =      -1.5975704825835504 [Eh]
	 SCS Total Energy          =   -5376.1237842308037216 [Eh]
	-----------------------------------------------------------

  Dipole Moment: [D]
     X:    -0.0000      Y:    -1.6659      Z:     0.1716     Total:     1.6747

*** Psi4 exiting successfully. Buy a developer a beer!
