                               Psi4 1.3.2 release

  ==> Input File <==

--------------------------------------------------------------------------
#psi4
#
memory 32 gb

molecule  {
0 1
 Br       -2.8410010     0.6223350     0.0000430
 Br        2.8410110     0.6223260    -0.0000690
  C        0.0000010     0.3842340     0.0000060
  C       -1.1947360    -0.3356120     0.0000280
  C        1.1947310    -0.3356150     0.0000060
  C       -1.2149130    -1.7308340     0.0000450
  C        1.2148860    -1.7308340     0.0000120
  C       -0.0000170    -2.4179180     0.0000370
  H        0.0000090     1.4694240    -0.0000080
  H       -2.1604840    -2.2639422    -0.1999220
  H        2.1604490    -2.2639450     0.0000000
  H       -0.0000260    -3.5052070     0.0000330
units angstrom
no_reorient  #important for SAPT in psi4, default
symmetry c1  #important for SAPT in psi4, default
}

set PROPERTIES_ORIGIN ["COM"]
properties('MP2/aug-cc-pvtz', properties = ['dipole'])
--------------------------------------------------------------------------

    Molecular point group: c1
  Charge       = 0
  Multiplicity = 1
  Basis Set: AUG-CC-PVTZ
    Blend: AUG-CC-PVTZ
  Basis Set: (AUG-CC-PVTZ AUX)
    Blend: AUG-CC-PVTZ-JKFIT

    Orbital Energies [Eh]
    ---------------------

    Doubly Occupied:

       1A   -490.034574     2A   -490.034351     3A    -65.174292
       4A    -65.174071     5A    -58.529620     6A    -58.529399
       7A    -58.528204     8A    -58.528176     9A    -58.527983
      10A    -58.527954    11A    -11.318028    12A    -11.317932
      13A    -11.271679    14A    -11.268788    15A    -11.267648
      16A    -11.266457    17A     -9.847019    18A     -9.846801
      19A     -7.458674    20A     -7.458456    21A     -7.451765
      22A     -7.451723    23A     -7.451554    24A     -7.451497
      25A     -3.202474    26A     -3.202257    27A     -3.198887
      28A     -3.198673    29A     -3.198673    30A     -3.198450
      31A     -3.189855    32A     -3.189848    33A     -3.189636
      34A     -3.189628    35A     -1.196244    36A     -1.098696
      37A     -1.068750    38A     -0.999871    39A     -0.979776
      40A     -0.851756    41A     -0.816187    42A     -0.715526
      43A     -0.668614    44A     -0.639809    45A     -0.592475
      46A     -0.588627    47A     -0.555781    48A     -0.519090
      49A     -0.498687    50A     -0.469868    51A     -0.431691
      52A     -0.428554    53A     -0.422568    54A     -0.356878
      55A     -0.342216

  @DF-RHF Final Energy: -5374.52982080655056

   => Energetics <=

    Nuclear Repulsion Energy =            764.3216597318389631
    One-Electron Energy =               -8997.8695727444464865
    Two-Electron Energy =                2859.0180922060567354
    Total Energy =                      -5374.5298208065505605
  Basis Set: (AUG-CC-PVTZ AUX)
    Blend: AUG-CC-PVTZ-RI
    Molecular point group: c1

    Geometry (in Angstrom), charge = 0, multiplicity = 1:

       Center              X                  Y                   Z               Mass
    ------------   -----------------  -----------------  -----------------  -----------------
         BR          -2.841001687467     0.547024997252     0.000906329308    78.918337600000
         BR           2.841010312533     0.547015997252     0.000794329308    78.918337600000
         C            0.000000312533     0.308923997252     0.000869329308    12.000000000000
         C           -1.194736687467    -0.410922002748     0.000891329308    12.000000000000
         C            1.194730312533    -0.410925002748     0.000869329308    12.000000000000
         C           -1.214913687467    -1.806144002748     0.000908329308    12.000000000000
         C            1.214885312533    -1.806144002748     0.000875329308    12.000000000000
         C           -0.000017687467    -2.493228002748     0.000900329308    12.000000000000
         H            0.000008312533     1.394113997252     0.000855329308     1.007825032230
         H           -2.160484687467    -2.339252202748    -0.199058670692     1.007825032230
         H            2.160448312533    -2.339255002748     0.000863329308     1.007825032230
         H           -0.000026687467    -3.580517002748     0.000896329308     1.007825032230

  Basis Set: AUG-CC-PVTZ
    Blend: AUG-CC-PVTZ
  Basis Set: (AUG-CC-PVTZ AUX)
    Blend: AUG-CC-PVTZ-JKFIT
	 Reference Energy          =   -5374.5298208065505605 [Eh]
	 Singles Energy            =      -0.0000000000000000 [Eh]
	 Same-Spin Energy          =      -0.4438017794278177 [Eh]
	 Opposite-Spin Energy      =      -1.2075229419778857 [Eh]
	 Correlation Energy        =      -1.6513247214057034 [Eh]
	 Total Energy              =   -5376.1811455279566871 [Eh]

	 ================> DF-SCS-MP2 Energies <==================
	-----------------------------------------------------------
	 SCS Same-Spin Scale       =       0.3333333333333333 [-]
	 SCS Opposite-Spin Scale   =       1.2000000000000000 [-]
	 SCS Same-Spin Energy      =      -0.1479339264759392 [Eh]
	 SCS Opposite-Spin Energy  =      -1.4490275303734628 [Eh]
	 SCS Correlation Energy    =      -1.5969614568494019 [Eh]
	 SCS Total Energy          =   -5376.1267822633999458 [Eh]
	-----------------------------------------------------------

  Dipole Moment: [D]
     X:     0.0266      Y:    -1.6014      Z:    -0.1218     Total:     1.6063

*** Psi4 exiting successfully. Buy a developer a beer!
