                               Psi4 1.3.2 release

  ==> Input File <==

--------------------------------------------------------------------------
#psi4
#
memory 32 gb

molecule  {
0 1
 Br       -2.8410010     0.6223350     0.0000430
 Br        2.8410110     0.6223260    -0.0000690
  C        0.0000010     0.3842340     0.0000060
  C       -1.1947360    -0.3356120     0.0000280
  C        1.1947310    -0.3356150     0.0000060
  C       -1.2149130    -1.7308340     0.0000450
  C        1.2148860    -1.7308340     0.0000120
  C       -0.0000170    -2.4179180     0.0000370
  H        0.0000104     1.4694261     0.1499920
  H       -2.1604800    -2.2639390     0.0000780
  H        2.1604490    -2.2639450     0.0000000
  H       -0.0000260    -3.5052070     0.0000330
units angstrom
no_reorient  #important for SAPT in psi4, default
symmetry c1  #important for SAPT in psi4, default
}

set PROPERTIES_ORIGIN ["COM"]
properties('MP2/aug-cc-pvtz', properties = ['dipole'])
--------------------------------------------------------------------------

    Molecular point group: c1
  Charge       = 0
  Multiplicity = 1
  Basis Set: AUG-CC-PVTZ
    Blend: AUG-CC-PVTZ
  Basis Set: (AUG-CC-PVTZ AUX)
    Blend: AUG-CC-PVTZ-JKFIT

    Orbital Energies [Eh]
    ---------------------

    Doubly Occupied:

       1A   -490.034362     2A   -490.034362     3A    -65.174080
       4A    -65.174080     5A    -58.529408     6A    -58.529407
       7A    -58.527992     8A    -58.527992     9A    -58.527964
      10A    -58.527963    11A    -11.317828    12A    -11.317817
      13A    -11.272369    14A    -11.268436    15A    -11.266696
      16A    -11.266265    17A     -9.846807    18A     -9.846807
      19A     -7.458462    20A     -7.458461    21A     -7.451558
      22A     -7.451558    23A     -7.451507    24A     -7.451506
      25A     -3.202262    26A     -3.202261    27A     -3.198677
      28A     -3.198676    29A     -3.198459    30A     -3.198458
      31A     -3.189644    32A     -3.189643    33A     -3.189636
      34A     -3.189636    35A     -1.196170    36A     -1.098764
      37A     -1.068634    38A     -0.999646    39A     -0.980209
      40A     -0.851273    41A     -0.816900    42A     -0.716831
      43A     -0.668584    44A     -0.638723    45A     -0.592312
      46A     -0.590159    47A     -0.556597    48A     -0.518360
      49A     -0.498944    50A     -0.470081    51A     -0.431755
      52A     -0.428466    53A     -0.422484    54A     -0.356732
      55A     -0.342305

  @DF-RHF Final Energy: -5374.53100223041110

   => Energetics <=

    Nuclear Repulsion Energy =            764.3507409815689471
    One-Electron Energy =               -8997.9335524170237477
    Two-Electron Energy =                2859.0518092050447194
    Total Energy =                      -5374.5310022304111044
  Basis Set: (AUG-CC-PVTZ AUX)
    Blend: AUG-CC-PVTZ-RI
    Molecular point group: c1

    Geometry (in Angstrom), charge = 0, multiplicity = 1:

       Center              X                  Y                   Z               Mass
    ------------   -----------------  -----------------  -----------------  -----------------
         BR          -2.841001710737     0.547024974412    -0.000601952281    78.918337600000
         BR           2.841010289263     0.547015974412    -0.000713952281    78.918337600000
         C            0.000000289263     0.308923974412    -0.000638952281    12.000000000000
         C           -1.194736710737    -0.410922025588    -0.000616952281    12.000000000000
         C            1.194730289263    -0.410925025588    -0.000638952281    12.000000000000
         C           -1.214913710737    -1.806144025588    -0.000599952281    12.000000000000
         C            1.214885289263    -1.806144025588    -0.000632952281    12.000000000000
         C           -0.000017710737    -2.493228025588    -0.000607952281    12.000000000000
         H            0.000009689263     1.394116074412     0.149347047719     1.007825032230
         H           -2.160480710737    -2.339249025588    -0.000566952281     1.007825032230
         H            2.160448289263    -2.339255025588    -0.000644952281     1.007825032230
         H           -0.000026710737    -3.580517025588    -0.000611952281     1.007825032230

  Basis Set: AUG-CC-PVTZ
    Blend: AUG-CC-PVTZ
  Basis Set: (AUG-CC-PVTZ AUX)
    Blend: AUG-CC-PVTZ-JKFIT
	 Reference Energy          =   -5374.5310022304111044 [Eh]
	 Singles Energy            =      -0.0000000000000000 [Eh]
	 Same-Spin Energy          =      -0.4437624406130044 [Eh]
	 Opposite-Spin Energy      =      -1.2074102123023478 [Eh]
	 Correlation Energy        =      -1.6511726529153523 [Eh]
	 Total Energy              =   -5376.1821748833262973 [Eh]

	 ================> DF-SCS-MP2 Energies <==================
	-----------------------------------------------------------
	 SCS Same-Spin Scale       =       0.3333333333333333 [-]
	 SCS Opposite-Spin Scale   =       1.2000000000000000 [-]
	 SCS Same-Spin Energy      =      -0.1479208135376681 [Eh]
	 SCS Opposite-Spin Energy  =      -1.4488922547628174 [Eh]
	 SCS Correlation Energy    =      -1.5968130683004855 [Eh]
	 SCS Total Energy          =   -5376.1278152987115391 [Eh]
	-----------------------------------------------------------

  Dipole Moment: [D]
     X:    -0.0000      Y:    -1.6294      Z:     0.0864     Total:     1.6317

*** Psi4 exiting successfully. Buy a developer a beer!
