                               Psi4 1.3.2 release

  ==> Input File <==

--------------------------------------------------------------------------
#psi4
#
memory 32 gb

molecule  {
0 1
 Br       -2.8410010     0.6223350     0.0000430
 Br        2.8410110     0.6223260    -0.0000690
  C        0.0000010     0.3842340     0.0000060
  C       -1.1947360    -0.3356120     0.0000280
  C        1.1947310    -0.3356150     0.0000060
  C       -1.2149144    -1.7308350    -0.0999550
  C        1.2148860    -1.7308340     0.0000120
  C       -0.0000170    -2.4179180     0.0000370
  H        0.0000090     1.4694240    -0.0000080
  H       -2.1604800    -2.2639390     0.0000780
  H        2.1604490    -2.2639450     0.0000000
  H       -0.0000260    -3.5052070     0.0000330
units angstrom
no_reorient  #important for SAPT in psi4, default
symmetry c1  #important for SAPT in psi4, default
}

set PROPERTIES_ORIGIN ["COM"]
properties('MP2/aug-cc-pvtz', properties = ['dipole'])
--------------------------------------------------------------------------

    Molecular point group: c1
  Charge       = 0
  Multiplicity = 1
  Basis Set: AUG-CC-PVTZ
    Blend: AUG-CC-PVTZ
  Basis Set: (AUG-CC-PVTZ AUX)
    Blend: AUG-CC-PVTZ-JKFIT

    Orbital Energies [Eh]
    ---------------------

    Doubly Occupied:

       1A   -490.034607     2A   -490.034372     3A    -65.174324
       4A    -65.174098     5A    -58.529652     6A    -58.529423
       7A    -58.528236     8A    -58.528208     9A    -58.528009
      10A    -58.527980    11A    -11.318465    12A    -11.318156
      13A    -11.271477    14A    -11.269012    15A    -11.267254
      16A    -11.266335    17A     -9.847051    18A     -9.846833
      19A     -7.458706    20A     -7.458487    21A     -7.451798
      22A     -7.451754    23A     -7.451582    24A     -7.451536
      25A     -3.202507    26A     -3.202286    27A     -3.198920
      28A     -3.198705    29A     -3.198701    30A     -3.198483
      31A     -3.189887    32A     -3.189880    33A     -3.189672
      34A     -3.189664    35A     -1.195882    36A     -1.098614
      37A     -1.068518    38A     -0.999916    39A     -0.979876
      40A     -0.851304    41A     -0.816586    42A     -0.716806
      43A     -0.667723    44A     -0.639748    45A     -0.592546
      46A     -0.589236    47A     -0.556037    48A     -0.518945
      49A     -0.498810    50A     -0.469960    51A     -0.431653
      52A     -0.428512    53A     -0.422577    54A     -0.356677
      55A     -0.342285

  @DF-RHF Final Energy: -5374.52939257817980

   => Energetics <=

    Nuclear Repulsion Energy =            764.2726187759328695
    One-Electron Energy =               -8997.7674795835755504
    Two-Electron Energy =                2858.9654682294640224
    Total Energy =                      -5374.5293925781788857
  Basis Set: (AUG-CC-PVTZ AUX)
    Blend: AUG-CC-PVTZ-RI
    Molecular point group: c1

    Geometry (in Angstrom), charge = 0, multiplicity = 1:

       Center              X                  Y                   Z               Mass
    ------------   -----------------  -----------------  -----------------  -----------------
         BR          -2.841001632869     0.547025034773     0.005175554250    78.918337600000
         BR           2.841010367131     0.547016034773     0.005063554250    78.918337600000
         C            0.000000367131     0.308924034773     0.005138554250    12.000000000000
         C           -1.194736632869    -0.410921965227     0.005160554250    12.000000000000
         C            1.194730367131    -0.410924965227     0.005138554250    12.000000000000
         C           -1.214915032869    -1.806144965227    -0.094822445750    12.000000000000
         C            1.214885367131    -1.806143965227     0.005144554250    12.000000000000
         C           -0.000017632869    -2.493227965227     0.005169554250    12.000000000000
         H            0.000008367131     1.394114034773     0.005124554250     1.007825032230
         H           -2.160480632869    -2.339248965227     0.005210554250     1.007825032230
         H            2.160448367131    -2.339254965227     0.005132554250     1.007825032230
         H           -0.000026632869    -3.580516965227     0.005165554250     1.007825032230

  Basis Set: AUG-CC-PVTZ
    Blend: AUG-CC-PVTZ
  Basis Set: (AUG-CC-PVTZ AUX)
    Blend: AUG-CC-PVTZ-JKFIT
	 Reference Energy          =   -5374.5293925781797952 [Eh]
	 Singles Energy            =      -0.0000000000000000 [Eh]
	 Same-Spin Energy          =      -0.4437892621243489 [Eh]
	 Opposite-Spin Energy      =      -1.2076112334142892 [Eh]
	 Correlation Energy        =      -1.6514004955386381 [Eh]
	 Total Energy              =   -5376.1807930737186325 [Eh]

	 ================> DF-SCS-MP2 Energies <==================
	-----------------------------------------------------------
	 SCS Same-Spin Scale       =       0.3333333333333333 [-]
	 SCS Opposite-Spin Scale   =       1.2000000000000000 [-]
	 SCS Same-Spin Energy      =      -0.1479297540414496 [Eh]
	 SCS Opposite-Spin Energy  =      -1.4491334800971469 [Eh]
	 SCS Correlation Energy    =      -1.5970632341385966 [Eh]
	 SCS Total Energy          =   -5376.1264558123184543 [Eh]
	-----------------------------------------------------------

  Dipole Moment: [D]
     X:     0.0217      Y:    -1.6041      Z:     0.0441     Total:     1.6049

*** Psi4 exiting successfully. Buy a developer a beer!
