                               Psi4 1.3.2 release

  ==> Input File <==

--------------------------------------------------------------------------
#psi4
#
memory 32 gb

molecule  {
0 1
 Br       -2.8410010     0.6223350     0.0000430
 Br        2.8410110     0.6223260    -0.0000690
  C        0.0000010     0.3842340     0.0000060
  C       -1.1947360    -0.3356120     0.0000280
  C        1.1947310    -0.3356150     0.0000060
  C       -1.2149151    -1.7308356    -0.1499550
  C        1.2148860    -1.7308340     0.0000120
  C       -0.0000170    -2.4179180     0.0000370
  H        0.0000090     1.4694240    -0.0000080
  H       -2.1604800    -2.2639390     0.0000780
  H        2.1604490    -2.2639450     0.0000000
  H       -0.0000260    -3.5052070     0.0000330
units angstrom
no_reorient  #important for SAPT in psi4, default
symmetry c1  #important for SAPT in psi4, default
}

set PROPERTIES_ORIGIN ["COM"]
properties('MP2/aug-cc-pvtz', properties = ['dipole'])
--------------------------------------------------------------------------

    Molecular point group: c1
  Charge       = 0
  Multiplicity = 1
  Basis Set: AUG-CC-PVTZ
    Blend: AUG-CC-PVTZ
  Basis Set: (AUG-CC-PVTZ AUX)
    Blend: AUG-CC-PVTZ-JKFIT

    Orbital Energies [Eh]
    ---------------------

    Doubly Occupied:

       1A   -490.034915     2A   -490.034397     3A    -65.174631
       4A    -65.174127     5A    -58.529959     6A    -58.529451
       7A    -58.528544     8A    -58.528513     9A    -58.528038
      10A    -58.528007    11A    -11.319439    12A    -11.318759
      13A    -11.271330    14A    -11.269974    15A    -11.268200
      16A    -11.266251    17A     -9.847357    18A     -9.846867
      19A     -7.459012    20A     -7.458518    21A     -7.452105
      22A     -7.452054    23A     -7.451619    24A     -7.451565
      25A     -3.202814    26A     -3.202317    27A     -3.199229
      28A     -3.199007    29A     -3.198736    30A     -3.198510
      31A     -3.190190    32A     -3.190183    33A     -3.189705
      34A     -3.189698    35A     -1.195537    36A     -1.098471
      37A     -1.068242    38A     -1.000017    39A     -0.979502
      40A     -0.850659    41A     -0.816257    42A     -0.715558
      43A     -0.666721    44A     -0.639828    45A     -0.592440
      46A     -0.588006    47A     -0.555154    48A     -0.518655
      49A     -0.498688    50A     -0.469828    51A     -0.431533
      52A     -0.428535    53A     -0.422655    54A     -0.356476
      55A     -0.342311

  @DF-RHF Final Energy: -5374.52556381193881

   => Energetics <=

    Nuclear Repulsion Energy =            764.1096574675526654
    One-Electron Energy =               -8997.4322549782409624
    Two-Electron Energy =                2858.7970336987505107
    Total Energy =                      -5374.5255638119379000
  Basis Set: (AUG-CC-PVTZ AUX)
    Blend: AUG-CC-PVTZ-RI
    Molecular point group: c1

    Geometry (in Angstrom), charge = 0, multiplicity = 1:

       Center              X                  Y                   Z               Mass
    ------------   -----------------  -----------------  -----------------  -----------------
         BR          -2.841001596951     0.547025065560     0.007741104318    78.918337600000
         BR           2.841010403049     0.547016065560     0.007629104318    78.918337600000
         C            0.000000403049     0.308924065560     0.007704104318    12.000000000000
         C           -1.194736596951    -0.410921934440     0.007726104318    12.000000000000
         C            1.194730403049    -0.410924934440     0.007704104318    12.000000000000
         C           -1.214915696951    -1.806145534440    -0.142256895682    12.000000000000
         C            1.214885403049    -1.806143934440     0.007710104318    12.000000000000
         C           -0.000017596951    -2.493227934440     0.007735104318    12.000000000000
         H            0.000008403049     1.394114065560     0.007690104318     1.007825032230
         H           -2.160480596951    -2.339248934440     0.007776104318     1.007825032230
         H            2.160448403049    -2.339254934440     0.007698104318     1.007825032230
         H           -0.000026596951    -3.580516934440     0.007731104318     1.007825032230

  Basis Set: AUG-CC-PVTZ
    Blend: AUG-CC-PVTZ
  Basis Set: (AUG-CC-PVTZ AUX)
    Blend: AUG-CC-PVTZ-JKFIT
	 Reference Energy          =   -5374.5255638119388095 [Eh]
	 Singles Energy            =      -0.0000000000000000 [Eh]
	 Same-Spin Energy          =      -0.4439775286705649 [Eh]
	 Opposite-Spin Energy      =      -1.2081630068411195 [Eh]
	 Correlation Energy        =      -1.6521405355116845 [Eh]
	 Total Energy              =   -5376.1777043474503444 [Eh]

	 ================> DF-SCS-MP2 Energies <==================
	-----------------------------------------------------------
	 SCS Same-Spin Scale       =       0.3333333333333333 [-]
	 SCS Opposite-Spin Scale   =       1.2000000000000000 [-]
	 SCS Same-Spin Energy      =      -0.1479925095568550 [Eh]
	 SCS Opposite-Spin Energy  =      -1.4497956082093435 [Eh]
	 SCS Correlation Energy    =      -1.5977881177661986 [Eh]
	 SCS Total Energy          =   -5376.1233519297047678 [Eh]
	-----------------------------------------------------------

  Dipole Moment: [D]
     X:     0.0485      Y:    -1.5885      Z:     0.0670     Total:     1.5906

*** Psi4 exiting successfully. Buy a developer a beer!
