                               Psi4 1.3.2 release

  ==> Input File <==

--------------------------------------------------------------------------
#psi4
#
memory 32 gb

molecule  {
0 1
 Br       -2.8410010     0.6223350     0.0000430
 Br        2.8410110     0.6223260    -0.0000690
  C        0.0000010     0.3842340     0.0000060
  C       -1.1947360    -0.3356120     0.0000280
  C        1.1947310    -0.3356150     0.0000060
  C       -1.2149130    -1.7308340     0.0000450
  C        1.2148860    -1.7308340     0.0000120
  C       -0.0000170    -2.4179180     0.0000370
  H        0.0000090     1.4694240    -0.0000080
  H       -2.1604800    -2.2639390     0.0000780
  H        2.1604490    -2.2639450     0.0000000
  H       -0.0000260    -3.5052070     0.0000330
units angstrom
no_reorient  #important for SAPT in psi4, default
symmetry c1  #important for SAPT in psi4, default
}

set PROPERTIES_ORIGIN ["COM"]
properties('MP2/aug-cc-pvtz', properties = ['dipole'])
--------------------------------------------------------------------------

    Molecular point group: c1
  Charge       = 0
  Multiplicity = 1
  Basis Set: AUG-CC-PVTZ
    Blend: AUG-CC-PVTZ
  Basis Set: (AUG-CC-PVTZ AUX)
    Blend: AUG-CC-PVTZ-JKFIT

    Orbital Energies [Eh]
    ---------------------

    Doubly Occupied:

       1A   -490.034370     2A   -490.034370     3A    -65.174088
       4A    -65.174087     5A    -58.529415     6A    -58.529415
       7A    -58.528000     8A    -58.527999     9A    -58.527972
      10A    -58.527972    11A    -11.317693    12A    -11.317682
      13A    -11.271613    14A    -11.268283    15A    -11.266671
      16A    -11.266206    17A     -9.846814    18A     -9.846814
      19A     -7.458469    20A     -7.458468    21A     -7.451560
      22A     -7.451560    23A     -7.451521    24A     -7.451520
      25A     -3.202269    26A     -3.202267    27A     -3.198681
      28A     -3.198680    29A     -3.198470    30A     -3.198470
      31A     -3.189653    32A     -3.189652    33A     -3.189645
      34A     -3.189645    35A     -1.196176    36A     -1.098739
      37A     -1.068751    38A     -0.999846    39A     -0.980179
      40A     -0.851849    41A     -0.816866    42A     -0.717859
      43A     -0.668545    44A     -0.639690    45A     -0.592761
      46A     -0.590124    47A     -0.556746    48A     -0.519171
      49A     -0.498905    50A     -0.470074    51A     -0.431763
      52A     -0.428502    53A     -0.422512    54A     -0.356855
      55A     -0.342275

  @DF-RHF Final Energy: -5374.53242616541320

   => Energetics <=

    Nuclear Repulsion Energy =            764.4038653325825408
    One-Electron Energy =               -8998.0362236752789613
    Two-Electron Energy =                2859.0999321772828807
    Total Energy =                      -5374.5324261654131988
  Basis Set: (AUG-CC-PVTZ AUX)
    Blend: AUG-CC-PVTZ-RI
    Molecular point group: c1

    Geometry (in Angstrom), charge = 0, multiplicity = 1:

       Center              X                  Y                   Z               Mass
    ------------   -----------------  -----------------  -----------------  -----------------
         BR          -2.841001704704     0.547024983462     0.000044454114    78.918337600000
         BR           2.841010295296     0.547015983462    -0.000067545886    78.918337600000
         C            0.000000295296     0.308923983462     0.000007454114    12.000000000000
         C           -1.194736704704    -0.410922016538     0.000029454114    12.000000000000
         C            1.194730295296    -0.410925016538     0.000007454114    12.000000000000
         C           -1.214913704704    -1.806144016538     0.000046454114    12.000000000000
         C            1.214885295296    -1.806144016538     0.000013454114    12.000000000000
         C           -0.000017704704    -2.493228016538     0.000038454114    12.000000000000
         H            0.000008295296     1.394113983462    -0.000006545886     1.007825032230
         H           -2.160480704704    -2.339249016538     0.000079454114     1.007825032230
         H            2.160448295296    -2.339255016538     0.000001454114     1.007825032230
         H           -0.000026704704    -3.580517016538     0.000034454114     1.007825032230

  Basis Set: AUG-CC-PVTZ
    Blend: AUG-CC-PVTZ
  Basis Set: (AUG-CC-PVTZ AUX)
    Blend: AUG-CC-PVTZ-JKFIT
	 Reference Energy          =   -5374.5324261654131988 [Eh]
	 Singles Energy            =      -0.0000000000000000 [Eh]
	 Same-Spin Energy          =      -0.4436678418521458 [Eh]
	 Opposite-Spin Energy      =      -1.2072341268941691 [Eh]
	 Correlation Energy        =      -1.6509019687463149 [Eh]
	 Total Energy              =   -5376.1833281341596376 [Eh]

	 ================> DF-SCS-MP2 Energies <==================
	-----------------------------------------------------------
	 SCS Same-Spin Scale       =       0.3333333333333333 [-]
	 SCS Opposite-Spin Scale   =       1.2000000000000000 [-]
	 SCS Same-Spin Energy      =      -0.1478892806173819 [Eh]
	 SCS Opposite-Spin Energy  =      -1.4486809522730029 [Eh]
	 SCS Correlation Energy    =      -1.5965702328903848 [Eh]
	 SCS Total Energy          =   -5376.1289963983035705 [Eh]
	-----------------------------------------------------------

  Dipole Moment: [D]
     X:    -0.0000      Y:    -1.6169      Z:     0.0000     Total:     1.6169

*** Psi4 exiting successfully. Buy a developer a beer!
