                               Psi4 1.3.2 release

  ==> Input File <==

--------------------------------------------------------------------------
#psi4
#
memory 32 gb

molecule  {
0 1
 Br       -2.8410010     0.6223350     0.0000430
 Br        2.8410110     0.6223260    -0.0000690
  C        0.0000010     0.3842340     0.0000060
  C       -1.1947360    -0.3356120     0.0000280
  C        1.1947310    -0.3356150     0.0000060
  C       -1.2149158    -1.7308361    -0.1999550
  C        1.2148860    -1.7308340     0.0000120
  C       -0.0000170    -2.4179180     0.0000370
  H        0.0000090     1.4694240    -0.0000080
  H       -2.1604800    -2.2639390     0.0000780
  H        2.1604490    -2.2639450     0.0000000
  H       -0.0000260    -3.5052070     0.0000330
units angstrom
no_reorient  #important for SAPT in psi4, default
symmetry c1  #important for SAPT in psi4, default
}

set PROPERTIES_ORIGIN ["COM"]
properties('MP2/aug-cc-pvtz', properties = ['dipole'])
--------------------------------------------------------------------------

    Molecular point group: c1
  Charge       = 0
  Multiplicity = 1
  Basis Set: AUG-CC-PVTZ
    Blend: AUG-CC-PVTZ
  Basis Set: (AUG-CC-PVTZ AUX)
    Blend: AUG-CC-PVTZ-JKFIT

    Orbital Energies [Eh]
    ---------------------

    Doubly Occupied:

       1A   -490.035356     2A   -490.034440     3A    -65.175070
       4A    -65.174173     5A    -58.530397     6A    -58.529496
       7A    -58.528982     8A    -58.528950     9A    -58.528085
      10A    -58.528052    11A    -11.320784    12A    -11.319617
      13A    -11.271331    14A    -11.271139    15A    -11.269532
      16A    -11.266085    17A     -9.847793    18A     -9.846917
      19A     -7.459449    20A     -7.458566    21A     -7.452543
      22A     -7.452483    23A     -7.451675    24A     -7.451608
      25A     -3.203253    26A     -3.202365    27A     -3.199670
      28A     -3.199438    29A     -3.198790    30A     -3.198551
      31A     -3.190623    32A     -3.190615    33A     -3.189756
      34A     -3.189749    35A     -1.195078    36A     -1.098281
      37A     -1.067867    38A     -1.000165    39A     -0.978968
      40A     -0.849802    41A     -0.815817    42A     -0.713913
      43A     -0.665349    44A     -0.639935    45A     -0.592412
      46A     -0.586213    47A     -0.553930    48A     -0.518219
      49A     -0.498497    50A     -0.469651    51A     -0.431389
      52A     -0.428578    53A     -0.422751    54A     -0.356219
      55A     -0.342358

  @DF-RHF Final Energy: -5374.52015784971263

   => Energetics <=

    Nuclear Repulsion Energy =            763.8835310828276306
    One-Electron Energy =               -8996.9659202002621896
    Two-Electron Energy =                2858.5622312677223817
    Total Energy =                      -5374.5201578497126320
  Basis Set: (AUG-CC-PVTZ AUX)
    Blend: AUG-CC-PVTZ-RI
    Molecular point group: c1

    Geometry (in Angstrom), charge = 0, multiplicity = 1:

       Center              X                  Y                   Z               Mass
    ------------   -----------------  -----------------  -----------------  -----------------
         BR          -2.841001561034     0.547025091215     0.010306654386    78.918337600000
         BR           2.841010438966     0.547016091215     0.010194654386    78.918337600000
         C            0.000000438966     0.308924091215     0.010269654386    12.000000000000
         C           -1.194736561034    -0.410921908785     0.010291654386    12.000000000000
         C            1.194730438966    -0.410924908785     0.010269654386    12.000000000000
         C           -1.214916361034    -1.806146008785    -0.189691345614    12.000000000000
         C            1.214885438966    -1.806143908785     0.010275654386    12.000000000000
         C           -0.000017561034    -2.493227908785     0.010300654386    12.000000000000
         H            0.000008438966     1.394114091215     0.010255654386     1.007825032230
         H           -2.160480561034    -2.339248908785     0.010341654386     1.007825032230
         H            2.160448438966    -2.339254908785     0.010263654386     1.007825032230
         H           -0.000026561034    -3.580516908785     0.010296654386     1.007825032230

  Basis Set: AUG-CC-PVTZ
    Blend: AUG-CC-PVTZ
  Basis Set: (AUG-CC-PVTZ AUX)
    Blend: AUG-CC-PVTZ-JKFIT
	 Reference Energy          =   -5374.5201578497126320 [Eh]
	 Singles Energy            =      -0.0000000000000000 [Eh]
	 Same-Spin Energy          =      -0.4442498552710764 [Eh]
	 Opposite-Spin Energy      =      -1.2089606436097571 [Eh]
	 Correlation Energy        =      -1.6532104988808334 [Eh]
	 Total Energy              =   -5376.1733683485936126 [Eh]

	 ================> DF-SCS-MP2 Energies <==================
	-----------------------------------------------------------
	 SCS Same-Spin Scale       =       0.3333333333333333 [-]
	 SCS Opposite-Spin Scale   =       1.2000000000000000 [-]
	 SCS Same-Spin Energy      =      -0.1480832850903588 [Eh]
	 SCS Opposite-Spin Energy  =      -1.4507527723317084 [Eh]
	 SCS Correlation Energy    =      -1.5988360574220672 [Eh]
	 SCS Total Energy          =   -5376.1189939071346089 [Eh]
	-----------------------------------------------------------

  Dipole Moment: [D]
     X:     0.0857      Y:    -1.5667      Z:     0.0910     Total:     1.5717

*** Psi4 exiting successfully. Buy a developer a beer!
