                               Psi4 1.3.2 release

  ==> Input File <==

--------------------------------------------------------------------------
#psi4
#
memory 32 gb

molecule  {
0 1
 Br       -2.8410010     0.6223350     0.0000430
 Br        2.8410110     0.6223260    -0.0000690
  C        0.0000010     0.3842340     0.0000060
  C       -1.1947360    -0.3356120     0.0000280
  C        1.1947310    -0.3356150     0.0000060
  C       -1.2149130    -1.7308340     0.0000450
  C        1.2148860    -1.7308340     0.0000120
  C       -0.0000170    -2.4179180     0.0000370
  H        0.0000090     1.4694240    -0.0000080
  H       -2.1604820    -2.2639406    -0.0999220
  H        2.1604490    -2.2639450     0.0000000
  H       -0.0000260    -3.5052070     0.0000330
units angstrom
no_reorient  #important for SAPT in psi4, default
symmetry c1  #important for SAPT in psi4, default
}

set PROPERTIES_ORIGIN ["COM"]
properties('MP2/aug-cc-pvtz', properties = ['dipole'])
--------------------------------------------------------------------------

    Molecular point group: c1
  Charge       = 0
  Multiplicity = 1
  Basis Set: AUG-CC-PVTZ
    Blend: AUG-CC-PVTZ
  Basis Set: (AUG-CC-PVTZ AUX)
    Blend: AUG-CC-PVTZ-JKFIT

    Orbital Energies [Eh]
    ---------------------

    Doubly Occupied:

       1A   -490.034421     2A   -490.034364     3A    -65.174139
       4A    -65.174083     5A    -58.529467     6A    -58.529410
       7A    -58.528051     8A    -58.528023     9A    -58.527995
      10A    -58.527967    11A    -11.317774    12A    -11.317747
      13A    -11.271628    14A    -11.268380    15A    -11.266893
      16A    -11.266321    17A     -9.846866    18A     -9.846810
      19A     -7.458520    20A     -7.458465    21A     -7.451612
      22A     -7.451571    23A     -7.451559    24A     -7.451514
      25A     -3.202320    26A     -3.202265    27A     -3.198732
      28A     -3.198678    29A     -3.198521    30A     -3.198465
      31A     -3.189703    32A     -3.189696    33A     -3.189648
      34A     -3.189641    35A     -1.196192    36A     -1.098727
      37A     -1.068749    38A     -0.999851    39A     -0.980074
      40A     -0.851822    41A     -0.816688    42A     -0.717258
      43A     -0.668561    44A     -0.639719    45A     -0.592651
      46A     -0.589782    47A     -0.556506    48A     -0.519152
      49A     -0.498853    50A     -0.470023    51A     -0.431744
      52A     -0.428515    53A     -0.422526    54A     -0.356860
      55A     -0.342259

  @DF-RHF Final Energy: -5374.53180281135337

   => Energetics <=

    Nuclear Repulsion Energy =            764.3830586955064064
    One-Electron Energy =               -8997.9942029788344371
    Two-Electron Energy =                2859.0793414719746579
    Total Energy =                      -5374.5318028113533728
  Basis Set: (AUG-CC-PVTZ AUX)
    Blend: AUG-CC-PVTZ-RI
    Molecular point group: c1

    Geometry (in Angstrom), charge = 0, multiplicity = 1:

       Center              X                  Y                   Z               Mass
    ------------   -----------------  -----------------  -----------------  -----------------
         BR          -2.841001696086     0.547024990357     0.000475391711    78.918337600000
         BR           2.841010303914     0.547015990357     0.000363391711    78.918337600000
         C            0.000000303914     0.308923990357     0.000438391711    12.000000000000
         C           -1.194736696086    -0.410922009643     0.000460391711    12.000000000000
         C            1.194730303914    -0.410925009643     0.000438391711    12.000000000000
         C           -1.214913696086    -1.806144009643     0.000477391711    12.000000000000
         C            1.214885303914    -1.806144009643     0.000444391711    12.000000000000
         C           -0.000017696086    -2.493228009643     0.000469391711    12.000000000000
         H            0.000008303914     1.394113990357     0.000424391711     1.007825032230
         H           -2.160482696086    -2.339250609643    -0.099489608289     1.007825032230
         H            2.160448303914    -2.339255009643     0.000432391711     1.007825032230
         H           -0.000026696086    -3.580517009643     0.000465391711     1.007825032230

  Basis Set: AUG-CC-PVTZ
    Blend: AUG-CC-PVTZ
  Basis Set: (AUG-CC-PVTZ AUX)
    Blend: AUG-CC-PVTZ-JKFIT
	 Reference Energy          =   -5374.5318028113533728 [Eh]
	 Singles Energy            =      -0.0000000000000000 [Eh]
	 Same-Spin Energy          =      -0.4436995330096575 [Eh]
	 Opposite-Spin Energy      =      -1.2072994720306385 [Eh]
	 Correlation Energy        =      -1.6509990050402958 [Eh]
	 Total Energy              =   -5376.1828018163932938 [Eh]

	 ================> DF-SCS-MP2 Energies <==================
	-----------------------------------------------------------
	 SCS Same-Spin Scale       =       0.3333333333333333 [-]
	 SCS Opposite-Spin Scale   =       1.2000000000000000 [-]
	 SCS Same-Spin Energy      =      -0.1478998443365525 [Eh]
	 SCS Opposite-Spin Energy  =      -1.4487593664367662 [Eh]
	 SCS Correlation Energy    =      -1.5966592107733186 [Eh]
	 SCS Total Energy          =   -5376.1284620221267687 [Eh]
	-----------------------------------------------------------

  Dipole Moment: [D]
     X:     0.0067      Y:    -1.6130      Z:    -0.0612     Total:     1.6141

*** Psi4 exiting successfully. Buy a developer a beer!
