                               Psi4 1.3.2 release

  ==> Input File <==

--------------------------------------------------------------------------
#psi4
#
memory 32 gb

molecule  {
0 1
 Br       -2.8410010     0.6223350     0.0000430
 Br        2.8410110     0.6223260    -0.0000690
  C        0.0000010     0.3842340     0.0000060
  C       -1.1947360    -0.3356120     0.0000280
  C        1.1947310    -0.3356150     0.0000060
  C       -1.2149130    -1.7308340     0.0000450
  C        1.2148860    -1.7308340     0.0000120
  C       -0.0000170    -2.4179180     0.0000370
  H        0.0000090     1.4694240    -0.0000080
  H       -2.1604810    -2.2639398    -0.0499220
  H        2.1604490    -2.2639450     0.0000000
  H       -0.0000260    -3.5052070     0.0000330
units angstrom
no_reorient  #important for SAPT in psi4, default
symmetry c1  #important for SAPT in psi4, default
}

set PROPERTIES_ORIGIN ["COM"]
properties('MP2/aug-cc-pvtz', properties = ['dipole'])
--------------------------------------------------------------------------

    Molecular point group: c1
  Charge       = 0
  Multiplicity = 1
  Basis Set: AUG-CC-PVTZ
    Blend: AUG-CC-PVTZ
  Basis Set: (AUG-CC-PVTZ AUX)
    Blend: AUG-CC-PVTZ-JKFIT

    Orbital Energies [Eh]
    ---------------------

    Doubly Occupied:

       1A   -490.034383     2A   -490.034368     3A    -65.174101
       4A    -65.174086     5A    -58.529428     6A    -58.529414
       7A    -58.528013     8A    -58.527998     9A    -58.527985
      10A    -58.527970    11A    -11.317712    12A    -11.317699
      13A    -11.271617    14A    -11.268306    15A    -11.266720
      16A    -11.266243    17A     -9.846827    18A     -9.846813
      19A     -7.458482    20A     -7.458468    21A     -7.451573
      22A     -7.451560    23A     -7.451533    24A     -7.451519
      25A     -3.202281    26A     -3.202267    27A     -3.198694
      28A     -3.198680    29A     -3.198483    30A     -3.198468
      31A     -3.189665    32A     -3.189658    33A     -3.189651
      34A     -3.189644    35A     -1.196179    36A     -1.098736
      37A     -1.068750    38A     -0.999847    39A     -0.980152
      40A     -0.851842    41A     -0.816821    42A     -0.717708
      43A     -0.668549    44A     -0.639697    45A     -0.592730
      46A     -0.590041    47A     -0.556687    48A     -0.519166
      49A     -0.498892    50A     -0.470062    51A     -0.431758
      52A     -0.428505    53A     -0.422516    54A     -0.356856
      55A     -0.342271

  @DF-RHF Final Energy: -5374.53227225714636

   => Energetics <=

    Nuclear Repulsion Energy =            764.3986476175108464
    One-Electron Energy =               -8998.0256983716135437
    Two-Electron Energy =                2859.0947784969571330
    Total Energy =                      -5374.5322722571454506
  Basis Set: (AUG-CC-PVTZ AUX)
    Blend: AUG-CC-PVTZ-RI
    Molecular point group: c1

    Geometry (in Angstrom), charge = 0, multiplicity = 1:

       Center              X                  Y                   Z               Mass
    ------------   -----------------  -----------------  -----------------  -----------------
         BR          -2.841001700395     0.547024986909     0.000259922913    78.918337600000
         BR           2.841010299605     0.547015986909     0.000147922913    78.918337600000
         C            0.000000299605     0.308923986909     0.000222922913    12.000000000000
         C           -1.194736700395    -0.410922013091     0.000244922913    12.000000000000
         C            1.194730299605    -0.410925013091     0.000222922913    12.000000000000
         C           -1.214913700395    -1.806144013091     0.000261922913    12.000000000000
         C            1.214885299605    -1.806144013091     0.000228922913    12.000000000000
         C           -0.000017700395    -2.493228013091     0.000253922913    12.000000000000
         H            0.000008299605     1.394113986909     0.000208922913     1.007825032230
         H           -2.160481700395    -2.339249813091    -0.049705077087     1.007825032230
         H            2.160448299605    -2.339255013091     0.000216922913     1.007825032230
         H           -0.000026700395    -3.580517013091     0.000249922913     1.007825032230

  Basis Set: AUG-CC-PVTZ
    Blend: AUG-CC-PVTZ
  Basis Set: (AUG-CC-PVTZ AUX)
    Blend: AUG-CC-PVTZ-JKFIT
	 Reference Energy          =   -5374.5322722571463601 [Eh]
	 Singles Energy            =      -0.0000000000000000 [Eh]
	 Same-Spin Energy          =      -0.4436755323366472 [Eh]
	 Opposite-Spin Energy      =      -1.2072497345899316 [Eh]
	 Correlation Energy        =      -1.6509252669265788 [Eh]
	 Total Energy              =   -5376.1831975240729662 [Eh]

	 ================> DF-SCS-MP2 Energies <==================
	-----------------------------------------------------------
	 SCS Same-Spin Scale       =       0.3333333333333333 [-]
	 SCS Opposite-Spin Scale   =       1.2000000000000000 [-]
	 SCS Same-Spin Energy      =      -0.1478918441122157 [Eh]
	 SCS Opposite-Spin Energy  =      -1.4486996815079178 [Eh]
	 SCS Correlation Energy    =      -1.5965915256201335 [Eh]
	 SCS Total Energy          =   -5376.1288637827665298 [Eh]
	-----------------------------------------------------------

  Dipole Moment: [D]
     X:     0.0017      Y:    -1.6159      Z:    -0.0307     Total:     1.6162

*** Psi4 exiting successfully. Buy a developer a beer!
