                               Psi4 1.3.2 release

  ==> Input File <==

--------------------------------------------------------------------------
#psi4
#
memory 32 gb

molecule  {
0 1
 Br       -2.8410010     0.6223350     0.0000430
 Br        2.8410110     0.6223260    -0.0000690
  C        0.0000010     0.3842340     0.0000060
  C       -1.1947360    -0.3356120     0.0000280
  C        1.1947310    -0.3356150     0.0000060
  C       -1.2149130    -1.7308340     0.0000450
  C        1.2148860    -1.7308340     0.0000120
  C       -0.0000170    -2.4179180     0.0000370
  H        0.0000099     1.4694254     0.0999920
  H       -2.1604800    -2.2639390     0.0000780
  H        2.1604490    -2.2639450     0.0000000
  H       -0.0000260    -3.5052070     0.0000330
units angstrom
no_reorient  #important for SAPT in psi4, default
symmetry c1  #important for SAPT in psi4, default
}

set PROPERTIES_ORIGIN ["COM"]
properties('MP2/aug-cc-pvtz', properties = ['dipole'])
--------------------------------------------------------------------------

    Molecular point group: c1
  Charge       = 0
  Multiplicity = 1
  Basis Set: AUG-CC-PVTZ
    Blend: AUG-CC-PVTZ
  Basis Set: (AUG-CC-PVTZ AUX)
    Blend: AUG-CC-PVTZ-JKFIT

    Orbital Energies [Eh]
    ---------------------

    Doubly Occupied:

       1A   -490.034367     2A   -490.034366     3A    -65.174084
       4A    -65.174084     5A    -58.529412     6A    -58.529411
       7A    -58.527996     8A    -58.527996     9A    -58.527968
      10A    -58.527968    11A    -11.317752    12A    -11.317742
      13A    -11.271950    14A    -11.268350    15A    -11.266682
      16A    -11.266232    17A     -9.846811    18A     -9.846811
      19A     -7.458466    20A     -7.458465    21A     -7.451559
      22A     -7.451559    23A     -7.451514    24A     -7.451514
      25A     -3.202266    26A     -3.202265    27A     -3.198679
      28A     -3.198678    29A     -3.198465    30A     -3.198464
      31A     -3.189649    32A     -3.189648    33A     -3.189641
      34A     -3.189641    35A     -1.196173    36A     -1.098750
      37A     -1.068698    38A     -0.999756    39A     -0.980192
      40A     -0.851588    41A     -0.816881    42A     -0.717394
      43A     -0.668562    44A     -0.639257    45A     -0.592563
      46A     -0.590139    47A     -0.556679    48A     -0.518813
      49A     -0.498922    50A     -0.470078    51A     -0.431759
      52A     -0.428486    53A     -0.422499    54A     -0.356799
      55A     -0.342288

  @DF-RHF Final Energy: -5374.53180546749263

   => Energetics <=

    Nuclear Repulsion Energy =            764.3801422472545255
    One-Electron Energy =               -8997.9904365490019700
    Two-Electron Energy =                2859.0784888342536760
    Total Energy =                      -5374.5318054674935411
  Basis Set: (AUG-CC-PVTZ AUX)
    Blend: AUG-CC-PVTZ-RI
    Molecular point group: c1

    Geometry (in Angstrom), charge = 0, multiplicity = 1:

       Center              X                  Y                   Z               Mass
    ------------   -----------------  -----------------  -----------------  -----------------
         BR          -2.841001708583     0.547024977429    -0.000386483482    78.918337600000
         BR           2.841010291417     0.547015977429    -0.000498483482    78.918337600000
         C            0.000000291417     0.308923977429    -0.000423483482    12.000000000000
         C           -1.194736708583    -0.410922022571    -0.000401483482    12.000000000000
         C            1.194730291417    -0.410925022571    -0.000423483482    12.000000000000
         C           -1.214913708583    -1.806144022571    -0.000384483482    12.000000000000
         C            1.214885291417    -1.806144022571    -0.000417483482    12.000000000000
         C           -0.000017708583    -2.493228022571    -0.000392483482    12.000000000000
         H            0.000009191417     1.394115377429     0.099562516518     1.007825032230
         H           -2.160480708583    -2.339249022571    -0.000351483482     1.007825032230
         H            2.160448291417    -2.339255022571    -0.000429483482     1.007825032230
         H           -0.000026708583    -3.580517022571    -0.000396483482     1.007825032230

  Basis Set: AUG-CC-PVTZ
    Blend: AUG-CC-PVTZ
  Basis Set: (AUG-CC-PVTZ AUX)
    Blend: AUG-CC-PVTZ-JKFIT
	 Reference Energy          =   -5374.5318054674926316 [Eh]
	 Singles Energy            =      -0.0000000000000000 [Eh]
	 Same-Spin Energy          =      -0.4437102592995146 [Eh]
	 Opposite-Spin Energy      =      -1.2073118612653428 [Eh]
	 Correlation Energy        =      -1.6510221205648574 [Eh]
	 Total Energy              =   -5376.1828275880570800 [Eh]

	 ================> DF-SCS-MP2 Energies <==================
	-----------------------------------------------------------
	 SCS Same-Spin Scale       =       0.3333333333333333 [-]
	 SCS Opposite-Spin Scale   =       1.2000000000000000 [-]
	 SCS Same-Spin Energy      =      -0.1479034197665048 [Eh]
	 SCS Opposite-Spin Energy  =      -1.4487742335184113 [Eh]
	 SCS Correlation Energy    =      -1.5966776532849161 [Eh]
	 SCS Total Energy          =   -5376.1284831207776733 [Eh]
	-----------------------------------------------------------

  Dipole Moment: [D]
     X:    -0.0000      Y:    -1.6225      Z:     0.0577     Total:     1.6235

*** Psi4 exiting successfully. Buy a developer a beer!
