                               Psi4 1.3.2 release

  ==> Input File <==

--------------------------------------------------------------------------
#psi4
#
memory 32 gb

molecule  {
0 1
 Br       -2.8410010     0.6223350     0.0000430
 Br        2.8410110     0.6223260    -0.0000690
  C        0.0000010     0.3842340     0.0000060
  C       -1.1947360    -0.3356120     0.0000280
  C        1.1947310    -0.3356150     0.0000060
  C       -1.2149130    -1.7308340     0.0000450
  C        1.2148860    -1.7308340     0.0000120
  C       -0.0000170    -2.4179180     0.0000370
  H        0.0000095     1.4694247     0.0499920
  H       -2.1604800    -2.2639390     0.0000780
  H        2.1604490    -2.2639450     0.0000000
  H       -0.0000260    -3.5052070     0.0000330
units angstrom
no_reorient  #important for SAPT in psi4, default
symmetry c1  #important for SAPT in psi4, default
}

set PROPERTIES_ORIGIN ["COM"]
properties('MP2/aug-cc-pvtz', properties = ['dipole'])
--------------------------------------------------------------------------

    Molecular point group: c1
  Charge       = 0
  Multiplicity = 1
  Basis Set: AUG-CC-PVTZ
    Blend: AUG-CC-PVTZ
  Basis Set: (AUG-CC-PVTZ AUX)
    Blend: AUG-CC-PVTZ-JKFIT

    Orbital Energies [Eh]
    ---------------------

    Doubly Occupied:

       1A   -490.034369     2A   -490.034369     3A    -65.174087
       4A    -65.174086     5A    -58.529415     6A    -58.529414
       7A    -58.527999     8A    -58.527998     9A    -58.527971
      10A    -58.527971    11A    -11.317707    12A    -11.317697
      13A    -11.271697    14A    -11.268300    15A    -11.266673
      16A    -11.266213    17A     -9.846813    18A     -9.846813
      19A     -7.458468    20A     -7.458468    21A     -7.451560
      22A     -7.451560    23A     -7.451519    24A     -7.451519
      25A     -3.202268    26A     -3.202267    27A     -3.198680
      28A     -3.198679    29A     -3.198469    30A     -3.198468
      31A     -3.189652    32A     -3.189651    33A     -3.189644
      34A     -3.189644    35A     -1.196175    36A     -1.098741
      37A     -1.068737    38A     -0.999823    39A     -0.980182
      40A     -0.851783    41A     -0.816870    42A     -0.717741
      43A     -0.668549    44A     -0.639581    45A     -0.592711
      46A     -0.590127    47A     -0.556729    48A     -0.519082
      49A     -0.498909    50A     -0.470075    51A     -0.431762
      52A     -0.428498    53A     -0.422509    54A     -0.356841
      55A     -0.342278

  @DF-RHF Final Energy: -5374.53227289052847

   => Energetics <=

    Nuclear Repulsion Energy =            764.3979169288567164
    One-Electron Energy =               -8998.0247534223180992
    Two-Electron Energy =                2859.0945636029337038
    Total Energy =                      -5374.5322728905284748
  Basis Set: (AUG-CC-PVTZ AUX)
    Blend: AUG-CC-PVTZ-RI
    Molecular point group: c1

    Geometry (in Angstrom), charge = 0, multiplicity = 1:

       Center              X                  Y                   Z               Mass
    ------------   -----------------  -----------------  -----------------  -----------------
         BR          -2.841001706859     0.547024980445    -0.000171014684    78.918337600000
         BR           2.841010293141     0.547015980445    -0.000283014684    78.918337600000
         C            0.000000293141     0.308923980445    -0.000208014684    12.000000000000
         C           -1.194736706859    -0.410922019555    -0.000186014684    12.000000000000
         C            1.194730293141    -0.410925019555    -0.000208014684    12.000000000000
         C           -1.214913706859    -1.806144019555    -0.000169014684    12.000000000000
         C            1.214885293141    -1.806144019555    -0.000202014684    12.000000000000
         C           -0.000017706859    -2.493228019555    -0.000177014684    12.000000000000
         H            0.000008793141     1.394114680445     0.049777985316     1.007825032230
         H           -2.160480706859    -2.339249019555    -0.000136014684     1.007825032230
         H            2.160448293141    -2.339255019555    -0.000214014684     1.007825032230
         H           -0.000026706859    -3.580517019555    -0.000181014684     1.007825032230

  Basis Set: AUG-CC-PVTZ
    Blend: AUG-CC-PVTZ
  Basis Set: (AUG-CC-PVTZ AUX)
    Blend: AUG-CC-PVTZ-JKFIT
	 Reference Energy          =   -5374.5322728905284748 [Eh]
	 Singles Energy            =      -0.0000000000000000 [Eh]
	 Same-Spin Energy          =      -0.4436785211154701 [Eh]
	 Opposite-Spin Energy      =      -1.2072534983462644 [Eh]
	 Correlation Energy        =      -1.6509320194617345 [Eh]
	 Total Energy              =   -5376.1832049099903088 [Eh]

	 ================> DF-SCS-MP2 Energies <==================
	-----------------------------------------------------------
	 SCS Same-Spin Scale       =       0.3333333333333333 [-]
	 SCS Opposite-Spin Scale   =       1.2000000000000000 [-]
	 SCS Same-Spin Energy      =      -0.1478928403718234 [Eh]
	 SCS Opposite-Spin Energy  =      -1.4487041980155173 [Eh]
	 SCS Correlation Energy    =      -1.5965970383873407 [Eh]
	 SCS Total Energy          =   -5376.1288699289161741 [Eh]
	-----------------------------------------------------------

  Dipole Moment: [D]
     X:    -0.0000      Y:    -1.6183      Z:     0.0289     Total:     1.6186

*** Psi4 exiting successfully. Buy a developer a beer!
