                               Psi4 1.3.2 release

  ==> Input File <==

--------------------------------------------------------------------------
#psi4
#
memory 32 gb

molecule  {
0 1
 Br       -2.8410010     0.6223350     0.0000430
 Br        2.8410110     0.6223260    -0.0000690
  C        0.0000010     0.3842340     0.0000060
  C       -1.1947360    -0.3356120     0.0000280
  C        1.1947310    -0.3356150     0.0000060
  C       -1.2149165    -1.7308366    -0.2499550
  C        1.2148860    -1.7308340     0.0000120
  C       -0.0000170    -2.4179180     0.0000370
  H        0.0000090     1.4694240    -0.0000080
  H       -2.1604800    -2.2639390     0.0000780
  H        2.1604490    -2.2639450     0.0000000
  H       -0.0000260    -3.5052070     0.0000330
units angstrom
no_reorient  #important for SAPT in psi4, default
symmetry c1  #important for SAPT in psi4, default
}

set PROPERTIES_ORIGIN ["COM"]
properties('MP2/aug-cc-pvtz', properties = ['dipole'])
--------------------------------------------------------------------------

    Molecular point group: c1
  Charge       = 0
  Multiplicity = 1
  Basis Set: AUG-CC-PVTZ
    Blend: AUG-CC-PVTZ
  Basis Set: (AUG-CC-PVTZ AUX)
    Blend: AUG-CC-PVTZ-JKFIT

    Orbital Energies [Eh]
    ---------------------

    Doubly Occupied:

       1A   -490.035933     2A   -490.034502     3A    -65.175644
       4A    -65.174238     5A    -58.530972     6A    -58.529559
       7A    -58.529557     8A    -58.529522     9A    -58.528150
      10A    -58.528114    11A    -11.322476    12A    -11.320736
      13A    -11.273054    14A    -11.271197    15A    -11.270916
      16A    -11.265867    17A     -9.848365    18A     -9.846985
      19A     -7.460022    20A     -7.458631    21A     -7.453118
      22A     -7.453046    23A     -7.451750    24A     -7.451668
      25A     -3.203828    26A     -3.202431    27A     -3.200249
      28A     -3.200003    29A     -3.198863    30A     -3.198608
      31A     -3.191189    32A     -3.191181    33A     -3.189825
      34A     -3.189818    35A     -1.194519    36A     -1.098048
      37A     -1.067397    38A     -1.000364    39A     -0.978260
      40A     -0.848769    41A     -0.815281    42A     -0.711959
      43A     -0.663637    44A     -0.640051    45A     -0.592457
      46A     -0.583910    47A     -0.552376    48A     -0.517596
      49A     -0.498207    50A     -0.469435    51A     -0.431244
      52A     -0.428646    53A     -0.422844    54A     -0.355929
      55A     -0.342429

  @DF-RHF Final Energy: -5374.51314507052484

   => Energetics <=

    Nuclear Repulsion Energy =            763.5961762439245604
    One-Electron Energy =               -8996.3718841141981102
    Two-Electron Energy =                2858.2625627997490483
    Total Energy =                      -5374.5131450705248426
  Basis Set: (AUG-CC-PVTZ AUX)
    Blend: AUG-CC-PVTZ-RI
    Molecular point group: c1

    Geometry (in Angstrom), charge = 0, multiplicity = 1:

       Center              X                  Y                   Z               Mass
    ------------   -----------------  -----------------  -----------------  -----------------
         BR          -2.841001525116     0.547025116871     0.012872204454    78.918337600000
         BR           2.841010474884     0.547016116871     0.012760204454    78.918337600000
         C            0.000000474884     0.308924116871     0.012835204454    12.000000000000
         C           -1.194736525116    -0.410921883129     0.012857204454    12.000000000000
         C            1.194730474884    -0.410924883129     0.012835204454    12.000000000000
         C           -1.214917025116    -1.806146483129    -0.237125795546    12.000000000000
         C            1.214885474884    -1.806143883129     0.012841204454    12.000000000000
         C           -0.000017525116    -2.493227883129     0.012866204454    12.000000000000
         H            0.000008474884     1.394114116871     0.012821204454     1.007825032230
         H           -2.160480525116    -2.339248883129     0.012907204454     1.007825032230
         H            2.160448474884    -2.339254883129     0.012829204454     1.007825032230
         H           -0.000026525116    -3.580516883129     0.012862204454     1.007825032230

  Basis Set: AUG-CC-PVTZ
    Blend: AUG-CC-PVTZ
  Basis Set: (AUG-CC-PVTZ AUX)
    Blend: AUG-CC-PVTZ-JKFIT
	 Reference Energy          =   -5374.5131450705248426 [Eh]
	 Singles Energy            =      -0.0000000000000000 [Eh]
	 Same-Spin Energy          =      -0.4446007506239740 [Eh]
	 Opposite-Spin Energy      =      -1.2099942293369903 [Eh]
	 Correlation Energy        =      -1.6545949799609643 [Eh]
	 Total Energy              =   -5376.1677400504859179 [Eh]

	 ================> DF-SCS-MP2 Energies <==================
	-----------------------------------------------------------
	 SCS Same-Spin Scale       =       0.3333333333333333 [-]
	 SCS Opposite-Spin Scale   =       1.2000000000000000 [-]
	 SCS Same-Spin Energy      =      -0.1482002502079913 [Eh]
	 SCS Opposite-Spin Energy  =      -1.4519930752043884 [Eh]
	 SCS Correlation Energy    =      -1.6001933254123797 [Eh]
	 SCS Total Energy          =   -5376.1133383959368075 [Eh]
	-----------------------------------------------------------

  Dipole Moment: [D]
     X:     0.1330      Y:    -1.5391      Z:     0.1161     Total:     1.5492

*** Psi4 exiting successfully. Buy a developer a beer!
