                               Psi4 1.3.2 release

  ==> Input File <==

--------------------------------------------------------------------------
#psi4
#
memory 32 gb

molecule  {
0 1
 Br       -2.8410010     0.6223350     0.0000430
 Br        2.8410110     0.6223260    -0.0000690
  C        0.0000010     0.3842340     0.0000060
  C       -1.1947360    -0.3356120     0.0000280
  C        1.1947310    -0.3356150     0.0000060
  C       -1.2149130    -1.7308340     0.0000450
  C        1.2148860    -1.7308340     0.0000120
  C       -0.0000170    -2.4179180     0.0000370
  H        0.0000090     1.4694240    -0.0000080
  H       -2.1604800    -2.2639390     0.0000780
  H        2.1604490    -2.2639450     0.0000000
  H       -0.0000294    -3.5052076    -0.2499670
units angstrom
no_reorient  #important for SAPT in psi4, default
symmetry c1  #important for SAPT in psi4, default
}

set PROPERTIES_ORIGIN ["COM"]
properties('MP2/aug-cc-pvtz', properties = ['dipole'])
--------------------------------------------------------------------------

    Molecular point group: c1
  Charge       = 0
  Multiplicity = 1
  Basis Set: AUG-CC-PVTZ
    Blend: AUG-CC-PVTZ
  Basis Set: (AUG-CC-PVTZ AUX)
    Blend: AUG-CC-PVTZ-JKFIT

    Orbital Energies [Eh]
    ---------------------

    Doubly Occupied:

       1A   -490.034492     2A   -490.034492     3A    -65.174212
       4A    -65.174212     5A    -58.529540     6A    -58.529539
       7A    -58.528124     8A    -58.528123     9A    -58.528097
      10A    -58.528096    11A    -11.317859    12A    -11.317848
      13A    -11.272173    14A    -11.270495    15A    -11.267161
      16A    -11.266930    17A     -9.846942    18A     -9.846942
      19A     -7.458597    20A     -7.458597    21A     -7.451687
      22A     -7.451686    23A     -7.451650    24A     -7.451649
      25A     -3.202397    26A     -3.202396    27A     -3.198808
      28A     -3.198807    29A     -3.198600    30A     -3.198599
      31A     -3.189779    32A     -3.189779    33A     -3.189772
      34A     -3.189772    35A     -1.196394    36A     -1.098958
      37A     -1.068255    38A     -0.999899    39A     -0.980399
      40A     -0.849503    41A     -0.817107    42A     -0.717736
      43A     -0.668769    44A     -0.634069    45A     -0.593008
      46A     -0.590411    47A     -0.557180    48A     -0.517076
      49A     -0.499100    50A     -0.470257    51A     -0.431866
      52A     -0.427925    53A     -0.422658    54A     -0.356599
      55A     -0.342474

  @DF-RHF Final Energy: -5374.52816884354888

   => Energetics <=

    Nuclear Repulsion Energy =            764.2916441139007020
    One-Electron Energy =               -8997.8046373338547710
    Two-Electron Energy =                2858.9848243764058680
    Total Energy =                      -5374.5281688435479737
  Basis Set: (AUG-CC-PVTZ AUX)
    Blend: AUG-CC-PVTZ-RI
    Molecular point group: c1

    Geometry (in Angstrom), charge = 0, multiplicity = 1:

       Center              X                  Y                   Z               Mass
    ------------   -----------------  -----------------  -----------------  -----------------
         BR          -2.841001690052     0.547024986048     0.001121798106    78.918337600000
         BR           2.841010309948     0.547015986048     0.001009798106    78.918337600000
         C            0.000000309948     0.308923986048     0.001084798106    12.000000000000
         C           -1.194736690052    -0.410922013952     0.001106798106    12.000000000000
         C            1.194730309948    -0.410925013952     0.001084798106    12.000000000000
         C           -1.214913690052    -1.806144013952     0.001123798106    12.000000000000
         C            1.214885309948    -1.806144013952     0.001090798106    12.000000000000
         C           -0.000017690052    -2.493228013952     0.001115798106    12.000000000000
         H            0.000008309948     1.394113986048     0.001070798106     1.007825032230
         H           -2.160480690052    -2.339249013952     0.001156798106     1.007825032230
         H            2.160448309948    -2.339255013952     0.001078798106     1.007825032230
         H           -0.000030090052    -3.580517613952    -0.248888201894     1.007825032230

  Basis Set: AUG-CC-PVTZ
    Blend: AUG-CC-PVTZ
  Basis Set: (AUG-CC-PVTZ AUX)
    Blend: AUG-CC-PVTZ-JKFIT
	 Reference Energy          =   -5374.5281688435488832 [Eh]
	 Singles Energy            =      -0.0000000000000000 [Eh]
	 Same-Spin Energy          =      -0.4438425155669312 [Eh]
	 Opposite-Spin Energy      =      -1.2077083006326657 [Eh]
	 Correlation Energy        =      -1.6515508161995969 [Eh]
	 Total Energy              =   -5376.1797196597481161 [Eh]

	 ================> DF-SCS-MP2 Energies <==================
	-----------------------------------------------------------
	 SCS Same-Spin Scale       =       0.3333333333333333 [-]
	 SCS Opposite-Spin Scale   =       1.2000000000000000 [-]
	 SCS Same-Spin Energy      =      -0.1479475051889770 [Eh]
	 SCS Opposite-Spin Energy  =      -1.4492499607591987 [Eh]
	 SCS Correlation Energy    =      -1.5971974659481756 [Eh]
	 SCS Total Energy          =   -5376.1253663094967123 [Eh]
	-----------------------------------------------------------

  Dipole Moment: [D]
     X:    -0.0000      Y:    -1.5699      Z:    -0.1508     Total:     1.5771

*** Psi4 exiting successfully. Buy a developer a beer!
