                               Psi4 1.3.2 release

  ==> Input File <==

--------------------------------------------------------------------------
#psi4
#
memory 32 gb

molecule  {
0 1
 Br       -2.8410010     0.6223350     0.0000430
 Br        2.8410110     0.6223260    -0.0000690
  C        0.0000010     0.3842340     0.0000060
  C       -1.1947360    -0.3356120     0.0000280
  C        1.1947310    -0.3356150     0.0000060
  C       -1.2149130    -1.7308340     0.0000450
  C        1.2148860    -1.7308340     0.0000120
  C       -0.0000170    -2.4179180     0.0000370
  H        0.0000090     1.4694240    -0.0000080
  H       -2.1604800    -2.2639390     0.0000780
  H        2.1604490    -2.2639450     0.0000000
  H       -0.0000267    -3.5052071    -0.0499670
units angstrom
no_reorient  #important for SAPT in psi4, default
symmetry c1  #important for SAPT in psi4, default
}

set PROPERTIES_ORIGIN ["COM"]
properties('MP2/aug-cc-pvtz', properties = ['dipole'])
--------------------------------------------------------------------------

    Molecular point group: c1
  Charge       = 0
  Multiplicity = 1
  Basis Set: AUG-CC-PVTZ
    Blend: AUG-CC-PVTZ
  Basis Set: (AUG-CC-PVTZ AUX)
    Blend: AUG-CC-PVTZ-JKFIT

    Orbital Energies [Eh]
    ---------------------

    Doubly Occupied:

       1A   -490.034375     2A   -490.034374     3A    -65.174092
       4A    -65.174092     5A    -58.529420     6A    -58.529419
       7A    -58.528004     8A    -58.528004     9A    -58.527977
      10A    -58.527976    11A    -11.317699    12A    -11.317688
      13A    -11.271635    14A    -11.268365    15A    -11.266690
      16A    -11.266242    17A     -9.846819    18A     -9.846819
      19A     -7.458474    20A     -7.458473    21A     -7.451565
      22A     -7.451565    23A     -7.451526    24A     -7.451525
      25A     -3.202273    26A     -3.202272    27A     -3.198686
      28A     -3.198685    29A     -3.198475    30A     -3.198474
      31A     -3.189657    32A     -3.189657    33A     -3.189650
      34A     -3.189650    35A     -1.196184    36A     -1.098747
      37A     -1.068729    38A     -0.999847    39A     -0.980187
      40A     -0.851748    41A     -0.816875    42A     -0.717851
      43A     -0.668553    44A     -0.639458    45A     -0.592770
      46A     -0.590135    47A     -0.556764    48A     -0.519088
      49A     -0.498912    50A     -0.470082    51A     -0.431766
      52A     -0.428479    53A     -0.422518    54A     -0.356844
      55A     -0.342283

  @DF-RHF Final Energy: -5374.53226939525211

   => Energetics <=

    Nuclear Repulsion Energy =            764.3992541029446102
    One-Electron Energy =               -8998.0268191204249888
    Two-Electron Energy =                2859.0952956222286048
    Total Energy =                      -5374.5322693952530244
  Basis Set: (AUG-CC-PVTZ AUX)
    Blend: AUG-CC-PVTZ-RI
    Molecular point group: c1

    Geometry (in Angstrom), charge = 0, multiplicity = 1:

       Center              X                  Y                   Z               Mass
    ------------   -----------------  -----------------  -----------------  -----------------
         BR          -2.841001701688     0.547024983893     0.000259922913    78.918337600000
         BR           2.841010298312     0.547015983893     0.000147922913    78.918337600000
         C            0.000000298312     0.308923983893     0.000222922913    12.000000000000
         C           -1.194736701688    -0.410922016107     0.000244922913    12.000000000000
         C            1.194730298312    -0.410925016107     0.000222922913    12.000000000000
         C           -1.214913701688    -1.806144016107     0.000261922913    12.000000000000
         C            1.214885298312    -1.806144016107     0.000228922913    12.000000000000
         C           -0.000017701688    -2.493228016107     0.000253922913    12.000000000000
         H            0.000008298312     1.394113983893     0.000208922913     1.007825032230
         H           -2.160480701688    -2.339249016107     0.000294922913     1.007825032230
         H            2.160448298312    -2.339255016107     0.000216922913     1.007825032230
         H           -0.000027401688    -3.580517116107    -0.049750077087     1.007825032230

  Basis Set: AUG-CC-PVTZ
    Blend: AUG-CC-PVTZ
  Basis Set: (AUG-CC-PVTZ AUX)
    Blend: AUG-CC-PVTZ-JKFIT
	 Reference Energy          =   -5374.5322693952521149 [Eh]
	 Singles Energy            =      -0.0000000000000000 [Eh]
	 Same-Spin Energy          =      -0.4436723799353462 [Eh]
	 Opposite-Spin Energy      =      -1.2072465317039223 [Eh]
	 Correlation Energy        =      -1.6509189116392684 [Eh]
	 Total Energy              =   -5376.1831883068916795 [Eh]

	 ================> DF-SCS-MP2 Energies <==================
	-----------------------------------------------------------
	 SCS Same-Spin Scale       =       0.3333333333333333 [-]
	 SCS Opposite-Spin Scale   =       1.2000000000000000 [-]
	 SCS Same-Spin Energy      =      -0.1478907933117821 [Eh]
	 SCS Opposite-Spin Energy  =      -1.4486958380447066 [Eh]
	 SCS Correlation Energy    =      -1.5965866313564887 [Eh]
	 SCS Total Energy          =   -5376.1288560266084460 [Eh]
	-----------------------------------------------------------

  Dipole Moment: [D]
     X:    -0.0000      Y:    -1.6150      Z:    -0.0306     Total:     1.6153

*** Psi4 exiting successfully. Buy a developer a beer!
