                               Psi4 1.3.2 release

  ==> Input File <==

--------------------------------------------------------------------------
#psi4
#
memory 32 gb

molecule  {
0 1
 Br       -2.8410010     0.6223350     0.0000430
 Br        2.8410110     0.6223260    -0.0000690
  C        0.0000010     0.3842340     0.0000060
  C       -1.1947360    -0.3356120     0.0000280
  C        1.1947310    -0.3356150     0.0000060
  C       -1.2149137    -1.7308345    -0.0499550
  C        1.2148860    -1.7308340     0.0000120
  C       -0.0000170    -2.4179180     0.0000370
  H        0.0000090     1.4694240    -0.0000080
  H       -2.1604800    -2.2639390     0.0000780
  H        2.1604490    -2.2639450     0.0000000
  H       -0.0000260    -3.5052070     0.0000330
units angstrom
no_reorient  #important for SAPT in psi4, default
symmetry c1  #important for SAPT in psi4, default
}

set PROPERTIES_ORIGIN ["COM"]
properties('MP2/aug-cc-pvtz', properties = ['dipole'])
--------------------------------------------------------------------------

    Molecular point group: c1
  Charge       = 0
  Multiplicity = 1
  Basis Set: AUG-CC-PVTZ
    Blend: AUG-CC-PVTZ
  Basis Set: (AUG-CC-PVTZ AUX)
    Blend: AUG-CC-PVTZ-JKFIT

    Orbital Energies [Eh]
    ---------------------

    Doubly Occupied:

       1A   -490.034427     2A   -490.034366     3A    -65.174145
       4A    -65.174087     5A    -58.529473     6A    -58.529414
       7A    -58.528057     8A    -58.528029     9A    -58.527999
      10A    -58.527971    11A    -11.317881    12A    -11.317801
      13A    -11.271576    14A    -11.268458    15A    -11.266769
      16A    -11.266287    17A     -9.846872    18A     -9.846817
      19A     -7.458527    20A     -7.458472    21A     -7.451618
      22A     -7.451578    23A     -7.451564    24A     -7.451523
      25A     -3.202327    26A     -3.202271    27A     -3.198739
      28A     -3.198684    29A     -3.198528    30A     -3.198472
      31A     -3.189710    32A     -3.189703    33A     -3.189656
      34A     -3.189648    35A     -1.196099    36A     -1.098705
      37A     -1.068690    38A     -0.999862    39A     -0.980102
      40A     -0.851709    41A     -0.816793    42A     -0.717589
      43A     -0.668336    44A     -0.639702    45A     -0.592689
      46A     -0.589914    47A     -0.556569    48A     -0.519114
      49A     -0.498880    50A     -0.470044    51A     -0.431733
      52A     -0.428503    53A     -0.422528    54A     -0.356808
      55A     -0.342275

  @DF-RHF Final Energy: -5374.53167165242121

   => Energetics <=

    Nuclear Repulsion Energy =            764.3709799241612473
    One-Electron Energy =               -8997.9691209896136570
    Two-Electron Energy =                2859.0664694130323369
    Total Energy =                      -5374.5316716524212097
  Basis Set: (AUG-CC-PVTZ AUX)
    Blend: AUG-CC-PVTZ-RI
    Molecular point group: c1

    Geometry (in Angstrom), charge = 0, multiplicity = 1:

       Center              X                  Y                   Z               Mass
    ------------   -----------------  -----------------  -----------------  -----------------
         BR          -2.841001668787     0.547025009117     0.002610004182    78.918337600000
         BR           2.841010331213     0.547016009117     0.002498004182    78.918337600000
         C            0.000000331213     0.308924009117     0.002573004182    12.000000000000
         C           -1.194736668787    -0.410921990883     0.002595004182    12.000000000000
         C            1.194730331213    -0.410924990883     0.002573004182    12.000000000000
         C           -1.214914368787    -1.806144490883    -0.047387995818    12.000000000000
         C            1.214885331213    -1.806143990883     0.002579004182    12.000000000000
         C           -0.000017668787    -2.493227990883     0.002604004182    12.000000000000
         H            0.000008331213     1.394114009117     0.002559004182     1.007825032230
         H           -2.160480668787    -2.339248990883     0.002645004182     1.007825032230
         H            2.160448331213    -2.339254990883     0.002567004182     1.007825032230
         H           -0.000026668787    -3.580516990883     0.002600004182     1.007825032230

  Basis Set: AUG-CC-PVTZ
    Blend: AUG-CC-PVTZ
  Basis Set: (AUG-CC-PVTZ AUX)
    Blend: AUG-CC-PVTZ-JKFIT
	 Reference Energy          =   -5374.5316716524212097 [Eh]
	 Singles Energy            =      -0.0000000000000000 [Eh]
	 Same-Spin Energy          =      -0.4436896344353978 [Eh]
	 Opposite-Spin Energy      =      -1.2073112367483581 [Eh]
	 Correlation Energy        =      -1.6510008711837558 [Eh]
	 Total Energy              =   -5376.1826725236051061 [Eh]

	 ================> DF-SCS-MP2 Energies <==================
	-----------------------------------------------------------
	 SCS Same-Spin Scale       =       0.3333333333333333 [-]
	 SCS Opposite-Spin Scale   =       1.2000000000000000 [-]
	 SCS Same-Spin Energy      =      -0.1478965448117993 [Eh]
	 SCS Opposite-Spin Energy  =      -1.4487734840980295 [Eh]
	 SCS Correlation Energy    =      -1.5966700289098288 [Eh]
	 SCS Total Energy          =   -5376.1283416813312215 [Eh]
	-----------------------------------------------------------

  Dipole Moment: [D]
     X:     0.0055      Y:    -1.6136      Z:     0.0219     Total:     1.6138

*** Psi4 exiting successfully. Buy a developer a beer!
