                               Psi4 1.3.2 release

  ==> Input File <==

--------------------------------------------------------------------------
#psi4
#
memory 32 gb

molecule  {
0 1
 Br       -2.8410010     0.6223350     0.0000430
 Br        2.8410110     0.6223260    -0.0000690
  C        0.0000010     0.3842340     0.0000060
  C       -1.1947360    -0.3356120     0.0000280
  C        1.1947310    -0.3356150     0.0000060
  C       -1.2149130    -1.7308340     0.0000450
  C        1.2148860    -1.7308340     0.0000120
  C       -0.0000170    -2.4179180     0.0000370
  H        0.0000108     1.4694268     0.1999920
  H       -2.1604800    -2.2639390     0.0000780
  H        2.1604490    -2.2639450     0.0000000
  H       -0.0000260    -3.5052070     0.0000330
units angstrom
no_reorient  #important for SAPT in psi4, default
symmetry c1  #important for SAPT in psi4, default
}

set PROPERTIES_ORIGIN ["COM"]
properties('MP2/aug-cc-pvtz', properties = ['dipole'])
--------------------------------------------------------------------------

    Molecular point group: c1
  Charge       = 0
  Multiplicity = 1
  Basis Set: AUG-CC-PVTZ
    Blend: AUG-CC-PVTZ
  Basis Set: (AUG-CC-PVTZ AUX)
    Blend: AUG-CC-PVTZ-JKFIT

    Orbital Energies [Eh]
    ---------------------

    Doubly Occupied:

       1A   -490.034357     2A   -490.034356     3A    -65.174075
       4A    -65.174074     5A    -58.529402     6A    -58.529402
       7A    -58.527987     8A    -58.527987     9A    -58.527957
      10A    -58.527957    11A    -11.317934    12A    -11.317923
      13A    -11.272950    14A    -11.268556    15A    -11.266718
      16A    -11.266309    17A     -9.846802    18A     -9.846801
      19A     -7.458457    20A     -7.458456    21A     -7.451556
      22A     -7.451555    23A     -7.451497    24A     -7.451496
      25A     -3.202258    26A     -3.202257    27A     -3.198674
      28A     -3.198673    29A     -3.198451    30A     -3.198450
      31A     -3.189637    32A     -3.189637    33A     -3.189630
      34A     -3.189629    35A     -1.196169    36A     -1.098785
      37A     -1.068548    38A     -0.999497    39A     -0.980234
      40A     -0.850849    41A     -0.816928    42A     -0.716075
      43A     -0.668616    44A     -0.637985    45A     -0.591955
      46A     -0.590187    47A     -0.556487    48A     -0.517715
      49A     -0.498976    50A     -0.470087    51A     -0.431750
      52A     -0.428438    53A     -0.422462    54A     -0.356640
      55A     -0.342328

  @DF-RHF Final Energy: -5374.52983015636073

   => Energetics <=

    Nuclear Repulsion Energy =            764.3100357506319824
    One-Electron Energy =               -8997.8545853896885092
    Two-Electron Energy =                2859.0147194826959094
    Total Energy =                      -5374.5298301563607311
  Basis Set: (AUG-CC-PVTZ AUX)
    Blend: AUG-CC-PVTZ-RI
    Molecular point group: c1

    Geometry (in Angstrom), charge = 0, multiplicity = 1:

       Center              X                  Y                   Z               Mass
    ------------   -----------------  -----------------  -----------------  -----------------
         BR          -2.841001712461     0.547024971396    -0.000817421079    78.918337600000
         BR           2.841010287539     0.547015971396    -0.000929421079    78.918337600000
         C            0.000000287539     0.308923971396    -0.000854421079    12.000000000000
         C           -1.194736712461    -0.410922028604    -0.000832421079    12.000000000000
         C            1.194730287539    -0.410925028604    -0.000854421079    12.000000000000
         C           -1.214913712461    -1.806144028604    -0.000815421079    12.000000000000
         C            1.214885287539    -1.806144028604    -0.000848421079    12.000000000000
         C           -0.000017712461    -2.493228028604    -0.000823421079    12.000000000000
         H            0.000010087539     1.394116771396     0.199131578921     1.007825032230
         H           -2.160480712461    -2.339249028604    -0.000782421079     1.007825032230
         H            2.160448287539    -2.339255028604    -0.000860421079     1.007825032230
         H           -0.000026712461    -3.580517028604    -0.000827421079     1.007825032230

  Basis Set: AUG-CC-PVTZ
    Blend: AUG-CC-PVTZ
  Basis Set: (AUG-CC-PVTZ AUX)
    Blend: AUG-CC-PVTZ-JKFIT
	 Reference Energy          =   -5374.5298301563607311 [Eh]
	 Singles Energy            =      -0.0000000000000000 [Eh]
	 Same-Spin Energy          =      -0.4438344800685670 [Eh]
	 Opposite-Spin Energy      =      -1.2075504213834869 [Eh]
	 Correlation Energy        =      -1.6513849014520539 [Eh]
	 Total Energy              =   -5376.1812150578125511 [Eh]

	 ================> DF-SCS-MP2 Energies <==================
	-----------------------------------------------------------
	 SCS Same-Spin Scale       =       0.3333333333333333 [-]
	 SCS Opposite-Spin Scale   =       1.2000000000000000 [-]
	 SCS Same-Spin Energy      =      -0.1479448266895223 [Eh]
	 SCS Opposite-Spin Energy  =      -1.4490605056601842 [Eh]
	 SCS Correlation Energy    =      -1.5970053323497064 [Eh]
	 SCS Total Energy          =   -5376.1268354887106398 [Eh]
	-----------------------------------------------------------

  Dipole Moment: [D]
     X:    -0.0000      Y:    -1.6390      Z:     0.1150     Total:     1.6431

*** Psi4 exiting successfully. Buy a developer a beer!
