                               Psi4 1.3.2 release

  ==> Input File <==

--------------------------------------------------------------------------
#psi4
#
memory 32 gb

molecule  {
0 1
 Br       -2.8410010     0.6223350     0.0000430
 Br        2.8410110     0.6223260    -0.0000690
  C        0.0000010     0.3842340     0.0000060
  C       -1.1947360    -0.3356120     0.0000280
  C        1.1947310    -0.3356150     0.0000060
  C       -1.2149130    -1.7308340     0.0000450
  C        1.2148860    -1.7308340     0.0000120
  C       -0.0000170    -2.4179180     0.0000370
  H        0.0000090     1.4694240    -0.0000080
  H       -2.1604800    -2.2639390     0.0000780
  H        2.1604490    -2.2639450     0.0000000
  H       -0.0000301    -3.5052078    -0.2999670
units angstrom
no_reorient  #important for SAPT in psi4, default
symmetry c1  #important for SAPT in psi4, default
}

set PROPERTIES_ORIGIN ["COM"]
properties('MP2/aug-cc-pvtz', properties = ['dipole'])
--------------------------------------------------------------------------

    Molecular point group: c1
  Charge       = 0
  Multiplicity = 1
  Basis Set: AUG-CC-PVTZ
    Blend: AUG-CC-PVTZ
  Basis Set: (AUG-CC-PVTZ AUX)
    Blend: AUG-CC-PVTZ-JKFIT

    Orbital Energies [Eh]
    ---------------------

    Doubly Occupied:

       1A   -490.034551     2A   -490.034550     3A    -65.174271
       4A    -65.174271     5A    -58.529599     6A    -58.529598
       7A    -58.528182     8A    -58.528182     9A    -58.528155
      10A    -58.528155    11A    -11.317937    12A    -11.317926
      13A    -11.272417    14A    -11.271498    15A    -11.267379
      16A    -11.267190    17A     -9.847002    18A     -9.847001
      19A     -7.458657    20A     -7.458656    21A     -7.451746
      22A     -7.451745    23A     -7.451709    24A     -7.451709
      25A     -3.202457    26A     -3.202455    27A     -3.198867
      28A     -3.198866    29A     -3.198659    30A     -3.198659
      31A     -3.189838    32A     -3.189838    33A     -3.189831
      34A     -3.189830    35A     -1.196495    36A     -1.099057
      37A     -1.068064    38A     -0.999931    39A     -0.980499
      40A     -0.848574    41A     -0.817216    42A     -0.717713
      43A     -0.668872    44A     -0.631705    45A     -0.593114
      46A     -0.590541    47A     -0.557364    48A     -0.516136
      49A     -0.499189    50A     -0.470340    51A     -0.431920
      52A     -0.427678    53A     -0.422725    54A     -0.356498
      55A     -0.342563

  @DF-RHF Final Energy: -5374.52610537586952

   => Energetics <=

    Nuclear Repulsion Energy =            764.2441760215998556
    One-Electron Energy =               -8997.7054019839488319
    Two-Electron Energy =                2858.9351205864782060
    Total Energy =                      -5374.5261053758695198
  Basis Set: (AUG-CC-PVTZ AUX)
    Blend: AUG-CC-PVTZ-RI
    Molecular point group: c1

    Geometry (in Angstrom), charge = 0, multiplicity = 1:

       Center              X                  Y                   Z               Mass
    ------------   -----------------  -----------------  -----------------  -----------------
         BR          -2.841001687036     0.547024986909     0.001337266904    78.918337600000
         BR           2.841010312964     0.547015986909     0.001225266904    78.918337600000
         C            0.000000312964     0.308923986909     0.001300266904    12.000000000000
         C           -1.194736687036    -0.410922013091     0.001322266904    12.000000000000
         C            1.194730312964    -0.410925013091     0.001300266904    12.000000000000
         C           -1.214913687036    -1.806144013091     0.001339266904    12.000000000000
         C            1.214885312964    -1.806144013091     0.001306266904    12.000000000000
         C           -0.000017687036    -2.493228013091     0.001331266904    12.000000000000
         H            0.000008312964     1.394113986909     0.001286266904     1.007825032230
         H           -2.160480687036    -2.339249013091     0.001372266904     1.007825032230
         H            2.160448312964    -2.339255013091     0.001294266904     1.007825032230
         H           -0.000030787036    -3.580517813091    -0.298672733096     1.007825032230

  Basis Set: AUG-CC-PVTZ
    Blend: AUG-CC-PVTZ
  Basis Set: (AUG-CC-PVTZ AUX)
    Blend: AUG-CC-PVTZ-JKFIT
	 Reference Energy          =   -5374.5261053758695198 [Eh]
	 Singles Energy            =      -0.0000000000000000 [Eh]
	 Same-Spin Energy          =      -0.4439301682935177 [Eh]
	 Opposite-Spin Energy      =      -1.2079514217353080 [Eh]
	 Correlation Energy        =      -1.6518815900288257 [Eh]
	 Total Energy              =   -5376.1779869658985263 [Eh]

	 ================> DF-SCS-MP2 Energies <==================
	-----------------------------------------------------------
	 SCS Same-Spin Scale       =       0.3333333333333333 [-]
	 SCS Opposite-Spin Scale   =       1.2000000000000000 [-]
	 SCS Same-Spin Energy      =      -0.1479767227645059 [Eh]
	 SCS Opposite-Spin Energy  =      -1.4495417060823697 [Eh]
	 SCS Correlation Energy    =      -1.5975184288468756 [Eh]
	 SCS Total Energy          =   -5376.1236238047167717 [Eh]
	-----------------------------------------------------------

  Dipole Moment: [D]
     X:    -0.0000      Y:    -1.5496      Z:    -0.1799     Total:     1.5601

*** Psi4 exiting successfully. Buy a developer a beer!
