                               Psi4 1.3.2 release

  ==> Input File <==

--------------------------------------------------------------------------
#psi4
#
memory 32 gb

molecule  {
0 1
 Br       -2.8410010     0.6223350     0.0000430
 Br        2.8410110     0.6223260    -0.0000690
  C        0.0000010     0.3842340     0.0000060
  C       -1.1947360    -0.3356120     0.0000280
  C        1.1947310    -0.3356150     0.0000060
  C       -1.2149130    -1.7308340     0.0000450
  C        1.2148860    -1.7308340     0.0000120
  C       -0.0000170    -2.4179180     0.0000370
  H        0.0000090     1.4694240    -0.0000080
  H       -2.1604830    -2.2639414    -0.1499220
  H        2.1604490    -2.2639450     0.0000000
  H       -0.0000260    -3.5052070     0.0000330
units angstrom
no_reorient  #important for SAPT in psi4, default
symmetry c1  #important for SAPT in psi4, default
}

set PROPERTIES_ORIGIN ["COM"]
properties('MP2/aug-cc-pvtz', properties = ['dipole'])
--------------------------------------------------------------------------

    Molecular point group: c1
  Charge       = 0
  Multiplicity = 1
  Basis Set: AUG-CC-PVTZ
    Blend: AUG-CC-PVTZ
  Basis Set: (AUG-CC-PVTZ AUX)
    Blend: AUG-CC-PVTZ-JKFIT

    Orbital Energies [Eh]
    ---------------------

    Doubly Occupied:

       1A   -490.034485     2A   -490.034358     3A    -65.174203
       4A    -65.174078     5A    -58.529530     6A    -58.529405
       7A    -58.528115     8A    -58.528087     9A    -58.527990
      10A    -58.527961    11A    -11.317880    12A    -11.317824
      13A    -11.271649    14A    -11.268523    15A    -11.267219
      16A    -11.266395    17A     -9.846930    18A     -9.846806
      19A     -7.458585    20A     -7.458461    21A     -7.451676
      22A     -7.451635    23A     -7.451557    24A     -7.451506
      25A     -3.202384    26A     -3.202261    27A     -3.198797
      28A     -3.198676    29A     -3.198585    30A     -3.198458
      31A     -3.189767    32A     -3.189759    33A     -3.189643
      34A     -3.189635    35A     -1.196213    36A     -1.098713
      37A     -1.068749    38A     -0.999859    39A     -0.979948
      40A     -0.851793    41A     -0.816474    42A     -0.716524
      43A     -0.668582    44A     -0.639756    45A     -0.592556
      46A     -0.589318    47A     -0.556205    48A     -0.519126
      49A     -0.498786    50A     -0.469959    51A     -0.431722
      52A     -0.428531    53A     -0.422544    54A     -0.356867
      55A     -0.342240

  @DF-RHF Final Energy: -5374.53099653351546

   => Energetics <=

    Nuclear Repulsion Energy =            764.3572919864858477
    One-Electron Energy =               -8997.9420053065769025
    Two-Electron Energy =                2859.0537167865754782
    Total Energy =                      -5374.5309965335163724
  Basis Set: (AUG-CC-PVTZ AUX)
    Blend: AUG-CC-PVTZ-RI
    Molecular point group: c1

    Geometry (in Angstrom), charge = 0, multiplicity = 1:

       Center              X                  Y                   Z               Mass
    ------------   -----------------  -----------------  -----------------  -----------------
         BR          -2.841001691776     0.547024993804     0.000690860509    78.918337600000
         BR           2.841010308224     0.547015993804     0.000578860509    78.918337600000
         C            0.000000308224     0.308923993804     0.000653860509    12.000000000000
         C           -1.194736691776    -0.410922006196     0.000675860509    12.000000000000
         C            1.194730308224    -0.410925006196     0.000653860509    12.000000000000
         C           -1.214913691776    -1.806144006196     0.000692860509    12.000000000000
         C            1.214885308224    -1.806144006196     0.000659860509    12.000000000000
         C           -0.000017691776    -2.493228006196     0.000684860509    12.000000000000
         H            0.000008308224     1.394113993804     0.000639860509     1.007825032230
         H           -2.160483691776    -2.339251406196    -0.149274139491     1.007825032230
         H            2.160448308224    -2.339255006196     0.000647860509     1.007825032230
         H           -0.000026691776    -3.580517006196     0.000680860509     1.007825032230

  Basis Set: AUG-CC-PVTZ
    Blend: AUG-CC-PVTZ
  Basis Set: (AUG-CC-PVTZ AUX)
    Blend: AUG-CC-PVTZ-JKFIT
	 Reference Energy          =   -5374.5309965335154629 [Eh]
	 Singles Energy            =      -0.0000000000000000 [Eh]
	 Same-Spin Energy          =      -0.4437413708258209 [Eh]
	 Opposite-Spin Energy      =      -1.2073889767028825 [Eh]
	 Correlation Energy        =      -1.6511303475287034 [Eh]
	 Total Energy              =   -5376.1821268810444963 [Eh]

	 ================> DF-SCS-MP2 Energies <==================
	-----------------------------------------------------------
	 SCS Same-Spin Scale       =       0.3333333333333333 [-]
	 SCS Opposite-Spin Scale   =       1.2000000000000000 [-]
	 SCS Same-Spin Energy      =      -0.1479137902752736 [Eh]
	 SCS Opposite-Spin Energy  =      -1.4488667720434589 [Eh]
	 SCS Correlation Energy    =      -1.5967805623187326 [Eh]
	 SCS Total Energy          =   -5376.1277770958340625 [Eh]
	-----------------------------------------------------------

  Dipole Moment: [D]
     X:     0.0150      Y:    -1.6081      Z:    -0.0916     Total:     1.6108

*** Psi4 exiting successfully. Buy a developer a beer!
