                               Psi4 1.3.2 release

  ==> Input File <==

--------------------------------------------------------------------------
#psi4
#
memory 32 gb

molecule  {
0 1
 Br       -2.8410010     0.6223350     0.0000430
 Br        2.8410110     0.6223260    -0.0000690
  C        0.0000010     0.3842340     0.0000060
  C       -1.1947360    -0.3356120     0.0000280
  C        1.1947310    -0.3356150     0.0000060
  C       -1.2149130    -1.7308340     0.0000450
  C        1.2148860    -1.7308340     0.0000120
  C       -0.0000170    -2.4179180     0.0000370
  H        0.0000090     1.4694240    -0.0000080
  H       -2.1604860    -2.2639438    -0.2999220
  H        2.1604490    -2.2639450     0.0000000
  H       -0.0000260    -3.5052070     0.0000330
units angstrom
no_reorient  #important for SAPT in psi4, default
symmetry c1  #important for SAPT in psi4, default
}

set PROPERTIES_ORIGIN ["COM"]
properties('MP2/aug-cc-pvtz', properties = ['dipole'])
--------------------------------------------------------------------------

    Molecular point group: c1
  Charge       = 0
  Multiplicity = 1
  Basis Set: AUG-CC-PVTZ
    Blend: AUG-CC-PVTZ
  Basis Set: (AUG-CC-PVTZ AUX)
    Blend: AUG-CC-PVTZ-JKFIT

    Orbital Energies [Eh]
    ---------------------

    Doubly Occupied:

       1A   -490.034828     2A   -490.034333     3A    -65.174545
       4A    -65.174055     5A    -58.529873     6A    -58.529382
       7A    -58.528457     8A    -58.528428     9A    -58.527967
      10A    -58.527935    11A    -11.318447    12A    -11.318244
      13A    -11.271771    14A    -11.270041    15A    -11.268399
      16A    -11.266585    17A     -9.847272    18A     -9.846786
      19A     -7.458928    20A     -7.458442    21A     -7.452018
      22A     -7.451973    23A     -7.451545    24A     -7.451471
      25A     -3.202729    26A     -3.202245    27A     -3.199142
      28A     -3.198925    29A     -3.198665    30A     -3.198428
      31A     -3.190106    32A     -3.190098    33A     -3.189617
      34A     -3.189609    35A     -1.196340    36A     -1.098661
      37A     -1.068766    38A     -0.999917    39A     -0.979325
      40A     -0.851679    41A     -0.815448    42A     -0.712858
      43A     -0.668708    44A     -0.639961    45A     -0.592411
      46A     -0.586562    47A     -0.554555    48A     -0.518974
      49A     -0.498371    50A     -0.469604    51A     -0.431609
      52A     -0.428625    53A     -0.422632    54A     -0.356915
      55A     -0.342155

  @DF-RHF Final Energy: -5374.52619727583442

   => Energetics <=

    Nuclear Repulsion Energy =            764.2225528974477129
    One-Electron Energy =               -8997.6667783833145222
    Two-Electron Energy =                2858.9180282100305703
    Total Energy =                      -5374.5261972758353295
  Basis Set: (AUG-CC-PVTZ AUX)
    Blend: AUG-CC-PVTZ-RI
    Molecular point group: c1

    Geometry (in Angstrom), charge = 0, multiplicity = 1:

       Center              X                  Y                   Z               Mass
    ------------   -----------------  -----------------  -----------------  -----------------
         BR          -2.841001678848     0.547025004147     0.001337266904    78.918337600000
         BR           2.841010321152     0.547016004147     0.001225266904    78.918337600000
         C            0.000000321152     0.308924004147     0.001300266904    12.000000000000
         C           -1.194736678848    -0.410921995853     0.001322266904    12.000000000000
         C            1.194730321152    -0.410924995853     0.001300266904    12.000000000000
         C           -1.214913678848    -1.806143995853     0.001339266904    12.000000000000
         C            1.214885321152    -1.806143995853     0.001306266904    12.000000000000
         C           -0.000017678848    -2.493227995853     0.001331266904    12.000000000000
         H            0.000008321152     1.394114004147     0.001286266904     1.007825032230
         H           -2.160486678848    -2.339253795853    -0.298627733096     1.007825032230
         H            2.160448321152    -2.339254995853     0.001294266904     1.007825032230
         H           -0.000026678848    -3.580516995853     0.001327266904     1.007825032230

  Basis Set: AUG-CC-PVTZ
    Blend: AUG-CC-PVTZ
  Basis Set: (AUG-CC-PVTZ AUX)
    Blend: AUG-CC-PVTZ-JKFIT
	 Reference Energy          =   -5374.5261972758344200 [Eh]
	 Singles Energy            =      -0.0000000000000000 [Eh]
	 Same-Spin Energy          =      -0.4439772788440820 [Eh]
	 Opposite-Spin Energy      =      -1.2079355681069246 [Eh]
	 Correlation Energy        =      -1.6519128469510065 [Eh]
	 Total Energy              =   -5376.1781101227852560 [Eh]

	 ================> DF-SCS-MP2 Energies <==================
	-----------------------------------------------------------
	 SCS Same-Spin Scale       =       0.3333333333333333 [-]
	 SCS Opposite-Spin Scale   =       1.2000000000000000 [-]
	 SCS Same-Spin Energy      =      -0.1479924262813607 [Eh]
	 SCS Opposite-Spin Energy  =      -1.4495226817283096 [Eh]
	 SCS Correlation Energy    =      -1.5975151080096701 [Eh]
	 SCS Total Energy          =   -5376.1237123838436673 [Eh]
	-----------------------------------------------------------

  Dipole Moment: [D]
     X:     0.0588      Y:    -1.5828      Z:    -0.1811     Total:     1.5943

*** Psi4 exiting successfully. Buy a developer a beer!
