                               Psi4 1.3.2 release

  ==> Input File <==

--------------------------------------------------------------------------
#psi4
#
memory 32 gb

molecule  {
0 1
 Br       -2.8410010     0.6223350     0.0000430
 Br        2.8410110     0.6223260    -0.0000690
  C        0.0000010     0.3842340     0.0000060
  C       -1.1947360    -0.3356120     0.0000280
  C        1.1947310    -0.3356150     0.0000060
  C       -1.2149130    -1.7308340     0.0000450
  C        1.2148860    -1.7308340     0.0000120
  C       -0.0000170    -2.4179180     0.0000370
  H        0.0000113     1.4694275     0.2499920
  H       -2.1604800    -2.2639390     0.0000780
  H        2.1604490    -2.2639450     0.0000000
  H       -0.0000260    -3.5052070     0.0000330
units angstrom
no_reorient  #important for SAPT in psi4, default
symmetry c1  #important for SAPT in psi4, default
}

set PROPERTIES_ORIGIN ["COM"]
properties('MP2/aug-cc-pvtz', properties = ['dipole'])
--------------------------------------------------------------------------

    Molecular point group: c1
  Charge       = 0
  Multiplicity = 1
  Basis Set: AUG-CC-PVTZ
    Blend: AUG-CC-PVTZ
  Basis Set: (AUG-CC-PVTZ AUX)
    Blend: AUG-CC-PVTZ-JKFIT

    Orbital Energies [Eh]
    ---------------------

    Doubly Occupied:

       1A   -490.034349     2A   -490.034349     3A    -65.174068
       4A    -65.174067     5A    -58.529395     6A    -58.529394
       7A    -58.527980     8A    -58.527980     9A    -58.527949
      10A    -58.527949    11A    -11.318071    12A    -11.318060
      13A    -11.273687    14A    -11.268714    15A    -11.266748
      16A    -11.266365    17A     -9.846795    18A     -9.846794
      19A     -7.458450    20A     -7.458450    21A     -7.451552
      22A     -7.451552    23A     -7.451485    24A     -7.451484
      25A     -3.202252    26A     -3.202251    27A     -3.198671
      28A     -3.198670    29A     -3.198441    30A     -3.198440
      31A     -3.189629    32A     -3.189628    33A     -3.189621
      34A     -3.189621    35A     -1.196169    36A     -1.098813
      37A     -1.068445    38A     -0.999314    39A     -0.980267
      40A     -0.850332    41A     -0.816966    42A     -0.715156
      43A     -0.668659    44A     -0.637058    45A     -0.591486
      46A     -0.590225    47A     -0.556354    48A     -0.516868
      49A     -0.499018    50A     -0.470094    51A     -0.431743
      52A     -0.428403    53A     -0.422436    54A     -0.356527
      55A     -0.342359

  @DF-RHF Final Energy: -5374.52824865305865

   => Energetics <=

    Nuclear Repulsion Energy =            764.2584578370657482
    One-Electron Energy =               -8997.7542115387968806
    Two-Electron Energy =                2858.9675050486721375
    Total Energy =                      -5374.5282486530586539
  Basis Set: (AUG-CC-PVTZ AUX)
    Blend: AUG-CC-PVTZ-RI
    Molecular point group: c1

    Geometry (in Angstrom), charge = 0, multiplicity = 1:

       Center              X                  Y                   Z               Mass
    ------------   -----------------  -----------------  -----------------  -----------------
         BR          -2.841001714616     0.547024968379    -0.001032889877    78.918337600000
         BR           2.841010285384     0.547015968379    -0.001144889877    78.918337600000
         C            0.000000285384     0.308923968379    -0.001069889877    12.000000000000
         C           -1.194736714616    -0.410922031621    -0.001047889877    12.000000000000
         C            1.194730285384    -0.410925031621    -0.001069889877    12.000000000000
         C           -1.214913714616    -1.806144031621    -0.001030889877    12.000000000000
         C            1.214885285384    -1.806144031621    -0.001063889877    12.000000000000
         C           -0.000017714616    -2.493228031621    -0.001038889877    12.000000000000
         H            0.000010585384     1.394117468379     0.248916110123     1.007825032230
         H           -2.160480714616    -2.339249031621    -0.000997889877     1.007825032230
         H            2.160448285384    -2.339255031621    -0.001075889877     1.007825032230
         H           -0.000026714616    -3.580517031621    -0.001042889877     1.007825032230

  Basis Set: AUG-CC-PVTZ
    Blend: AUG-CC-PVTZ
  Basis Set: (AUG-CC-PVTZ AUX)
    Blend: AUG-CC-PVTZ-JKFIT
	 Reference Energy          =   -5374.5282486530586539 [Eh]
	 Singles Energy            =      -0.0000000000000000 [Eh]
	 Same-Spin Energy          =      -0.4439258097825175 [Eh]
	 Opposite-Spin Energy      =      -1.2077347806723857 [Eh]
	 Correlation Energy        =      -1.6516605904549033 [Eh]
	 Total Energy              =   -5376.1799092435139755 [Eh]

	 ================> DF-SCS-MP2 Energies <==================
	-----------------------------------------------------------
	 SCS Same-Spin Scale       =       0.3333333333333333 [-]
	 SCS Opposite-Spin Scale   =       1.2000000000000000 [-]
	 SCS Same-Spin Energy      =      -0.1479752699275058 [Eh]
	 SCS Opposite-Spin Energy  =      -1.4492817368068629 [Eh]
	 SCS Correlation Energy    =      -1.5972570067343688 [Eh]
	 SCS Total Energy          =   -5376.1255056597929070 [Eh]
	-----------------------------------------------------------

  Dipole Moment: [D]
     X:    -0.0000      Y:    -1.6512      Z:     0.1434     Total:     1.6574

*** Psi4 exiting successfully. Buy a developer a beer!
