                               Psi4 1.3.2 release

  ==> Input File <==

--------------------------------------------------------------------------
#psi4
#
memory 32 gb

molecule  {
0 1
 Br       -2.8410010     0.6223350     0.0000430
 Br        2.8410110     0.6223260    -0.0000690
  C        0.0000010     0.3842340     0.0000060
  C       -1.1947360    -0.3356120     0.0000280
  C        1.1947310    -0.3356150     0.0000060
  C       -1.2149130    -1.7308340     0.0000450
  C        1.2148860    -1.7308340     0.0000120
  C       -0.0000170    -2.4179180     0.0000370
  H        0.0000090     1.4694240    -0.0000080
  H       -2.1604800    -2.2639390     0.0000780
  H        2.1604490    -2.2639450     0.0000000
  H       -0.0000280    -3.5052074    -0.1499670
units angstrom
no_reorient  #important for SAPT in psi4, default
symmetry c1  #important for SAPT in psi4, default
}

set PROPERTIES_ORIGIN ["COM"]
properties('MP2/aug-cc-pvtz', properties = ['dipole'])
--------------------------------------------------------------------------

    Molecular point group: c1
  Charge       = 0
  Multiplicity = 1
  Basis Set: AUG-CC-PVTZ
    Blend: AUG-CC-PVTZ
  Basis Set: (AUG-CC-PVTZ AUX)
    Blend: AUG-CC-PVTZ-JKFIT

    Orbital Energies [Eh]
    ---------------------

    Doubly Occupied:

       1A   -490.034411     2A   -490.034411     3A    -65.174130
       4A    -65.174130     5A    -58.529458     6A    -58.529457
       7A    -58.528042     8A    -58.528041     9A    -58.528015
      10A    -58.528014    11A    -11.317750    12A    -11.317739
      13A    -11.271814    14A    -11.269052    15A    -11.266844
      16A    -11.266502    17A     -9.846859    18A     -9.846858
      19A     -7.458513    20A     -7.458513    21A     -7.451604
      22A     -7.451604    23A     -7.451566    24A     -7.451565
      25A     -3.202313    26A     -3.202312    27A     -3.198725
      28A     -3.198724    29A     -3.198515    30A     -3.198514
      31A     -3.189697    32A     -3.189696    33A     -3.189689
      34A     -3.189689    35A     -1.196251    36A     -1.098816
      37A     -1.068561    38A     -0.999861    39A     -0.980256
      40A     -0.850963    41A     -0.816951    42A     -0.717801
      43A     -0.668623    44A     -0.637626    45A     -0.592849
      46A     -0.590225    47A     -0.556905    48A     -0.518422
      49A     -0.498973    50A     -0.470139    51A     -0.431796
      52A     -0.428292    53A     -0.422563    54A     -0.356758
      55A     -0.342346

  @DF-RHF Final Energy: -5374.53097151699058

   => Energetics <=

    Nuclear Repulsion Energy =            764.3627406739321941
    One-Electron Energy =               -8997.9519404117363592
    Two-Electron Energy =                2859.0582282208138167
    Total Energy =                      -5374.5309715169896663
  Basis Set: (AUG-CC-PVTZ AUX)
    Blend: AUG-CC-PVTZ-RI
    Molecular point group: c1

    Geometry (in Angstrom), charge = 0, multiplicity = 1:

       Center              X                  Y                   Z               Mass
    ------------   -----------------  -----------------  -----------------  -----------------
         BR          -2.841001696086     0.547024985186     0.000690860509    78.918337600000
         BR           2.841010303914     0.547015985186     0.000578860509    78.918337600000
         C            0.000000303914     0.308923985186     0.000653860509    12.000000000000
         C           -1.194736696086    -0.410922014814     0.000675860509    12.000000000000
         C            1.194730303914    -0.410925014814     0.000653860509    12.000000000000
         C           -1.214913696086    -1.806144014814     0.000692860509    12.000000000000
         C            1.214885303914    -1.806144014814     0.000659860509    12.000000000000
         C           -0.000017696086    -2.493228014814     0.000684860509    12.000000000000
         H            0.000008303914     1.394113985186     0.000639860509     1.007825032230
         H           -2.160480696086    -2.339249014814     0.000725860509     1.007825032230
         H            2.160448303914    -2.339255014814     0.000647860509     1.007825032230
         H           -0.000028696086    -3.580517414814    -0.149319139491     1.007825032230

  Basis Set: AUG-CC-PVTZ
    Blend: AUG-CC-PVTZ
  Basis Set: (AUG-CC-PVTZ AUX)
    Blend: AUG-CC-PVTZ-JKFIT
	 Reference Energy          =   -5374.5309715169905758 [Eh]
	 Singles Energy            =      -0.0000000000000000 [Eh]
	 Same-Spin Energy          =      -0.4437213683667400 [Eh]
	 Opposite-Spin Energy      =      -1.2073786387524710 [Eh]
	 Correlation Energy        =      -1.6511000071192110 [Eh]
	 Total Energy              =   -5376.1820715241101425 [Eh]

	 ================> DF-SCS-MP2 Energies <==================
	-----------------------------------------------------------
	 SCS Same-Spin Scale       =       0.3333333333333333 [-]
	 SCS Opposite-Spin Scale   =       1.2000000000000000 [-]
	 SCS Same-Spin Energy      =      -0.1479071227889133 [Eh]
	 SCS Opposite-Spin Energy  =      -1.4488543665029652 [Eh]
	 SCS Correlation Energy    =      -1.5967614892918784 [Eh]
	 SCS Total Energy          =   -5376.1277330062821420 [Eh]
	-----------------------------------------------------------

  Dipole Moment: [D]
     X:    -0.0000      Y:    -1.5998      Z:    -0.0913     Total:     1.6024

*** Psi4 exiting successfully. Buy a developer a beer!
