                               Psi4 1.3.2 release

  ==> Input File <==

--------------------------------------------------------------------------
#psi4
#
memory 32 gb

molecule  {
0 1
 Br       -2.8410010     0.6223350     0.0000430
 Br        2.8410110     0.6223260    -0.0000690
  C        0.0000010     0.3842340     0.0000060
  C       -1.1947360    -0.3356120     0.0000280
  C        1.1947310    -0.3356150     0.0000060
  C       -1.2149130    -1.7308340     0.0000450
  C        1.2148860    -1.7308340     0.0000120
  C       -0.0000170    -2.4179180     0.0000370
  H        0.0000090     1.4694240    -0.0000080
  H       -2.1604800    -2.2639390     0.0000780
  H        2.1604490    -2.2639450     0.0000000
  H       -0.0000274    -3.5052073    -0.0999670
units angstrom
no_reorient  #important for SAPT in psi4, default
symmetry c1  #important for SAPT in psi4, default
}

set PROPERTIES_ORIGIN ["COM"]
properties('MP2/aug-cc-pvtz', properties = ['dipole'])
--------------------------------------------------------------------------

    Molecular point group: c1
  Charge       = 0
  Multiplicity = 1
  Basis Set: AUG-CC-PVTZ
    Blend: AUG-CC-PVTZ
  Basis Set: (AUG-CC-PVTZ AUX)
    Blend: AUG-CC-PVTZ-JKFIT

    Orbital Energies [Eh]
    ---------------------

    Doubly Occupied:

       1A   -490.034388     2A   -490.034387     3A    -65.174106
       4A    -65.174106     5A    -58.529434     6A    -58.529433
       7A    -58.528018     8A    -58.528017     9A    -58.527990
      10A    -58.527990    11A    -11.317718    12A    -11.317707
      13A    -11.271702    14A    -11.268617    15A    -11.266747
      16A    -11.266345    17A     -9.846834    18A     -9.846833
      19A     -7.458488    20A     -7.458488    21A     -7.451579
      22A     -7.451579    23A     -7.451540    24A     -7.451540
      25A     -3.202288    26A     -3.202287    27A     -3.198700
      28A     -3.198699    29A     -3.198490    30A     -3.198489
      31A     -3.189672    32A     -3.189671    33A     -3.189664
      34A     -3.189664    35A     -1.196209    36A     -1.098772
      37A     -1.068664    38A     -0.999852    39A     -0.980212
      40A     -0.851449    41A     -0.816903    42A     -0.717831
      43A     -0.668579    44A     -0.638767    45A     -0.592800
      46A     -0.590168    47A     -0.556818    48A     -0.518839
      49A     -0.498934    50A     -0.470103    51A     -0.431777
      52A     -0.428408    53A     -0.422535    54A     -0.356811
      55A     -0.342306

  @DF-RHF Final Energy: -5374.53179163959157

   => Energetics <=

    Nuclear Repulsion Energy =            764.3854832471018881
    One-Electron Energy =               -8997.9986570646397013
    Two-Electron Energy =                2859.0813821779447608
    Total Energy =                      -5374.5317916395924840
  Basis Set: (AUG-CC-PVTZ AUX)
    Blend: AUG-CC-PVTZ-RI
    Molecular point group: c1

    Geometry (in Angstrom), charge = 0, multiplicity = 1:

       Center              X                  Y                   Z               Mass
    ------------   -----------------  -----------------  -----------------  -----------------
         BR          -2.841001698671     0.547024984755     0.000475391711    78.918337600000
         BR           2.841010301329     0.547015984755     0.000363391711    78.918337600000
         C            0.000000301329     0.308923984755     0.000438391711    12.000000000000
         C           -1.194736698671    -0.410922015245     0.000460391711    12.000000000000
         C            1.194730301329    -0.410925015245     0.000438391711    12.000000000000
         C           -1.214913698671    -1.806144015245     0.000477391711    12.000000000000
         C            1.214885301329    -1.806144015245     0.000444391711    12.000000000000
         C           -0.000017698671    -2.493228015245     0.000469391711    12.000000000000
         H            0.000008301329     1.394113984755     0.000424391711     1.007825032230
         H           -2.160480698671    -2.339249015245     0.000510391711     1.007825032230
         H            2.160448301329    -2.339255015245     0.000432391711     1.007825032230
         H           -0.000028098671    -3.580517315245    -0.099534608289     1.007825032230

  Basis Set: AUG-CC-PVTZ
    Blend: AUG-CC-PVTZ
  Basis Set: (AUG-CC-PVTZ AUX)
    Blend: AUG-CC-PVTZ-JKFIT
	 Reference Energy          =   -5374.5317916395915745 [Eh]
	 Singles Energy            =      -0.0000000000000000 [Eh]
	 Same-Spin Energy          =      -0.4436887223231316 [Eh]
	 Opposite-Spin Energy      =      -1.2072907346560138 [Eh]
	 Correlation Energy        =      -1.6509794569791454 [Eh]
	 Total Energy              =   -5376.1827710965708320 [Eh]

	 ================> DF-SCS-MP2 Energies <==================
	-----------------------------------------------------------
	 SCS Same-Spin Scale       =       0.3333333333333333 [-]
	 SCS Opposite-Spin Scale   =       1.2000000000000000 [-]
	 SCS Same-Spin Energy      =      -0.1478962407743772 [Eh]
	 SCS Opposite-Spin Energy  =      -1.4487488815872165 [Eh]
	 SCS Correlation Energy    =      -1.5966451223615936 [Eh]
	 SCS Total Energy          =   -5376.1284367619527984 [Eh]
	-----------------------------------------------------------

  Dipole Moment: [D]
     X:    -0.0000      Y:    -1.6092      Z:    -0.0610     Total:     1.6104

*** Psi4 exiting successfully. Buy a developer a beer!
