                               Psi4 1.3.2 release

  ==> Input File <==

--------------------------------------------------------------------------
#psi4
#
memory 32 gb

molecule  {
0 1
 Br       -2.8410010     0.6223350     0.0000430
 Br        2.8410110     0.6223260    -0.0000690
  C        0.0000010     0.3842340     0.0000060
  C       -1.1947360    -0.3356120     0.0000280
  C        1.1947310    -0.3356150     0.0000060
  C       -1.2149172    -1.7308371    -0.2999550
  C        1.2148860    -1.7308340     0.0000120
  C       -0.0000170    -2.4179180     0.0000370
  H        0.0000090     1.4694240    -0.0000080
  H       -2.1604800    -2.2639390     0.0000780
  H        2.1604490    -2.2639450     0.0000000
  H       -0.0000260    -3.5052070     0.0000330
units angstrom
no_reorient  #important for SAPT in psi4, default
symmetry c1  #important for SAPT in psi4, default
}

set PROPERTIES_ORIGIN ["COM"]
properties('MP2/aug-cc-pvtz', properties = ['dipole'])
--------------------------------------------------------------------------

    Molecular point group: c1
  Charge       = 0
  Multiplicity = 1
  Basis Set: AUG-CC-PVTZ
    Blend: AUG-CC-PVTZ
  Basis Set: (AUG-CC-PVTZ AUX)
    Blend: AUG-CC-PVTZ-JKFIT

    Orbital Energies [Eh]
    ---------------------

    Doubly Occupied:

       1A   -490.036652     2A   -490.034582     3A    -65.176360
       4A    -65.174321     5A    -58.531688     6A    -58.530274
       7A    -58.530236     8A    -58.529641     9A    -58.528235
      10A    -58.528195    11A    -11.324485    12A    -11.322122
      13A    -11.275110    14A    -11.273148    15A    -11.270670
      16A    -11.265615    17A     -9.849078    18A     -9.847072
      19A     -7.460736    20A     -7.458713    21A     -7.453833
      22A     -7.453747    23A     -7.451844    24A     -7.451744
      25A     -3.204546    26A     -3.202513    27A     -3.200970
      28A     -3.200708    29A     -3.198956    30A     -3.198681
      31A     -3.191896    32A     -3.191888    33A     -3.189912
      34A     -3.189905    35A     -1.193882    36A     -1.097779
      37A     -1.066842    38A     -1.000617    39A     -0.977359
      40A     -0.847601    41A     -0.814665    42A     -0.709797
      43A     -0.661636    44A     -0.640149    45A     -0.592563
      46A     -0.581187    47A     -0.550518    48A     -0.516732
      49A     -0.497770    50A     -0.469185    51A     -0.431139
      52A     -0.428736    53A     -0.422907    54A     -0.355633
      55A     -0.342527

  @DF-RHF Final Energy: -5374.50449907237726

   => Energetics <=

    Nuclear Repulsion Energy =            763.2499803989978773
    One-Electron Energy =               -8995.6543579136905464
    Two-Electron Energy =                2857.8998784423165489
    Total Energy =                      -5374.5044990723763476
  Basis Set: (AUG-CC-PVTZ AUX)
    Blend: AUG-CC-PVTZ-RI
    Molecular point group: c1

    Geometry (in Angstrom), charge = 0, multiplicity = 1:

       Center              X                  Y                   Z               Mass
    ------------   -----------------  -----------------  -----------------  -----------------
         BR          -2.841001489198     0.547025142526     0.015437754522    78.918337600000
         BR           2.841010510802     0.547016142526     0.015325754522    78.918337600000
         C            0.000000510802     0.308924142526     0.015400754522    12.000000000000
         C           -1.194736489198    -0.410921857474     0.015422754522    12.000000000000
         C            1.194730510802    -0.410924857474     0.015400754522    12.000000000000
         C           -1.214917689198    -1.806146957474    -0.284560245478    12.000000000000
         C            1.214885510802    -1.806143857474     0.015406754522    12.000000000000
         C           -0.000017489198    -2.493227857474     0.015431754522    12.000000000000
         H            0.000008510802     1.394114142526     0.015386754522     1.007825032230
         H           -2.160480489198    -2.339248857474     0.015472754522     1.007825032230
         H            2.160448510802    -2.339254857474     0.015394754522     1.007825032230
         H           -0.000026489198    -3.580516857474     0.015427754522     1.007825032230

  Basis Set: AUG-CC-PVTZ
    Blend: AUG-CC-PVTZ
  Basis Set: (AUG-CC-PVTZ AUX)
    Blend: AUG-CC-PVTZ-JKFIT
	 Reference Energy          =   -5374.5044990723772571 [Eh]
	 Singles Energy            =      -0.0000000000000000 [Eh]
	 Same-Spin Energy          =      -0.4450236913486982 [Eh]
	 Opposite-Spin Energy      =      -1.2112528172069357 [Eh]
	 Correlation Energy        =      -1.6562765085556339 [Eh]
	 Total Energy              =   -5376.1607755809327500 [Eh]

	 ================> DF-SCS-MP2 Energies <==================
	-----------------------------------------------------------
	 SCS Same-Spin Scale       =       0.3333333333333333 [-]
	 SCS Opposite-Spin Scale   =       1.2000000000000000 [-]
	 SCS Same-Spin Energy      =      -0.1483412304495660 [Eh]
	 SCS Opposite-Spin Energy  =      -1.4535033806483229 [Eh]
	 SCS Correlation Energy    =      -1.6018446110978890 [Eh]
	 SCS Total Energy          =   -5376.1063436834747336 [Eh]
	-----------------------------------------------------------

  Dipole Moment: [D]
     X:     0.1899      Y:    -1.5058      Z:     0.1422     Total:     1.5244

*** Psi4 exiting successfully. Buy a developer a beer!
