                               Psi4 1.3.2 release

  ==> Input File <==

--------------------------------------------------------------------------
#psi4
#
memory 32 gb

molecule  {
0 1
 Br       -2.8410010     0.6223350     0.0000430
 Br        2.8410110     0.6223260    -0.0000690
  C        0.0000010     0.3842340     0.0000060
  C       -1.1947360    -0.3356120     0.0000280
  C        1.1947310    -0.3356150     0.0000060
  C       -1.2149130    -1.7308340     0.0000450
  C        1.2148860    -1.7308340     0.0000120
  C       -0.0000170    -2.4179180     0.0000370
  H        0.0000090     1.4694240    -0.0000080
  H       -2.1604850    -2.2639430    -0.2499220
  H        2.1604490    -2.2639450     0.0000000
  H       -0.0000260    -3.5052070     0.0000330
units angstrom
no_reorient  #important for SAPT in psi4, default
symmetry c1  #important for SAPT in psi4, default
}

set PROPERTIES_ORIGIN ["COM"]
properties('MP2/aug-cc-pvtz', properties = ['dipole'])
--------------------------------------------------------------------------

    Molecular point group: c1
  Charge       = 0
  Multiplicity = 1
  Basis Set: AUG-CC-PVTZ
    Blend: AUG-CC-PVTZ
  Basis Set: (AUG-CC-PVTZ AUX)
    Blend: AUG-CC-PVTZ-JKFIT

    Orbital Energies [Eh]
    ---------------------

    Doubly Occupied:

       1A   -490.034689     2A   -490.034343     3A    -65.174406
       4A    -65.174064     5A    -58.529734     6A    -58.529391
       7A    -58.528318     8A    -58.528290     9A    -58.527976
      10A    -58.527945    11A    -11.318217    12A    -11.318072
      13A    -11.271719    14A    -11.269274    15A    -11.268066
      16A    -11.266518    17A     -9.847133    18A     -9.846794
      19A     -7.458789    20A     -7.458450    21A     -7.451879
      22A     -7.451836    23A     -7.451551    24A     -7.451485
      25A     -3.202589    26A     -3.202251    27A     -3.199002
      28A     -3.198787    29A     -3.198670    30A     -3.198440
      31A     -3.189968    32A     -3.189961    33A     -3.189627
      34A     -3.189619    35A     -1.196286    36A     -1.098678
      37A     -1.068755    38A     -0.999890    39A     -0.979567
      40A     -0.851717    41A     -0.815841    42A     -0.714293
      43A     -0.668655    44A     -0.639878    45A     -0.592426
      46A     -0.587704    47A     -0.555232    48A     -0.519040
      49A     -0.498552    50A     -0.469750    51A     -0.431653
      52A     -0.428585    53A     -0.422598    54A     -0.356894
      55A     -0.342187

  @DF-RHF Final Energy: -5374.52823549961977

   => Energetics <=

    Nuclear Repulsion Energy =            764.2765788285018971
    One-Electron Energy =               -8997.7775592882535420
    Two-Electron Energy =                2858.9727449601327862
    Total Energy =                      -5374.5282354996197682
  Basis Set: (AUG-CC-PVTZ AUX)
    Blend: AUG-CC-PVTZ-RI
    Molecular point group: c1

    Geometry (in Angstrom), charge = 0, multiplicity = 1:

       Center              X                  Y                   Z               Mass
    ------------   -----------------  -----------------  -----------------  -----------------
         BR          -2.841001683157     0.547025000699     0.001121798106    78.918337600000
         BR           2.841010316843     0.547016000699     0.001009798106    78.918337600000
         C            0.000000316843     0.308924000699     0.001084798106    12.000000000000
         C           -1.194736683157    -0.410921999301     0.001106798106    12.000000000000
         C            1.194730316843    -0.410924999301     0.001084798106    12.000000000000
         C           -1.214913683157    -1.806143999301     0.001123798106    12.000000000000
         C            1.214885316843    -1.806143999301     0.001090798106    12.000000000000
         C           -0.000017683157    -2.493227999301     0.001115798106    12.000000000000
         H            0.000008316843     1.394114000699     0.001070798106     1.007825032230
         H           -2.160485683157    -2.339252999301    -0.248843201894     1.007825032230
         H            2.160448316843    -2.339254999301     0.001078798106     1.007825032230
         H           -0.000026683157    -3.580516999301     0.001111798106     1.007825032230

  Basis Set: AUG-CC-PVTZ
    Blend: AUG-CC-PVTZ
  Basis Set: (AUG-CC-PVTZ AUX)
    Blend: AUG-CC-PVTZ-JKFIT
	 Reference Energy          =   -5374.5282354996197682 [Eh]
	 Singles Energy            =      -0.0000000000000000 [Eh]
	 Same-Spin Energy          =      -0.4438806379206759 [Eh]
	 Opposite-Spin Energy      =      -1.2077045025187523 [Eh]
	 Correlation Energy        =      -1.6515851404394282 [Eh]
	 Total Energy              =   -5376.1798206400590061 [Eh]

	 ================> DF-SCS-MP2 Energies <==================
	-----------------------------------------------------------
	 SCS Same-Spin Scale       =       0.3333333333333333 [-]
	 SCS Opposite-Spin Scale   =       1.2000000000000000 [-]
	 SCS Same-Spin Energy      =      -0.1479602126402253 [Eh]
	 SCS Opposite-Spin Energy  =      -1.4492454030225026 [Eh]
	 SCS Correlation Energy    =      -1.5972056156627279 [Eh]
	 SCS Total Energy          =   -5376.1254411152822286 [Eh]
	-----------------------------------------------------------

  Dipole Moment: [D]
     X:     0.0412      Y:    -1.5930      Z:    -0.1516     Total:     1.6007

*** Psi4 exiting successfully. Buy a developer a beer!
