                               Psi4 1.3.2 release

  ==> Input File <==

--------------------------------------------------------------------------
#psi4
#
memory 32 gb

molecule  {
0 1
 Br       -2.8410010     0.6223350     0.0000430
 Br        2.8410110     0.6223260    -0.0000690
  C        0.0000010     0.3842340     0.0000060
  C       -1.1947360    -0.3356120     0.0000280
  C        1.1947310    -0.3356150     0.0000060
  C       -1.2149130    -1.7308340     0.0000450
  C        1.2148860    -1.7308340     0.0000120
  C       -0.0000170    -2.4179180     0.0000370
  H        0.0000090     1.4694240    -0.0000080
  H       -2.1604800    -2.2639390     0.0000780
  H        2.1604490    -2.2639450     0.0000000
  H       -0.0000287    -3.5052075    -0.1999670
units angstrom
no_reorient  #important for SAPT in psi4, default
symmetry c1  #important for SAPT in psi4, default
}

set PROPERTIES_ORIGIN ["COM"]
properties('MP2/aug-cc-pvtz', properties = ['dipole'])
--------------------------------------------------------------------------

    Molecular point group: c1
  Charge       = 0
  Multiplicity = 1
  Basis Set: AUG-CC-PVTZ
    Blend: AUG-CC-PVTZ
  Basis Set: (AUG-CC-PVTZ AUX)
    Blend: AUG-CC-PVTZ-JKFIT

    Orbital Energies [Eh]
    ---------------------

    Doubly Occupied:

       1A   -490.034446     2A   -490.034445     3A    -65.174166
       4A    -65.174165     5A    -58.529493     6A    -58.529492
       7A    -58.528077     8A    -58.528077     9A    -58.528050
      10A    -58.528049    11A    -11.317797    12A    -11.317786
      13A    -11.271972    14A    -11.269677    15A    -11.266982
      16A    -11.266699    17A     -9.846895    18A     -9.846894
      19A     -7.458550    20A     -7.458549    21A     -7.451640
      22A     -7.451639    23A     -7.451602    24A     -7.451602
      25A     -3.202349    26A     -3.202348    27A     -3.198760
      28A     -3.198760    29A     -3.198552    30A     -3.198551
      31A     -3.189732    32A     -3.189732    33A     -3.189725
      34A     -3.189724    35A     -1.196313    36A     -1.098878
      37A     -1.068422    38A     -0.999876    39A     -0.980318
      40A     -0.850307    41A     -0.817019    42A     -0.717767
      43A     -0.668686    44A     -0.636053    45A     -0.592919
      46A     -0.590306    47A     -0.557027    48A     -0.517836
      49A     -0.499028    50A     -0.470191    51A     -0.431825
      52A     -0.428131    53A     -0.422605    54A     -0.356687
      55A     -0.342401

  @DF-RHF Final Energy: -5374.52977690929038

   => Energetics <=

    Nuclear Repulsion Energy =            764.3313270352682594
    One-Electron Energy =               -8997.8870686097725411
    Two-Electron Energy =                2859.0259646652139054
    Total Energy =                      -5374.5297769092903764
  Basis Set: (AUG-CC-PVTZ AUX)
    Blend: AUG-CC-PVTZ-RI
    Molecular point group: c1

    Geometry (in Angstrom), charge = 0, multiplicity = 1:

       Center              X                  Y                   Z               Mass
    ------------   -----------------  -----------------  -----------------  -----------------
         BR          -2.841001693069     0.547024985617     0.000906329308    78.918337600000
         BR           2.841010306931     0.547015985617     0.000794329308    78.918337600000
         C            0.000000306931     0.308923985617     0.000869329308    12.000000000000
         C           -1.194736693069    -0.410922014383     0.000891329308    12.000000000000
         C            1.194730306931    -0.410925014383     0.000869329308    12.000000000000
         C           -1.214913693069    -1.806144014383     0.000908329308    12.000000000000
         C            1.214885306931    -1.806144014383     0.000875329308    12.000000000000
         C           -0.000017693069    -2.493228014383     0.000900329308    12.000000000000
         H            0.000008306931     1.394113985617     0.000855329308     1.007825032230
         H           -2.160480693069    -2.339249014383     0.000941329308     1.007825032230
         H            2.160448306931    -2.339255014383     0.000863329308     1.007825032230
         H           -0.000029393069    -3.580517514383    -0.199103670692     1.007825032230

  Basis Set: AUG-CC-PVTZ
    Blend: AUG-CC-PVTZ
  Basis Set: (AUG-CC-PVTZ AUX)
    Blend: AUG-CC-PVTZ-JKFIT
	 Reference Energy          =   -5374.5297769092903764 [Eh]
	 Singles Energy            =      -0.0000000000000000 [Eh]
	 Same-Spin Energy          =      -0.4437725985468827 [Eh]
	 Opposite-Spin Energy      =      -1.2075171916372711 [Eh]
	 Correlation Energy        =      -1.6512897901841539 [Eh]
	 Total Energy              =   -5376.1810666994742860 [Eh]

	 ================> DF-SCS-MP2 Energies <==================
	-----------------------------------------------------------
	 SCS Same-Spin Scale       =       0.3333333333333333 [-]
	 SCS Opposite-Spin Scale   =       1.2000000000000000 [-]
	 SCS Same-Spin Energy      =      -0.1479241995156276 [Eh]
	 SCS Opposite-Spin Energy  =      -1.4490206299647252 [Eh]
	 SCS Correlation Energy    =      -1.5969448294803528 [Eh]
	 SCS Total Energy          =   -5376.1267217387703568 [Eh]
	-----------------------------------------------------------

  Dipole Moment: [D]
     X:    -0.0000      Y:    -1.5866      Z:    -0.1213     Total:     1.5912

*** Psi4 exiting successfully. Buy a developer a beer!
