                               Psi4 1.3.2 release

  ==> Input File <==

--------------------------------------------------------------------------
#psi4
#
memory 32 gb

molecule  {
0 1
  N        2.8432420    -0.0000300    -0.0741500
  C       -1.3987330     0.0000320    -0.0172550
  C        1.4375000     0.0000010     0.0042750
  C       -0.6732730    -1.1974670    -0.0089890
  C       -0.6732520     1.1975000    -0.0089860
  C        0.7202200    -1.2039320    -0.0146160
  C        0.7202540     1.2039380    -0.0146150
  C       -2.9047610    -0.0000170     0.0277710
  H       -1.2061990    -2.1473890    -0.0196480
  H       -1.2061560     2.1474320    -0.0196330
  H        1.2591919    -2.1535353     0.2812829
  H        1.2593140     2.1503320    -0.0186990
  H       -3.3125570     0.8858000    -0.4679490
  H       -3.3126490    -0.8837290    -0.4716300
  H       -3.2750890    -0.0021640     1.0590980
  H        3.2618470     0.8295390     0.3353270
  H        3.2618090    -0.8296010     0.3353740
units angstrom
no_reorient  #important for SAPT in psi4, default
symmetry c1  #important for SAPT in psi4, default
}

set PROPERTIES_ORIGIN ["COM"]
properties('MP2/aug-cc-pvtz', properties = ['dipole'])
--------------------------------------------------------------------------

    Molecular point group: c1
  Charge       = 0
  Multiplicity = 1
  Basis Set: AUG-CC-PVTZ
    Blend: AUG-CC-PVTZ
  Basis Set: (AUG-CC-PVTZ AUX)
    Blend: AUG-CC-PVTZ-JKFIT

    Orbital Energies [Eh]
    ---------------------

    Doubly Occupied:

       1A    -15.564244     2A    -11.273483     3A    -11.232032
       4A    -11.231879     5A    -11.228057     6A    -11.227516
       7A    -11.224624     8A    -11.218907     9A     -1.218452
      10A     -1.130123    11A     -1.019949    12A     -1.007492
      13A     -0.915080    14A     -0.829708    15A     -0.788293
      16A     -0.690302    17A     -0.682328    18A     -0.630569
      19A     -0.601509    20A     -0.584589    21A     -0.575382
      22A     -0.569270    23A     -0.530528    24A     -0.525354
      25A     -0.493159    26A     -0.478001    27A     -0.438736
      28A     -0.334236    29A     -0.288134

  @DF-RHF Final Energy:  -324.87632343285446

   => Energetics <=

    Nuclear Repulsion Energy =            341.7836849078117893
    One-Electron Energy =               -1116.2561465981507354
    Two-Electron Energy =                 449.5961382574844833
    Total Energy =                       -324.8763234328544627
  Basis Set: (AUG-CC-PVTZ AUX)
    Blend: AUG-CC-PVTZ-RI
    Molecular point group: c1

    Geometry (in Angstrom), charge = 0, multiplicity = 1:

       Center              X                  Y                   Z               Mass
    ------------   -----------------  -----------------  -----------------  -----------------
         N            2.812856252031    -0.000001035461    -0.070359573884    14.003074004430
         C           -1.429118747969     0.000060964539    -0.013464573884    12.000000000000
         C            1.407114252031     0.000029964539     0.008065426116    12.000000000000
         C           -0.703658747969    -1.197438035461    -0.005198573884    12.000000000000
         C           -0.703637747969     1.197528964539    -0.005195573884    12.000000000000
         C            0.689834252031    -1.203903035461    -0.010825573884    12.000000000000
         C            0.689868252031     1.203966964539    -0.010824573884    12.000000000000
         C           -2.935146747969     0.000011964539     0.031561426116    12.000000000000
         H           -1.236584747969    -2.147360035461    -0.015857573884     1.007825032230
         H           -1.236541747969     2.147460964539    -0.015842573884     1.007825032230
         H            1.228806152031    -2.153506335461     0.285073326116     1.007825032230
         H            1.228928252031     2.150360964539    -0.014908573884     1.007825032230
         H           -3.342942747969     0.885828964539    -0.464158573884     1.007825032230
         H           -3.343034747969    -0.883700035461    -0.467839573884     1.007825032230
         H           -3.305474747969    -0.002135035461     1.062888426116     1.007825032230
         H            3.231461252031     0.829567964539     0.339117426116     1.007825032230
         H            3.231423252031    -0.829572035461     0.339164426116     1.007825032230

  Basis Set: AUG-CC-PVTZ
    Blend: AUG-CC-PVTZ
  Basis Set: (AUG-CC-PVTZ AUX)
    Blend: AUG-CC-PVTZ-JKFIT
	 Reference Energy          =    -324.8763234328544627 [Eh]
	 Singles Energy            =      -0.0000000000000000 [Eh]
	 Same-Spin Energy          =      -0.3599340791991336 [Eh]
	 Opposite-Spin Energy      =      -1.1519393489944343 [Eh]
	 Correlation Energy        =      -1.5118734281935677 [Eh]
	 Total Energy              =    -326.3881968610480158 [Eh]

	 ================> DF-SCS-MP2 Energies <==================
	-----------------------------------------------------------
	 SCS Same-Spin Scale       =       0.3333333333333333 [-]
	 SCS Opposite-Spin Scale   =       1.2000000000000000 [-]
	 SCS Same-Spin Energy      =      -0.1199780263997112 [Eh]
	 SCS Opposite-Spin Energy  =      -1.3823272187933211 [Eh]
	 SCS Correlation Energy    =      -1.5023052451930323 [Eh]
	 SCS Total Energy          =    -326.3786286780475052 [Eh]
	-----------------------------------------------------------

  Dipole Moment: [D]
     X:     0.5345      Y:     0.0733      Z:     1.2997     Total:     1.4073

*** Psi4 exiting successfully. Buy a developer a beer!
