                               Psi4 1.3.2 release

  ==> Input File <==

--------------------------------------------------------------------------
#psi4
#
memory 32 gb

molecule  {
0 1
  N        2.8432420    -0.0000300    -0.0741500
  C       -1.3987330     0.0000320    -0.0172550
  C        1.4375000     0.0000010     0.0042750
  C       -0.6732730    -1.1974670    -0.0089890
  C       -0.6732520     1.1975000    -0.0089860
  C        0.7202200    -1.2039320    -0.0146160
  C        0.7202540     1.2039380    -0.0146150
  C       -2.9047610    -0.0000170     0.0277710
  H       -1.2061990    -2.1473890    -0.0196480
  H       -1.2061560     2.1474320    -0.0196330
  H        1.2592620    -2.1503360    -0.0187000
  H        1.2593140     2.1503320    -0.0186990
  H       -3.3125570     0.8858000    -0.4679490
  H       -3.3126490    -0.8837290    -0.4716300
  H       -3.2750890    -0.0021640     1.0590980
  H        3.2618470     0.8295390     0.3353270
  H        3.2707371    -0.8296026     0.2861776
units angstrom
no_reorient  #important for SAPT in psi4, default
symmetry c1  #important for SAPT in psi4, default
}

set PROPERTIES_ORIGIN ["COM"]
properties('MP2/aug-cc-pvtz', properties = ['dipole'])
--------------------------------------------------------------------------

    Molecular point group: c1
  Charge       = 0
  Multiplicity = 1
  Basis Set: AUG-CC-PVTZ
    Blend: AUG-CC-PVTZ
  Basis Set: (AUG-CC-PVTZ AUX)
    Blend: AUG-CC-PVTZ-JKFIT

    Orbital Energies [Eh]
    ---------------------

    Doubly Occupied:

       1A    -15.562002     2A    -11.272943     3A    -11.230942
       4A    -11.230772     5A    -11.226776     6A    -11.224033
       7A    -11.223999     8A    -11.218359     9A     -1.218818
      10A     -1.129711    11A     -1.019955    12A     -1.007832
      13A     -0.914910    14A     -0.830880    15A     -0.789368
      16A     -0.691885    17A     -0.684894    18A     -0.633838
      19A     -0.603296    20A     -0.584559    21A     -0.577663
      22A     -0.569928    23A     -0.530240    24A     -0.523246
      25A     -0.494691    26A     -0.480351    27A     -0.437612
      28A     -0.334118    29A     -0.286992

  @DF-RHF Final Energy:  -324.88289258664321

   => Energetics <=

    Nuclear Repulsion Energy =            341.9947110568371045
    One-Electron Energy =               -1116.6859748871622742
    Two-Electron Energy =                 449.8083712436819610
    Total Energy =                       -324.8828925866432087
  Basis Set: (AUG-CC-PVTZ AUX)
    Blend: AUG-CC-PVTZ-RI
    Molecular point group: c1

    Geometry (in Angstrom), charge = 0, multiplicity = 1:

       Center              X                  Y                   Z               Mass
    ------------   -----------------  -----------------  -----------------  -----------------
         N            2.812771556833    -0.000031133684    -0.067072937680    14.003074004430
         C           -1.429203443167     0.000030866316    -0.010177937680    12.000000000000
         C            1.407029556833    -0.000000133684     0.011352062320    12.000000000000
         C           -0.703743443167    -1.197468133684    -0.001911937680    12.000000000000
         C           -0.703722443167     1.197498866316    -0.001908937680    12.000000000000
         C            0.689749556833    -1.203933133684    -0.007538937680    12.000000000000
         C            0.689783556833     1.203936866316    -0.007537937680    12.000000000000
         C           -2.935231443167    -0.000018133684     0.034848062320    12.000000000000
         H           -1.236669443167    -2.147390133684    -0.012570937680     1.007825032230
         H           -1.236626443167     2.147430866316    -0.012555937680     1.007825032230
         H            1.228791556833    -2.150337133684    -0.011622937680     1.007825032230
         H            1.228843556833     2.150330866316    -0.011621937680     1.007825032230
         H           -3.343027443167     0.885798866316    -0.460871937680     1.007825032230
         H           -3.343119443167    -0.883730133684    -0.464552937680     1.007825032230
         H           -3.305559443167    -0.002165133684     1.066175062320     1.007825032230
         H            3.231376556833     0.829537866316     0.342404062320     1.007825032230
         H            3.240266656833    -0.829603733684     0.293254662320     1.007825032230

  Basis Set: AUG-CC-PVTZ
    Blend: AUG-CC-PVTZ
  Basis Set: (AUG-CC-PVTZ AUX)
    Blend: AUG-CC-PVTZ-JKFIT
	 Reference Energy          =    -324.8828925866432087 [Eh]
	 Singles Energy            =      -0.0000000000000000 [Eh]
	 Same-Spin Energy          =      -0.3595476645810469 [Eh]
	 Opposite-Spin Energy      =      -1.1508552261997418 [Eh]
	 Correlation Energy        =      -1.5104028907807887 [Eh]
	 Total Energy              =    -326.3932954774239761 [Eh]

	 ================> DF-SCS-MP2 Energies <==================
	-----------------------------------------------------------
	 SCS Same-Spin Scale       =       0.3333333333333333 [-]
	 SCS Opposite-Spin Scale   =       1.2000000000000000 [-]
	 SCS Same-Spin Energy      =      -0.1198492215270156 [Eh]
	 SCS Opposite-Spin Energy  =      -1.3810262714396901 [Eh]
	 SCS Correlation Energy    =      -1.5008754929667059 [Eh]
	 SCS Total Energy          =    -326.3837680796099221 [Eh]
	-----------------------------------------------------------

  Dipole Moment: [D]
     X:     0.6293      Y:    -0.0179      Z:     1.0719     Total:     1.2431

*** Psi4 exiting successfully. Buy a developer a beer!
