                               Psi4 1.3.2 release

  ==> Input File <==

--------------------------------------------------------------------------
#psi4
#
memory 32 gb

molecule  {
0 1
  N        2.8432420    -0.0000300    -0.0741500
  C       -1.3987330     0.0000320    -0.0172550
  C        1.4375000     0.0000010     0.0042750
  C       -0.6732730    -1.1974670    -0.0089890
  C       -0.6732520     1.1975000    -0.0089860
  C        0.7202200    -1.2039320    -0.0146160
  C        0.7202540     1.2039380    -0.0146150
  C       -2.9047610    -0.0000170     0.0277710
  H       -1.2061990    -2.1473890    -0.0196480
  H       -1.2061560     2.1474320    -0.0196330
  H        1.2592620    -2.1503360    -0.0187000
  H        1.2593140     2.1503320    -0.0186990
  H       -3.3125570     0.8858000    -0.4679490
  H       -3.3126490    -0.8837290    -0.4716300
  H       -3.2750890    -0.0021640     1.0590980
  H        3.2618470     0.8295390     0.3353270
  H        3.2796651    -0.8296042     0.2369811
units angstrom
no_reorient  #important for SAPT in psi4, default
symmetry c1  #important for SAPT in psi4, default
}

set PROPERTIES_ORIGIN ["COM"]
properties('MP2/aug-cc-pvtz', properties = ['dipole'])
--------------------------------------------------------------------------

    Molecular point group: c1
  Charge       = 0
  Multiplicity = 1
  Basis Set: AUG-CC-PVTZ
    Blend: AUG-CC-PVTZ
  Basis Set: (AUG-CC-PVTZ AUX)
    Blend: AUG-CC-PVTZ-JKFIT

    Orbital Energies [Eh]
    ---------------------

    Doubly Occupied:

       1A    -15.560524     2A    -11.273228     3A    -11.230814
       4A    -11.230635     5A    -11.226424     6A    -11.223797
       7A    -11.223716     8A    -11.218162     9A     -1.219327
      10A     -1.129773    11A     -1.020110    12A     -1.007649
      13A     -0.915071    14A     -0.830913    15A     -0.789568
      16A     -0.693833    17A     -0.686527    18A     -0.633697
      19A     -0.604978    20A     -0.584377    21A     -0.577491
      22A     -0.569725    23A     -0.530433    24A     -0.522649
      25A     -0.494596    26A     -0.480259    27A     -0.436788
      28A     -0.333979    29A     -0.286262

  @DF-RHF Final Energy:  -324.88278364973178

   => Energetics <=

    Nuclear Repulsion Energy =            342.0341197501286388
    One-Electron Energy =               -1116.7631950560719361
    Two-Electron Energy =                 449.8462916562115197
    Total Energy =                       -324.8827836497317776
  Basis Set: (AUG-CC-PVTZ AUX)
    Blend: AUG-CC-PVTZ-RI
    Molecular point group: c1

    Geometry (in Angstrom), charge = 0, multiplicity = 1:

       Center              X                  Y                   Z               Mass
    ------------   -----------------  -----------------  -----------------  -----------------
         N            2.812687522390    -0.000031118624    -0.066609877590    14.003074004430
         C           -1.429287477610     0.000030881376    -0.009714877590    12.000000000000
         C            1.406945522390    -0.000000118624     0.011815122410    12.000000000000
         C           -0.703827477610    -1.197468118624    -0.001448877590    12.000000000000
         C           -0.703806477610     1.197498881376    -0.001445877590    12.000000000000
         C            0.689665522390    -1.203933118624    -0.007075877590    12.000000000000
         C            0.689699522390     1.203936881376    -0.007074877590    12.000000000000
         C           -2.935315477610    -0.000018118624     0.035311122410    12.000000000000
         H           -1.236753477610    -2.147390118624    -0.012107877590     1.007825032230
         H           -1.236710477610     2.147430881376    -0.012092877590     1.007825032230
         H            1.228707522390    -2.150337118624    -0.011159877590     1.007825032230
         H            1.228759522390     2.150330881376    -0.011158877590     1.007825032230
         H           -3.343111477610     0.885798881376    -0.460408877590     1.007825032230
         H           -3.343203477610    -0.883730118624    -0.464089877590     1.007825032230
         H           -3.305643477610    -0.002165118624     1.066638122410     1.007825032230
         H            3.231292522390     0.829537881376     0.342867122410     1.007825032230
         H            3.249110622390    -0.829605318624     0.244521222410     1.007825032230

  Basis Set: AUG-CC-PVTZ
    Blend: AUG-CC-PVTZ
  Basis Set: (AUG-CC-PVTZ AUX)
    Blend: AUG-CC-PVTZ-JKFIT
	 Reference Energy          =    -324.8827836497317776 [Eh]
	 Singles Energy            =      -0.0000000000000000 [Eh]
	 Same-Spin Energy          =      -0.3594947046754150 [Eh]
	 Opposite-Spin Energy      =      -1.1506326236339508 [Eh]
	 Correlation Energy        =      -1.5101273283093657 [Eh]
	 Total Energy              =    -326.3929109780411295 [Eh]

	 ================> DF-SCS-MP2 Energies <==================
	-----------------------------------------------------------
	 SCS Same-Spin Scale       =       0.3333333333333333 [-]
	 SCS Opposite-Spin Scale   =       1.2000000000000000 [-]
	 SCS Same-Spin Energy      =      -0.1198315682251383 [Eh]
	 SCS Opposite-Spin Energy  =      -1.3807591483607409 [Eh]
	 SCS Correlation Energy    =      -1.5005907165858792 [Eh]
	 SCS Total Energy          =    -326.3833743663176392 [Eh]
	-----------------------------------------------------------

  Dipole Moment: [D]
     X:     0.6771      Y:    -0.0338      Z:     1.0167     Total:     1.2220

*** Psi4 exiting successfully. Buy a developer a beer!
