                               Psi4 1.3.2 release

  ==> Input File <==

--------------------------------------------------------------------------
#psi4
#
memory 32 gb

molecule  {
0 1
  N        2.8432420    -0.0000300    -0.0741500
  C       -1.3987330     0.0000320    -0.0172550
  C        1.4375000     0.0000010     0.0042750
  C       -0.6732730    -1.1974670    -0.0089890
  C       -0.6732520     1.1975000    -0.0089860
  C        0.7202200    -1.2039320    -0.0146160
  C        0.7202540     1.2039380    -0.0146150
  C       -2.9047610    -0.0000170     0.0277710
  H       -1.2058031    -2.1471306    -0.2196474
  H       -1.2061560     2.1474320    -0.0196330
  H        1.2592620    -2.1503360    -0.0187000
  H        1.2593140     2.1503320    -0.0186990
  H       -3.3125570     0.8858000    -0.4679490
  H       -3.3126490    -0.8837290    -0.4716300
  H       -3.2750890    -0.0021640     1.0590980
  H        3.2618470     0.8295390     0.3353270
  H        3.2618090    -0.8296010     0.3353740
units angstrom
no_reorient  #important for SAPT in psi4, default
symmetry c1  #important for SAPT in psi4, default
}

set PROPERTIES_ORIGIN ["COM"]
properties('MP2/aug-cc-pvtz', properties = ['dipole'])
--------------------------------------------------------------------------

    Molecular point group: c1
  Charge       = 0
  Multiplicity = 1
  Basis Set: AUG-CC-PVTZ
    Blend: AUG-CC-PVTZ
  Basis Set: (AUG-CC-PVTZ AUX)
    Blend: AUG-CC-PVTZ-JKFIT

    Orbital Energies [Eh]
    ---------------------

    Doubly Occupied:

       1A    -15.563802     2A    -11.272835     3A    -11.232720
       4A    -11.231176     5A    -11.227627     6A    -11.224751
       7A    -11.224705     8A    -11.218648     9A     -1.218296
      10A     -1.129701    11A     -1.019922    12A     -1.007780
      13A     -0.914693    14A     -0.830132    15A     -0.788910
      16A     -0.689700    17A     -0.682191    18A     -0.633802
      19A     -0.601432    20A     -0.583677    21A     -0.577290
      22A     -0.568962    23A     -0.529799    24A     -0.523799
      25A     -0.495654    26A     -0.480020    27A     -0.437345
      28A     -0.334235    29A     -0.287965

  @DF-RHF Final Energy:  -324.87972105941287

   => Energetics <=

    Nuclear Repulsion Energy =            341.8695649671910815
    One-Electron Energy =               -1116.4354371082290527
    Two-Electron Energy =                 449.6861510816250984
    Total Energy =                       -324.8797210594128728
  Basis Set: (AUG-CC-PVTZ AUX)
    Blend: AUG-CC-PVTZ-RI
    Molecular point group: c1

    Geometry (in Angstrom), charge = 0, multiplicity = 1:

       Center              X                  Y                   Z               Mass
    ------------   -----------------  -----------------  -----------------  -----------------
         N            2.812851865825    -0.000033580924    -0.065653510470    14.003074004430
         C           -1.429123134175     0.000028419076    -0.008758510470    12.000000000000
         C            1.407109865825    -0.000002580924     0.012771489530    12.000000000000
         C           -0.703663134175    -1.197470580924    -0.000492510470    12.000000000000
         C           -0.703642134175     1.197496419076    -0.000489510470    12.000000000000
         C            0.689829865825    -1.203935580924    -0.006119510470    12.000000000000
         C            0.689863865825     1.203934419076    -0.006118510470    12.000000000000
         C           -2.935151134175    -0.000020580924     0.036267489530    12.000000000000
         H           -1.236193234175    -2.147134180924    -0.211150910470     1.007825032230
         H           -1.236546134175     2.147428419076    -0.011136510470     1.007825032230
         H            1.228871865825    -2.150339580924    -0.010203510470     1.007825032230
         H            1.228923865825     2.150328419076    -0.010202510470     1.007825032230
         H           -3.342947134175     0.885796419076    -0.459452510470     1.007825032230
         H           -3.343039134175    -0.883732580924    -0.463133510470     1.007825032230
         H           -3.305479134175    -0.002167580924     1.067594489530     1.007825032230
         H            3.231456865825     0.829535419076     0.343823489530     1.007825032230
         H            3.231418865825    -0.829604580924     0.343870489530     1.007825032230

  Basis Set: AUG-CC-PVTZ
    Blend: AUG-CC-PVTZ
  Basis Set: (AUG-CC-PVTZ AUX)
    Blend: AUG-CC-PVTZ-JKFIT
	 Reference Energy          =    -324.8797210594128728 [Eh]
	 Singles Energy            =      -0.0000000000000000 [Eh]
	 Same-Spin Energy          =      -0.3597992098052570 [Eh]
	 Opposite-Spin Energy      =      -1.1515321494954127 [Eh]
	 Correlation Energy        =      -1.5113313593006699 [Eh]
	 Total Energy              =    -326.3910524187135707 [Eh]

	 ================> DF-SCS-MP2 Energies <==================
	-----------------------------------------------------------
	 SCS Same-Spin Scale       =       0.3333333333333333 [-]
	 SCS Opposite-Spin Scale   =       1.2000000000000000 [-]
	 SCS Same-Spin Energy      =      -0.1199330699350857 [Eh]
	 SCS Opposite-Spin Energy  =      -1.3818385793944952 [Eh]
	 SCS Correlation Energy    =      -1.5017716493295810 [Eh]
	 SCS Total Energy          =    -326.3814927087424280 [Eh]
	-----------------------------------------------------------

  Dipole Moment: [D]
     X:     0.6041      Y:     0.0373      Z:     1.0089     Total:     1.1765

*** Psi4 exiting successfully. Buy a developer a beer!
