                               Psi4 1.3.2 release

  ==> Input File <==

--------------------------------------------------------------------------
#psi4
#
memory 32 gb

molecule  {
0 1
  N        2.8432420    -0.0000300    -0.0741500
  C       -1.3987330     0.0000320    -0.0172550
  C        1.4375000     0.0000010     0.0042750
  C       -0.6732730    -1.1974670    -0.0089890
  C       -0.6732520     1.1975000    -0.0089860
  C        0.7202200    -1.2039320    -0.0146160
  C        0.7146477     1.2039382    -0.2145364
  C       -2.9047610    -0.0000170     0.0277710
  H       -1.2061990    -2.1473890    -0.0196480
  H       -1.2061560     2.1474320    -0.0196330
  H        1.2592620    -2.1503360    -0.0187000
  H        1.2593140     2.1503320    -0.0186990
  H       -3.3125570     0.8858000    -0.4679490
  H       -3.3126490    -0.8837290    -0.4716300
  H       -3.2750890    -0.0021640     1.0590980
  H        3.2618470     0.8295390     0.3353270
  H        3.2618090    -0.8296010     0.3353740
units angstrom
no_reorient  #important for SAPT in psi4, default
symmetry c1  #important for SAPT in psi4, default
}

set PROPERTIES_ORIGIN ["COM"]
properties('MP2/aug-cc-pvtz', properties = ['dipole'])
--------------------------------------------------------------------------

    Molecular point group: c1
  Charge       = 0
  Multiplicity = 1
  Basis Set: AUG-CC-PVTZ
    Blend: AUG-CC-PVTZ
  Basis Set: (AUG-CC-PVTZ AUX)
    Blend: AUG-CC-PVTZ-JKFIT

    Orbital Energies [Eh]
    ---------------------

    Doubly Occupied:

       1A    -15.565095     2A    -11.276137     3A    -11.233305
       4A    -11.232692     5A    -11.227564     6A    -11.226873
       7A    -11.224144     8A    -11.218547     9A     -1.218179
      10A     -1.129403    11A     -1.018974    12A     -1.006621
      13A     -0.914142    14A     -0.828972    15A     -0.787831
      16A     -0.689943    17A     -0.681676    18A     -0.630848
      19A     -0.600418    20A     -0.582564    21A     -0.575305
      22A     -0.568757    23A     -0.530402    24A     -0.523642
      25A     -0.493067    26A     -0.476557    27A     -0.438942
      28A     -0.334388    29A     -0.286882

  @DF-RHF Final Energy:  -324.86928255181601

   => Energetics <=

    Nuclear Repulsion Energy =            341.4960740599263431
    One-Electron Energy =               -1115.6869712473369418
    Two-Electron Energy =                 449.3216146355946421
    Total Energy =                       -324.8692825518160134
  Basis Set: (AUG-CC-PVTZ AUX)
    Blend: AUG-CC-PVTZ-RI
    Molecular point group: c1

    Geometry (in Angstrom), charge = 0, multiplicity = 1:

       Center              X                  Y                   Z               Mass
    ------------   -----------------  -----------------  -----------------  -----------------
         N            2.813483904549    -0.000031171159    -0.045130295924    14.003074004430
         C           -1.428491095451     0.000030828841     0.011764704076    12.000000000000
         C            1.407741904549    -0.000000171159     0.033294704076    12.000000000000
         C           -0.703031095451    -1.197468171159     0.020030704076    12.000000000000
         C           -0.703010095451     1.197498828841     0.020033704076    12.000000000000
         C            0.690461904549    -1.203933171159     0.014403704076    12.000000000000
         C            0.684889604549     1.203937028841    -0.185516695924    12.000000000000
         C           -2.934519095451    -0.000018171159     0.056790704076    12.000000000000
         H           -1.235957095451    -2.147390171159     0.009371704076     1.007825032230
         H           -1.235914095451     2.147430828841     0.009386704076     1.007825032230
         H            1.229503904549    -2.150337171159     0.010319704076     1.007825032230
         H            1.229555904549     2.150330828841     0.010320704076     1.007825032230
         H           -3.342315095451     0.885798828841    -0.438929295924     1.007825032230
         H           -3.342407095451    -0.883730171159    -0.442610295924     1.007825032230
         H           -3.304847095451    -0.002165171159     1.088117704076     1.007825032230
         H            3.232088904549     0.829537828841     0.364346704076     1.007825032230
         H            3.232050904549    -0.829602171159     0.364393704076     1.007825032230

  Basis Set: AUG-CC-PVTZ
    Blend: AUG-CC-PVTZ
  Basis Set: (AUG-CC-PVTZ AUX)
    Blend: AUG-CC-PVTZ-JKFIT
	 Reference Energy          =    -324.8692825518160134 [Eh]
	 Singles Energy            =      -0.0000000000000000 [Eh]
	 Same-Spin Energy          =      -0.3602486891350604 [Eh]
	 Opposite-Spin Energy      =      -1.1532453365136273 [Eh]
	 Correlation Energy        =      -1.5134940256486877 [Eh]
	 Total Energy              =    -326.3827765774647105 [Eh]

	 ================> DF-SCS-MP2 Energies <==================
	-----------------------------------------------------------
	 SCS Same-Spin Scale       =       0.3333333333333333 [-]
	 SCS Opposite-Spin Scale   =       1.2000000000000000 [-]
	 SCS Same-Spin Energy      =      -0.1200828963783535 [Eh]
	 SCS Opposite-Spin Energy  =      -1.3838944038163528 [Eh]
	 SCS Correlation Energy    =      -1.5039773001947063 [Eh]
	 SCS Total Energy          =    -326.3732598520107331 [Eh]
	-----------------------------------------------------------

  Dipole Moment: [D]
     X:     0.5672      Y:    -0.0842      Z:     1.2574     Total:     1.3820

*** Psi4 exiting successfully. Buy a developer a beer!
