                               Psi4 1.3.2 release

  ==> Input File <==

--------------------------------------------------------------------------
#psi4
#
memory 32 gb

molecule  {
0 1
  N        2.8432420    -0.0000300    -0.0741500
  C       -1.3987330     0.0000320    -0.0172550
  C        1.4375000     0.0000010     0.0042750
  C       -0.6732730    -1.1974670    -0.0089890
  C       -0.6732520     1.1975000    -0.0089860
  C        0.7202200    -1.2039320    -0.0146160
  C        0.7202540     1.2039380    -0.0146150
  C       -2.9047610    -0.0000170     0.0277710
  H       -1.2061990    -2.1473890    -0.0196480
  H       -1.2061560     2.1474320    -0.0196330
  H        1.2592270    -2.1519357     0.1312915
  H        1.2593140     2.1503320    -0.0186990
  H       -3.3125570     0.8858000    -0.4679490
  H       -3.3126490    -0.8837290    -0.4716300
  H       -3.2750890    -0.0021640     1.0590980
  H        3.2618470     0.8295390     0.3353270
  H        3.2618090    -0.8296010     0.3353740
units angstrom
no_reorient  #important for SAPT in psi4, default
symmetry c1  #important for SAPT in psi4, default
}

set PROPERTIES_ORIGIN ["COM"]
properties('MP2/aug-cc-pvtz', properties = ['dipole'])
--------------------------------------------------------------------------

    Molecular point group: c1
  Charge       = 0
  Multiplicity = 1
  Basis Set: AUG-CC-PVTZ
    Blend: AUG-CC-PVTZ
  Basis Set: (AUG-CC-PVTZ AUX)
    Blend: AUG-CC-PVTZ-JKFIT

    Orbital Energies [Eh]
    ---------------------

    Doubly Occupied:

       1A    -15.563911     2A    -11.272831     3A    -11.231323
       4A    -11.231154     5A    -11.227238     6A    -11.225332
       7A    -11.224342     8A    -11.218658     9A     -1.218235
      10A     -1.129742    11A     -1.019802    12A     -1.007880
      13A     -0.914813    14A     -0.830525    15A     -0.788951
      16A     -0.690601    17A     -0.682202    18A     -0.633202
      19A     -0.601394    20A     -0.584453    21A     -0.577159
      22A     -0.569980    23A     -0.530222    24A     -0.524489
      25A     -0.493876    26A     -0.479861    27A     -0.438610
      28A     -0.334290    29A     -0.287845

  @DF-RHF Final Energy:  -324.88103618239018

   => Energetics <=

    Nuclear Repulsion Energy =            341.9026468870921462
    One-Electron Energy =               -1116.5015215132493722
    Two-Electron Energy =                 449.7178384437670502
    Total Energy =                       -324.8810361823901758
  Basis Set: (AUG-CC-PVTZ AUX)
    Blend: AUG-CC-PVTZ-RI
    Molecular point group: c1

    Geometry (in Angstrom), charge = 0, multiplicity = 1:

       Center              X                  Y                   Z               Mass
    ------------   -----------------  -----------------  -----------------  -----------------
         N            2.812855921654    -0.000016091632    -0.068947785827    14.003074004430
         C           -1.429119078346     0.000045908368    -0.012052785827    12.000000000000
         C            1.407113921654     0.000014908368     0.009477214173    12.000000000000
         C           -0.703659078346    -1.197453091632    -0.003786785827    12.000000000000
         C           -0.703638078346     1.197513908368    -0.003783785827    12.000000000000
         C            0.689833921654    -1.203918091632    -0.009413785827    12.000000000000
         C            0.689867921654     1.203951908368    -0.009412785827    12.000000000000
         C           -2.935147078346    -0.000003091632     0.032973214173    12.000000000000
         H           -1.236585078346    -2.147375091632    -0.014445785827     1.007825032230
         H           -1.236542078346     2.147445908368    -0.014430785827     1.007825032230
         H            1.228840921654    -2.151921791632     0.136493714173     1.007825032230
         H            1.228927921654     2.150345908368    -0.013496785827     1.007825032230
         H           -3.342943078346     0.885813908368    -0.462746785827     1.007825032230
         H           -3.343035078346    -0.883715091632    -0.466427785827     1.007825032230
         H           -3.305475078346    -0.002150091632     1.064300214173     1.007825032230
         H            3.231460921654     0.829552908368     0.340529214173     1.007825032230
         H            3.231422921654    -0.829587091632     0.340576214173     1.007825032230

  Basis Set: AUG-CC-PVTZ
    Blend: AUG-CC-PVTZ
  Basis Set: (AUG-CC-PVTZ AUX)
    Blend: AUG-CC-PVTZ-JKFIT
	 Reference Energy          =    -324.8810361823901758 [Eh]
	 Singles Energy            =      -0.0000000000000000 [Eh]
	 Same-Spin Energy          =      -0.3597070557766440 [Eh]
	 Opposite-Spin Energy      =      -1.1513440976809375 [Eh]
	 Correlation Energy        =      -1.5110511534575815 [Eh]
	 Total Energy              =    -326.3920873358477479 [Eh]

	 ================> DF-SCS-MP2 Energies <==================
	-----------------------------------------------------------
	 SCS Same-Spin Scale       =       0.3333333333333333 [-]
	 SCS Opposite-Spin Scale   =       1.2000000000000000 [-]
	 SCS Same-Spin Energy      =      -0.1199023519255480 [Eh]
	 SCS Opposite-Spin Energy  =      -1.3816129172171250 [Eh]
	 SCS Correlation Energy    =      -1.5015152691426730 [Eh]
	 SCS Total Energy          =    -326.3825514515328337 [Eh]
	-----------------------------------------------------------

  Dipole Moment: [D]
     X:     0.5670      Y:     0.0188      Z:     1.2144     Total:     1.3404

*** Psi4 exiting successfully. Buy a developer a beer!
