                               Psi4 1.3.2 release

  ==> Input File <==

--------------------------------------------------------------------------
#psi4
#
memory 32 gb

molecule  {
0 1
  N        2.8432420    -0.0000300    -0.0741500
  C       -1.3987330     0.0000320    -0.0172550
  C        1.4375000     0.0000010     0.0042750
  C       -0.6732730    -1.1974670    -0.0089890
  C       -0.6732520     1.1975000    -0.0089860
  C        0.7202200    -1.2039320    -0.0146160
  C        0.7202540     1.2039380    -0.0146150
  C       -2.9039375    -0.0000171     0.0777642
  H       -1.2061990    -2.1473890    -0.0196480
  H       -1.2061560     2.1474320    -0.0196330
  H        1.2592620    -2.1503360    -0.0187000
  H        1.2593140     2.1503320    -0.0186990
  H       -3.3125570     0.8858000    -0.4679490
  H       -3.3126490    -0.8837290    -0.4716300
  H       -3.2750890    -0.0021640     1.0590980
  H        3.2618470     0.8295390     0.3353270
  H        3.2618090    -0.8296010     0.3353740
units angstrom
no_reorient  #important for SAPT in psi4, default
symmetry c1  #important for SAPT in psi4, default
}

set PROPERTIES_ORIGIN ["COM"]
properties('MP2/aug-cc-pvtz', properties = ['dipole'])
--------------------------------------------------------------------------

    Molecular point group: c1
  Charge       = 0
  Multiplicity = 1
  Basis Set: AUG-CC-PVTZ
    Blend: AUG-CC-PVTZ
  Basis Set: (AUG-CC-PVTZ AUX)
    Blend: AUG-CC-PVTZ-JKFIT

    Orbital Energies [Eh]
    ---------------------

    Doubly Occupied:

       1A    -15.563963     2A    -11.273053     3A    -11.231228
       4A    -11.231066     5A    -11.227017     6A    -11.224280
       7A    -11.224258     8A    -11.218603     9A     -1.218359
      10A     -1.129605    11A     -1.019630    12A     -1.008093
      13A     -0.914936    14A     -0.830792    15A     -0.789357
      16A     -0.691135    17A     -0.681916    18A     -0.634167
      19A     -0.599383    20A     -0.587826    21A     -0.578035
      22A     -0.577765    23A     -0.523469    24A     -0.519597
      25A     -0.496003    26A     -0.479032    27A     -0.439014
      28A     -0.334291    29A     -0.288588

  @DF-RHF Final Energy:  -324.87973610429310

   => Energetics <=

    Nuclear Repulsion Energy =            341.9344731214736726
    One-Electron Energy =               -1116.5594929353069347
    Two-Electron Energy =                 449.7452837095401037
    Total Energy =                       -324.8797361042931016
  Basis Set: (AUG-CC-PVTZ AUX)
    Blend: AUG-CC-PVTZ-RI
    Molecular point group: c1

    Geometry (in Angstrom), charge = 0, multiplicity = 1:

       Center              X                  Y                   Z               Mass
    ------------   -----------------  -----------------  -----------------  -----------------
         N            2.812763300473    -0.000031137537    -0.073138862187    14.003074004430
         C           -1.429211699527     0.000030862463    -0.016243862187    12.000000000000
         C            1.407021300473    -0.000000137537     0.005286137813    12.000000000000
         C           -0.703751699527    -1.197468137537    -0.007977862187    12.000000000000
         C           -0.703730699527     1.197498862463    -0.007974862187    12.000000000000
         C            0.689741300473    -1.203933137537    -0.013604862187    12.000000000000
         C            0.689775300473     1.203936862463    -0.013603862187    12.000000000000
         C           -2.934416199526    -0.000018237537     0.078775337813    12.000000000000
         H           -1.236677699527    -2.147390137537    -0.018636862187     1.007825032230
         H           -1.236634699527     2.147430862463    -0.018621862187     1.007825032230
         H            1.228783300473    -2.150337137537    -0.017688862187     1.007825032230
         H            1.228835300473     2.150330862463    -0.017687862187     1.007825032230
         H           -3.343035699527     0.885798862463    -0.466937862187     1.007825032230
         H           -3.343127699527    -0.883730137537    -0.470618862187     1.007825032230
         H           -3.305567699527    -0.002165137537     1.060109137813     1.007825032230
         H            3.231368300474     0.829537862463     0.336338137813     1.007825032230
         H            3.231330300474    -0.829602137537     0.336385137813     1.007825032230

  Basis Set: AUG-CC-PVTZ
    Blend: AUG-CC-PVTZ
  Basis Set: (AUG-CC-PVTZ AUX)
    Blend: AUG-CC-PVTZ-JKFIT
	 Reference Energy          =    -324.8797361042931016 [Eh]
	 Singles Energy            =      -0.0000000000000000 [Eh]
	 Same-Spin Energy          =      -0.3596526954521196 [Eh]
	 Opposite-Spin Energy      =      -1.1512760767907877 [Eh]
	 Correlation Energy        =      -1.5109287722429072 [Eh]
	 Total Energy              =    -326.3906648765359932 [Eh]

	 ================> DF-SCS-MP2 Energies <==================
	-----------------------------------------------------------
	 SCS Same-Spin Scale       =       0.3333333333333333 [-]
	 SCS Opposite-Spin Scale   =       1.2000000000000000 [-]
	 SCS Same-Spin Energy      =      -0.1198842318173732 [Eh]
	 SCS Opposite-Spin Energy  =      -1.3815312921489451 [Eh]
	 SCS Correlation Energy    =      -1.5014155239663183 [Eh]
	 SCS Total Energy          =    -326.3811516282594312 [Eh]
	-----------------------------------------------------------

  Dipole Moment: [D]
     X:     0.6111      Y:    -0.0002      Z:     1.1495     Total:     1.3019

*** Psi4 exiting successfully. Buy a developer a beer!
