                               Psi4 1.3.2 release

  ==> Input File <==

--------------------------------------------------------------------------
#psi4
#
memory 32 gb

molecule  {
0 1
  N        2.8432420    -0.0000300    -0.0741500
  C       -1.3987330     0.0000320    -0.0172550
  C        1.4375000     0.0000010     0.0042750
  C       -0.6732730    -1.1974670    -0.0089890
  C       -0.6732520     1.1975000    -0.0089860
  C        0.7202200    -1.2039320    -0.0146160
  C        0.7202540     1.2039380    -0.0146150
  C       -2.9031140    -0.0000171     0.1277574
  H       -1.2061990    -2.1473890    -0.0196480
  H       -1.2061560     2.1474320    -0.0196330
  H        1.2592620    -2.1503360    -0.0187000
  H        1.2593140     2.1503320    -0.0186990
  H       -3.3125570     0.8858000    -0.4679490
  H       -3.3126490    -0.8837290    -0.4716300
  H       -3.2750890    -0.0021640     1.0590980
  H        3.2618470     0.8295390     0.3353270
  H        3.2618090    -0.8296010     0.3353740
units angstrom
no_reorient  #important for SAPT in psi4, default
symmetry c1  #important for SAPT in psi4, default
}

set PROPERTIES_ORIGIN ["COM"]
properties('MP2/aug-cc-pvtz', properties = ['dipole'])
--------------------------------------------------------------------------

    Molecular point group: c1
  Charge       = 0
  Multiplicity = 1
  Basis Set: AUG-CC-PVTZ
    Blend: AUG-CC-PVTZ
  Basis Set: (AUG-CC-PVTZ AUX)
    Blend: AUG-CC-PVTZ-JKFIT

    Orbital Energies [Eh]
    ---------------------

    Doubly Occupied:

       1A    -15.564306     2A    -11.273540     3A    -11.231499
       4A    -11.231336     5A    -11.227320     6A    -11.224362
       7A    -11.224341     8A    -11.219366     9A     -1.218677
      10A     -1.129686    11A     -1.019611    12A     -1.008266
      13A     -0.915913    14A     -0.830848    15A     -0.790037
      16A     -0.691752    17A     -0.681841    18A     -0.635784
      19A     -0.598021    20A     -0.596646    21A     -0.578941
      22A     -0.577812    23A     -0.523300    24A     -0.509681
      25A     -0.496878    26A     -0.476746    27A     -0.439040
      28A     -0.334418    29A     -0.289339

  @DF-RHF Final Energy:  -324.87098102794897

   => Energetics <=

    Nuclear Repulsion Energy =            341.9078617634359034
    One-Electron Energy =               -1116.4790735927565493
    Two-Electron Energy =                 449.7002308013716743
    Total Energy =                       -324.8709810279489716
  Basis Set: (AUG-CC-PVTZ AUX)
    Blend: AUG-CC-PVTZ-RI
    Molecular point group: c1

    Geometry (in Angstrom), charge = 0, multiplicity = 1:

       Center              X                  Y                   Z               Mass
    ------------   -----------------  -----------------  -----------------  -----------------
         N            2.812671008729    -0.000031137537    -0.078741727545    14.003074004430
         C           -1.429303991271     0.000030862463    -0.021846727545    12.000000000000
         C            1.406929008729    -0.000000137537    -0.000316727545    12.000000000000
         C           -0.703843991271    -1.197468137537    -0.013580727545    12.000000000000
         C           -0.703822991271     1.197498862463    -0.013577727545    12.000000000000
         C            0.689649008729    -1.203933137537    -0.019207727545    12.000000000000
         C            0.689683008729     1.203936862463    -0.019206727545    12.000000000000
         C           -2.933684991271    -0.000018237537     0.123165672455    12.000000000000
         H           -1.236769991271    -2.147390137537    -0.024239727545     1.007825032230
         H           -1.236726991271     2.147430862463    -0.024224727545     1.007825032230
         H            1.228691008729    -2.150337137537    -0.023291727545     1.007825032230
         H            1.228743008729     2.150330862463    -0.023290727545     1.007825032230
         H           -3.343127991271     0.885798862463    -0.472540727545     1.007825032230
         H           -3.343219991271    -0.883730137537    -0.476221727545     1.007825032230
         H           -3.305659991271    -0.002165137537     1.054506272455     1.007825032230
         H            3.231276008729     0.829537862463     0.330735272455     1.007825032230
         H            3.231238008729    -0.829602137537     0.330782272455     1.007825032230

  Basis Set: AUG-CC-PVTZ
    Blend: AUG-CC-PVTZ
  Basis Set: (AUG-CC-PVTZ AUX)
    Blend: AUG-CC-PVTZ-JKFIT
	 Reference Energy          =    -324.8709810279489716 [Eh]
	 Singles Energy            =      -0.0000000000000000 [Eh]
	 Same-Spin Energy          =      -0.3597492746891078 [Eh]
	 Opposite-Spin Energy      =      -1.1516522898897095 [Eh]
	 Correlation Energy        =      -1.5114015645788172 [Eh]
	 Total Energy              =    -326.3823825925277902 [Eh]

	 ================> DF-SCS-MP2 Energies <==================
	-----------------------------------------------------------
	 SCS Same-Spin Scale       =       0.3333333333333333 [-]
	 SCS Opposite-Spin Scale   =       1.2000000000000000 [-]
	 SCS Same-Spin Energy      =      -0.1199164248963693 [Eh]
	 SCS Opposite-Spin Energy  =      -1.3819827478676514 [Eh]
	 SCS Correlation Energy    =      -1.5018991727640207 [Eh]
	 SCS Total Energy          =    -326.3728802007129843 [Eh]
	-----------------------------------------------------------

  Dipole Moment: [D]
     X:     0.6533      Y:    -0.0002      Z:     1.1709     Total:     1.3408

*** Psi4 exiting successfully. Buy a developer a beer!
