                               Psi4 1.3.2 release

  ==> Input File <==

--------------------------------------------------------------------------
#psi4
#
memory 32 gb

molecule  {
0 1
  N        2.8432420    -0.0000300    -0.0741500
  C       -1.3987330     0.0000320    -0.0172550
  C        1.4375000     0.0000010     0.0042750
  C       -0.6732730    -1.1974670    -0.0089890
  C       -0.6732520     1.1975000    -0.0089860
  C        0.7202200    -1.2039320    -0.0146160
  C        0.7202540     1.2039380    -0.0146150
  C       -2.9047610    -0.0000170     0.0277710
  H       -1.2061990    -2.1473890    -0.0196480
  H       -1.2061560     2.1474320    -0.0196330
  H        1.2592620    -2.1503360    -0.0187000
  H        1.2593140     2.1503320    -0.0186990
  H       -3.3125570     0.8858000    -0.4679490
  H       -3.3126490    -0.8837290    -0.4716300
  H       -3.2750890    -0.0021640     1.0590980
  H        3.2618470     0.8295390     0.3353270
  H        3.2975213    -0.8296074     0.1385882
units angstrom
no_reorient  #important for SAPT in psi4, default
symmetry c1  #important for SAPT in psi4, default
}

set PROPERTIES_ORIGIN ["COM"]
properties('MP2/aug-cc-pvtz', properties = ['dipole'])
--------------------------------------------------------------------------

    Molecular point group: c1
  Charge       = 0
  Multiplicity = 1
  Basis Set: AUG-CC-PVTZ
    Blend: AUG-CC-PVTZ
  Basis Set: (AUG-CC-PVTZ AUX)
    Blend: AUG-CC-PVTZ-JKFIT

    Orbital Energies [Eh]
    ---------------------

    Doubly Occupied:

       1A    -15.558251     2A    -11.273760     3A    -11.230568
       4A    -11.230333     5A    -11.225771     6A    -11.223358
       7A    -11.223138     8A    -11.217792     9A     -1.219655
      10A     -1.129717    11A     -1.020250    12A     -1.007281
      13A     -0.915261    14A     -0.830908    15A     -0.789866
      16A     -0.698876    17A     -0.687512    18A     -0.633376
      19A     -0.607659    20A     -0.583925    21A     -0.577143
      22A     -0.569322    23A     -0.530907    24A     -0.521079
      25A     -0.494383    26A     -0.480039    27A     -0.435051
      28A     -0.333694    29A     -0.284889

  @DF-RHF Final Energy:  -324.88173933600496

   => Energetics <=

    Nuclear Repulsion Energy =            342.0808782687573739
    One-Electron Energy =               -1116.8577047871115155
    Two-Electron Energy =                 449.8950871823491866
    Total Energy =                       -324.8817393360049550
  Basis Set: (AUG-CC-PVTZ AUX)
    Blend: AUG-CC-PVTZ-RI
    Molecular point group: c1

    Geometry (in Angstrom), charge = 0, multiplicity = 1:

       Center              X                  Y                   Z               Mass
    ------------   -----------------  -----------------  -----------------  -----------------
         N            2.812519451621    -0.000031088505    -0.065683758352    14.003074004430
         C           -1.429455548379     0.000030911495    -0.008788758352    12.000000000000
         C            1.406777451621    -0.000000088505     0.012741241648    12.000000000000
         C           -0.703995548379    -1.197468088505    -0.000522758352    12.000000000000
         C           -0.703974548379     1.197498911495    -0.000519758352    12.000000000000
         C            0.689497451621    -1.203933088505    -0.006149758352    12.000000000000
         C            0.689531451621     1.203936911495    -0.006148758352    12.000000000000
         C           -2.935483548379    -0.000018088505     0.036237241648    12.000000000000
         H           -1.236921548379    -2.147390088505    -0.011181758352     1.007825032230
         H           -1.236878548379     2.147430911495    -0.011166758352     1.007825032230
         H            1.228539451621    -2.150337088505    -0.010233758352     1.007825032230
         H            1.228591451621     2.150330911495    -0.010232758352     1.007825032230
         H           -3.343279548379     0.885798911495    -0.459482758352     1.007825032230
         H           -3.343371548379    -0.883730088505    -0.463163758352     1.007825032230
         H           -3.305811548379    -0.002165088505     1.067564241648     1.007825032230
         H            3.231124451621     0.829537911495     0.343793241648     1.007825032230
         H            3.266798751621    -0.829608488505     0.147054441648     1.007825032230

  Basis Set: AUG-CC-PVTZ
    Blend: AUG-CC-PVTZ
  Basis Set: (AUG-CC-PVTZ AUX)
    Blend: AUG-CC-PVTZ-JKFIT
	 Reference Energy          =    -324.8817393360049550 [Eh]
	 Singles Energy            =      -0.0000000000000000 [Eh]
	 Same-Spin Energy          =      -0.3594477919667687 [Eh]
	 Opposite-Spin Energy      =      -1.1503479265184771 [Eh]
	 Correlation Energy        =      -1.5097957184852457 [Eh]
	 Total Energy              =    -326.3915350544901912 [Eh]

	 ================> DF-SCS-MP2 Energies <==================
	-----------------------------------------------------------
	 SCS Same-Spin Scale       =       0.3333333333333333 [-]
	 SCS Opposite-Spin Scale   =       1.2000000000000000 [-]
	 SCS Same-Spin Energy      =      -0.1198159306555896 [Eh]
	 SCS Opposite-Spin Energy  =      -1.3804175118221724 [Eh]
	 SCS Correlation Energy    =      -1.5002334424777619 [Eh]
	 SCS Total Energy          =    -326.3819727784826910 [Eh]
	-----------------------------------------------------------

  Dipole Moment: [D]
     X:     0.7662      Y:    -0.0601      Z:     0.8968     Total:     1.1810

*** Psi4 exiting successfully. Buy a developer a beer!
