                               Psi4 1.3.2 release

  ==> Input File <==

--------------------------------------------------------------------------
#psi4
#
memory 32 gb

molecule  {
0 1
  N        2.8432420    -0.0000300    -0.0741500
  C       -1.3987330     0.0000320    -0.0172550
  C        1.4375000     0.0000010     0.0042750
  C       -0.6732730    -1.1974670    -0.0089890
  C       -0.6732520     1.1975000    -0.0089860
  C        0.7202200    -1.2039320    -0.0146160
  C        0.7174508     1.2039381    -0.1145757
  C       -2.9047610    -0.0000170     0.0277710
  H       -1.2061990    -2.1473890    -0.0196480
  H       -1.2061560     2.1474320    -0.0196330
  H        1.2592620    -2.1503360    -0.0187000
  H        1.2593140     2.1503320    -0.0186990
  H       -3.3125570     0.8858000    -0.4679490
  H       -3.3126490    -0.8837290    -0.4716300
  H       -3.2750890    -0.0021640     1.0590980
  H        3.2618470     0.8295390     0.3353270
  H        3.2618090    -0.8296010     0.3353740
units angstrom
no_reorient  #important for SAPT in psi4, default
symmetry c1  #important for SAPT in psi4, default
}

set PROPERTIES_ORIGIN ["COM"]
properties('MP2/aug-cc-pvtz', properties = ['dipole'])
--------------------------------------------------------------------------

    Molecular point group: c1
  Charge       = 0
  Multiplicity = 1
  Basis Set: AUG-CC-PVTZ
    Blend: AUG-CC-PVTZ
  Basis Set: (AUG-CC-PVTZ AUX)
    Blend: AUG-CC-PVTZ-JKFIT

    Orbital Energies [Eh]
    ---------------------

    Doubly Occupied:

       1A    -15.564142     2A    -11.273540     3A    -11.231421
       4A    -11.231232     5A    -11.227024     6A    -11.225213
       7A    -11.224179     8A    -11.218499     9A     -1.218084
      10A     -1.129582    11A     -1.019441    12A     -1.007759
      13A     -0.914507    14A     -0.830127    15A     -0.788846
      16A     -0.690441    17A     -0.681990    18A     -0.633009
      19A     -0.601068    20A     -0.583554    21A     -0.577082
      22A     -0.569844    23A     -0.530124    24A     -0.524119
      25A     -0.494111    26A     -0.479198    27A     -0.438904
      28A     -0.334340    29A     -0.287232

  @DF-RHF Final Energy:  -324.87888866307162

   => Energetics <=

    Nuclear Repulsion Energy =            341.8314471249311168
    One-Electron Energy =               -1116.3634494504924533
    Two-Electron Energy =                 449.6531136624896590
    Total Energy =                       -324.8788886630716206
  Basis Set: (AUG-CC-PVTZ AUX)
    Blend: AUG-CC-PVTZ-RI
    Molecular point group: c1

    Geometry (in Angstrom), charge = 0, multiplicity = 1:

       Center              X                  Y                   Z               Mass
    ------------   -----------------  -----------------  -----------------  -----------------
         N            2.813169753987    -0.000031159952    -0.056333146376    14.003074004430
         C           -1.428805246013     0.000030840048     0.000561853624    12.000000000000
         C            1.407427753987    -0.000000159952     0.022091853624    12.000000000000
         C           -0.703345246013    -1.197468159952     0.008827853624    12.000000000000
         C           -0.703324246013     1.197498840048     0.008830853624    12.000000000000
         C            0.690147753987    -1.203933159952     0.003200853624    12.000000000000
         C            0.687378553987     1.203936940048    -0.096758846376    12.000000000000
         C           -2.934833246013    -0.000018159952     0.045587853624    12.000000000000
         H           -1.236271246013    -2.147390159952    -0.001831146376     1.007825032230
         H           -1.236228246013     2.147430840048    -0.001816146376     1.007825032230
         H            1.229189753987    -2.150337159952    -0.000883146376     1.007825032230
         H            1.229241753987     2.150330840048    -0.000882146376     1.007825032230
         H           -3.342629246013     0.885798840048    -0.450132146376     1.007825032230
         H           -3.342721246013    -0.883730159952    -0.453813146376     1.007825032230
         H           -3.305161246013    -0.002165159952     1.076914853624     1.007825032230
         H            3.231774753987     0.829537840048     0.353143853624     1.007825032230
         H            3.231736753987    -0.829602159952     0.353190853624     1.007825032230

  Basis Set: AUG-CC-PVTZ
    Blend: AUG-CC-PVTZ
  Basis Set: (AUG-CC-PVTZ AUX)
    Blend: AUG-CC-PVTZ-JKFIT
	 Reference Energy          =    -324.8788886630716206 [Eh]
	 Singles Energy            =      -0.0000000000000000 [Eh]
	 Same-Spin Energy          =      -0.3598092044860519 [Eh]
	 Opposite-Spin Energy      =      -1.1517583396715936 [Eh]
	 Correlation Energy        =      -1.5115675441576455 [Eh]
	 Total Energy              =    -326.3904562072292492 [Eh]

	 ================> DF-SCS-MP2 Energies <==================
	-----------------------------------------------------------
	 SCS Same-Spin Scale       =       0.3333333333333333 [-]
	 SCS Opposite-Spin Scale   =       1.2000000000000000 [-]
	 SCS Same-Spin Energy      =      -0.1199364014953506 [Eh]
	 SCS Opposite-Spin Energy  =      -1.3821100076059123 [Eh]
	 SCS Correlation Energy    =      -1.5020464091012629 [Eh]
	 SCS Total Energy          =    -326.3809350721728606 [Eh]
	-----------------------------------------------------------

  Dipole Moment: [D]
     X:     0.5806      Y:    -0.0196      Z:     1.1899     Total:     1.3242

*** Psi4 exiting successfully. Buy a developer a beer!
