                               Psi4 1.3.2 release

  ==> Input File <==

--------------------------------------------------------------------------
#psi4
#
memory 32 gb

molecule  {
0 1
  N        2.8432420    -0.0000300    -0.0741500
  C       -1.3987330     0.0000320    -0.0172550
  C        1.4375000     0.0000010     0.0042750
  C       -0.6732730    -1.1974670    -0.0089890
  C       -0.6732520     1.1975000    -0.0089860
  C        0.7202200    -1.2039320    -0.0146160
  C        0.7202540     1.2039380    -0.0146150
  C       -2.9047610    -0.0000170     0.0277710
  H       -1.2059021    -2.1471952    -0.1696476
  H       -1.2061560     2.1474320    -0.0196330
  H        1.2592620    -2.1503360    -0.0187000
  H        1.2593140     2.1503320    -0.0186990
  H       -3.3125570     0.8858000    -0.4679490
  H       -3.3126490    -0.8837290    -0.4716300
  H       -3.2750890    -0.0021640     1.0590980
  H        3.2618470     0.8295390     0.3353270
  H        3.2618090    -0.8296010     0.3353740
units angstrom
no_reorient  #important for SAPT in psi4, default
symmetry c1  #important for SAPT in psi4, default
}

set PROPERTIES_ORIGIN ["COM"]
properties('MP2/aug-cc-pvtz', properties = ['dipole'])
--------------------------------------------------------------------------

    Molecular point group: c1
  Charge       = 0
  Multiplicity = 1
  Basis Set: AUG-CC-PVTZ
    Blend: AUG-CC-PVTZ
  Basis Set: (AUG-CC-PVTZ AUX)
    Blend: AUG-CC-PVTZ-JKFIT

    Orbital Energies [Eh]
    ---------------------

    Doubly Occupied:

       1A    -15.563756     2A    -11.272764     3A    -11.231990
       4A    -11.231089     5A    -11.227428     6A    -11.224557
       7A    -11.224532     8A    -11.218625     9A     -1.218224
      10A     -1.129659    11A     -1.019854    12A     -1.007879
      13A     -0.914703    14A     -0.830421    15A     -0.789010
      16A     -0.690175    17A     -0.682171    18A     -0.633892
      19A     -0.601397    20A     -0.583968    21A     -0.577527
      22A     -0.569452    23A     -0.529909    24A     -0.523771
      25A     -0.495434    26A     -0.480193    27A     -0.437718
      28A     -0.334268    29A     -0.287882

  @DF-RHF Final Energy:  -324.88096479391209

   => Energetics <=

    Nuclear Repulsion Energy =            341.9015410847622434
    One-Electron Energy =               -1116.5005106280736982
    Two-Electron Energy =                 449.7180047493993698
    Total Energy =                       -324.8809647939120850
  Basis Set: (AUG-CC-PVTZ AUX)
    Blend: AUG-CC-PVTZ-RI
    Molecular point group: c1

    Geometry (in Angstrom), charge = 0, multiplicity = 1:

       Center              X                  Y                   Z               Mass
    ------------   -----------------  -----------------  -----------------  -----------------
         N            2.812852797658    -0.000032972879    -0.066124131589    14.003074004430
         C           -1.429122202342     0.000029027121    -0.009229131589    12.000000000000
         C            1.407110797658    -0.000001972879     0.012300868411    12.000000000000
         C           -0.703662202342    -1.197469972879    -0.000963131589    12.000000000000
         C           -0.703641202342     1.197497027121    -0.000960131589    12.000000000000
         C            0.689830797658    -1.203934972879    -0.006590131589    12.000000000000
         C            0.689864797658     1.203935027121    -0.006589131589    12.000000000000
         C           -2.935150202342    -0.000019972879     0.035796868411    12.000000000000
         H           -1.236291302342    -2.147198172879    -0.161621731589     1.007825032230
         H           -1.236545202342     2.147429027121    -0.011607131589     1.007825032230
         H            1.228872797658    -2.150338972879    -0.010674131589     1.007825032230
         H            1.228924797658     2.150329027121    -0.010673131589     1.007825032230
         H           -3.342946202342     0.885797027121    -0.459923131589     1.007825032230
         H           -3.343038202342    -0.883731972879    -0.463604131589     1.007825032230
         H           -3.305478202342    -0.002166972879     1.067123868411     1.007825032230
         H            3.231457797658     0.829536027121     0.343352868411     1.007825032230
         H            3.231419797658    -0.829603972879     0.343399868411     1.007825032230

  Basis Set: AUG-CC-PVTZ
    Blend: AUG-CC-PVTZ
  Basis Set: (AUG-CC-PVTZ AUX)
    Blend: AUG-CC-PVTZ-JKFIT
	 Reference Energy          =    -324.8809647939120850 [Eh]
	 Singles Energy            =      -0.0000000000000000 [Eh]
	 Same-Spin Energy          =      -0.3597247192823554 [Eh]
	 Opposite-Spin Energy      =      -1.1513621903202096 [Eh]
	 Correlation Energy        =      -1.5110869096025650 [Eh]
	 Total Energy              =    -326.3920517035146531 [Eh]

	 ================> DF-SCS-MP2 Energies <==================
	-----------------------------------------------------------
	 SCS Same-Spin Scale       =       0.3333333333333333 [-]
	 SCS Opposite-Spin Scale   =       1.2000000000000000 [-]
	 SCS Same-Spin Energy      =      -0.1199082397607851 [Eh]
	 SCS Opposite-Spin Energy  =      -1.3816346283842516 [Eh]
	 SCS Correlation Energy    =      -1.5015428681450367 [Eh]
	 SCS Total Energy          =    -326.3825076620570940 [Eh]
	-----------------------------------------------------------

  Dipole Moment: [D]
     X:     0.5948      Y:     0.0222      Z:     1.0369     Total:     1.1956

*** Psi4 exiting successfully. Buy a developer a beer!
