                               Psi4 1.3.2 release

  ==> Input File <==

--------------------------------------------------------------------------
#psi4
#
memory 32 gb

molecule  {
0 1
  N        2.8432420    -0.0000300    -0.0741500
  C       -1.3987330     0.0000320    -0.0172550
  C        1.4375000     0.0000010     0.0042750
  C       -0.6732730    -1.1974670    -0.0089890
  C       -0.6732520     1.1975000    -0.0089860
  C        0.7202200    -1.2039320    -0.0146160
  C        0.7202540     1.2039380    -0.0146150
  C       -2.9047610    -0.0000170     0.0277710
  H       -1.2061990    -2.1473890    -0.0196480
  H       -1.2061560     2.1474320    -0.0196330
  H        1.2592386    -2.1514024     0.0812943
  H        1.2593140     2.1503320    -0.0186990
  H       -3.3125570     0.8858000    -0.4679490
  H       -3.3126490    -0.8837290    -0.4716300
  H       -3.2750890    -0.0021640     1.0590980
  H        3.2618470     0.8295390     0.3353270
  H        3.2618090    -0.8296010     0.3353740
units angstrom
no_reorient  #important for SAPT in psi4, default
symmetry c1  #important for SAPT in psi4, default
}

set PROPERTIES_ORIGIN ["COM"]
properties('MP2/aug-cc-pvtz', properties = ['dipole'])
--------------------------------------------------------------------------

    Molecular point group: c1
  Charge       = 0
  Multiplicity = 1
  Basis Set: AUG-CC-PVTZ
    Blend: AUG-CC-PVTZ
  Basis Set: (AUG-CC-PVTZ AUX)
    Blend: AUG-CC-PVTZ-JKFIT

    Orbital Energies [Eh]
    ---------------------

    Doubly Occupied:

       1A    -15.563825     2A    -11.272720     3A    -11.231191
       4A    -11.231017     5A    -11.227183     6A    -11.224791
       7A    -11.224296     8A    -11.218609     9A     -1.218185
      10A     -1.129668    11A     -1.019778    12A     -1.007958
      13A     -0.914763    14A     -0.830698    15A     -0.789075
      16A     -0.690699    17A     -0.682172    18A     -0.633692
      19A     -0.601374    20A     -0.584499    21A     -0.577521
      22A     -0.570062    23A     -0.530164    24A     -0.524212
      25A     -0.494174    26A     -0.480171    27A     -0.438550
      28A     -0.334290    29A     -0.287790

  @DF-RHF Final Energy:  -324.88185144378809

   => Energetics <=

    Nuclear Repulsion Energy =            341.9259071524020897
    One-Electron Energy =               -1116.5492607679864250
    Two-Electron Energy =                 449.7415021717962986
    Total Energy =                       -324.8818514437880935
  Basis Set: (AUG-CC-PVTZ AUX)
    Blend: AUG-CC-PVTZ-RI
    Molecular point group: c1

    Geometry (in Angstrom), charge = 0, multiplicity = 1:

       Center              X                  Y                   Z               Mass
    ------------   -----------------  -----------------  -----------------  -----------------
         N            2.812855812469    -0.000021111297    -0.068477189180    14.003074004430
         C           -1.429119187531     0.000040888703    -0.011582189180    12.000000000000
         C            1.407113812469     0.000009888703     0.009947810820    12.000000000000
         C           -0.703659187531    -1.197458111297    -0.003316189180    12.000000000000
         C           -0.703638187531     1.197508888703    -0.003313189180    12.000000000000
         C            0.689833812469    -1.203923111297    -0.008943189180    12.000000000000
         C            0.689867812469     1.203946888703    -0.008942189180    12.000000000000
         C           -2.935147187531    -0.000008111297     0.033443810820    12.000000000000
         H           -1.236585187531    -2.147380111297    -0.013975189180     1.007825032230
         H           -1.236542187531     2.147440888703    -0.013960189180     1.007825032230
         H            1.228852412469    -2.151393511297     0.086967110820     1.007825032230
         H            1.228927812469     2.150340888703    -0.013026189180     1.007825032230
         H           -3.342943187531     0.885808888703    -0.462276189180     1.007825032230
         H           -3.343035187531    -0.883720111297    -0.465957189180     1.007825032230
         H           -3.305475187531    -0.002155111297     1.064770810820     1.007825032230
         H            3.231460812469     0.829547888703     0.340999810820     1.007825032230
         H            3.231422812469    -0.829592111297     0.341046810820     1.007825032230

  Basis Set: AUG-CC-PVTZ
    Blend: AUG-CC-PVTZ
  Basis Set: (AUG-CC-PVTZ AUX)
    Blend: AUG-CC-PVTZ-JKFIT
	 Reference Energy          =    -324.8818514437880935 [Eh]
	 Singles Energy            =      -0.0000000000000000 [Eh]
	 Same-Spin Energy          =      -0.3596618973392930 [Eh]
	 Opposite-Spin Energy      =      -1.1512339710364352 [Eh]
	 Correlation Energy        =      -1.5108958683757283 [Eh]
	 Total Energy              =    -326.3927473121638059 [Eh]

	 ================> DF-SCS-MP2 Energies <==================
	-----------------------------------------------------------
	 SCS Same-Spin Scale       =       0.3333333333333333 [-]
	 SCS Opposite-Spin Scale   =       1.2000000000000000 [-]
	 SCS Same-Spin Energy      =      -0.1198872991130977 [Eh]
	 SCS Opposite-Spin Energy  =      -1.3814807652437222 [Eh]
	 SCS Correlation Energy    =      -1.5013680643568199 [Eh]
	 SCS Total Energy          =    -326.3832195081449186 [Eh]
	-----------------------------------------------------------

  Dipole Moment: [D]
     X:     0.5736      Y:     0.0084      Z:     1.1845     Total:     1.3161

*** Psi4 exiting successfully. Buy a developer a beer!
