                               Psi4 1.3.2 release

  ==> Input File <==

--------------------------------------------------------------------------
#psi4
#
memory 32 gb

molecule  {
0 1
  N        2.8432420    -0.0000300    -0.0741500
  C       -1.3987330     0.0000320    -0.0172550
  C        1.4375000     0.0000010     0.0042750
  C       -0.6732730    -1.1974670    -0.0089890
  C       -0.6732520     1.1975000    -0.0089860
  C        0.7202200    -1.2039320    -0.0146160
  C        0.7202540     1.2039380    -0.0146150
  C       -2.9047610    -0.0000170     0.0277710
  H       -1.2060011    -2.1472598    -0.1196477
  H       -1.2061560     2.1474320    -0.0196330
  H        1.2592620    -2.1503360    -0.0187000
  H        1.2593140     2.1503320    -0.0186990
  H       -3.3125570     0.8858000    -0.4679490
  H       -3.3126490    -0.8837290    -0.4716300
  H       -3.2750890    -0.0021640     1.0590980
  H        3.2618470     0.8295390     0.3353270
  H        3.2618090    -0.8296010     0.3353740
units angstrom
no_reorient  #important for SAPT in psi4, default
symmetry c1  #important for SAPT in psi4, default
}

set PROPERTIES_ORIGIN ["COM"]
properties('MP2/aug-cc-pvtz', properties = ['dipole'])
--------------------------------------------------------------------------

    Molecular point group: c1
  Charge       = 0
  Multiplicity = 1
  Basis Set: AUG-CC-PVTZ
    Blend: AUG-CC-PVTZ
  Basis Set: (AUG-CC-PVTZ AUX)
    Blend: AUG-CC-PVTZ-JKFIT

    Orbital Energies [Eh]
    ---------------------

    Doubly Occupied:

       1A    -15.563724     2A    -11.272711     3A    -11.231466
       4A    -11.231021     5A    -11.227279     6A    -11.224419
       7A    -11.224398     8A    -11.218602     9A     -1.218171
      10A     -1.129628    11A     -1.019804    12A     -1.007954
      13A     -0.914712    14A     -0.830641    15A     -0.789086
      16A     -0.690533    17A     -0.682153    18A     -0.633951
      19A     -0.601373    20A     -0.584257    21A     -0.577693
      22A     -0.569797    23A     -0.529995    24A     -0.523741
      25A     -0.495212    26A     -0.480316    27A     -0.438020
      28A     -0.334284    29A     -0.287817

  @DF-RHF Final Energy:  -324.88183061398217

   => Energetics <=

    Nuclear Repulsion Energy =            341.9251032761673059
    One-Electron Energy =               -1116.5483529694424760
    Two-Electron Energy =                 449.7414190792929958
    Total Energy =                       -324.8818306139821743
  Basis Set: (AUG-CC-PVTZ AUX)
    Blend: AUG-CC-PVTZ-RI
    Molecular point group: c1

    Geometry (in Angstrom), charge = 0, multiplicity = 1:

       Center              X                  Y                   Z               Mass
    ------------   -----------------  -----------------  -----------------  -----------------
         N            2.812853729492    -0.000032364834    -0.066594753649    14.003074004430
         C           -1.429121270508     0.000029635166    -0.009699753649    12.000000000000
         C            1.407111729492    -0.000001364834     0.011830246351    12.000000000000
         C           -0.703661270508    -1.197469364834    -0.001433753649    12.000000000000
         C           -0.703640270508     1.197497635166    -0.001430753649    12.000000000000
         C            0.689831729492    -1.203934364834    -0.007060753649    12.000000000000
         C            0.689865729492     1.203935635166    -0.007059753649    12.000000000000
         C           -2.935149270508    -0.000019364834     0.035326246351    12.000000000000
         H           -1.236389370508    -2.147262164834    -0.112092453649     1.007825032230
         H           -1.236544270508     2.147429635166    -0.012077753649     1.007825032230
         H            1.228873729492    -2.150338364834    -0.011144753649     1.007825032230
         H            1.228925729492     2.150329635166    -0.011143753649     1.007825032230
         H           -3.342945270508     0.885797635166    -0.460393753649     1.007825032230
         H           -3.343037270508    -0.883731364834    -0.464074753649     1.007825032230
         H           -3.305477270508    -0.002166364834     1.066653246351     1.007825032230
         H            3.231458729492     0.829536635166     0.342882246351     1.007825032230
         H            3.231420729492    -0.829603364834     0.342929246351     1.007825032230

  Basis Set: AUG-CC-PVTZ
    Blend: AUG-CC-PVTZ
  Basis Set: (AUG-CC-PVTZ AUX)
    Blend: AUG-CC-PVTZ-JKFIT
	 Reference Energy          =    -324.8818306139821743 [Eh]
	 Singles Energy            =      -0.0000000000000000 [Eh]
	 Same-Spin Energy          =      -0.3596697939711064 [Eh]
	 Opposite-Spin Energy      =      -1.1512408962207816 [Eh]
	 Correlation Energy        =      -1.5109106901918881 [Eh]
	 Total Energy              =    -326.3927413041740806 [Eh]

	 ================> DF-SCS-MP2 Energies <==================
	-----------------------------------------------------------
	 SCS Same-Spin Scale       =       0.3333333333333333 [-]
	 SCS Opposite-Spin Scale   =       1.2000000000000000 [-]
	 SCS Same-Spin Energy      =      -0.1198899313237021 [Eh]
	 SCS Opposite-Spin Energy  =      -1.3814890754649378 [Eh]
	 SCS Correlation Energy    =      -1.5013790067886399 [Eh]
	 SCS Total Energy          =    -326.3832096207707991 [Eh]
	-----------------------------------------------------------

  Dipole Moment: [D]
     X:     0.5876      Y:     0.0108      Z:     1.0655     Total:     1.2168

*** Psi4 exiting successfully. Buy a developer a beer!
