                               Psi4 1.3.2 release

  ==> Input File <==

--------------------------------------------------------------------------
#psi4
#
memory 32 gb

molecule  {
0 1
  N        2.8432420    -0.0000300    -0.0741500
  C       -1.3987330     0.0000320    -0.0172550
  C        1.4375000     0.0000010     0.0042750
  C       -0.6732730    -1.1974670    -0.0089890
  C       -0.6732520     1.1975000    -0.0089860
  C        0.7202200    -1.2039320    -0.0146160
  C        0.7202540     1.2039380    -0.0146150
  C       -2.9022905    -0.0000172     0.1777507
  H       -1.2061990    -2.1473890    -0.0196480
  H       -1.2061560     2.1474320    -0.0196330
  H        1.2592620    -2.1503360    -0.0187000
  H        1.2593140     2.1503320    -0.0186990
  H       -3.3125570     0.8858000    -0.4679490
  H       -3.3126490    -0.8837290    -0.4716300
  H       -3.2750890    -0.0021640     1.0590980
  H        3.2618470     0.8295390     0.3353270
  H        3.2618090    -0.8296010     0.3353740
units angstrom
no_reorient  #important for SAPT in psi4, default
symmetry c1  #important for SAPT in psi4, default
}

set PROPERTIES_ORIGIN ["COM"]
properties('MP2/aug-cc-pvtz', properties = ['dipole'])
--------------------------------------------------------------------------

    Molecular point group: c1
  Charge       = 0
  Multiplicity = 1
  Basis Set: AUG-CC-PVTZ
    Blend: AUG-CC-PVTZ
  Basis Set: (AUG-CC-PVTZ AUX)
    Blend: AUG-CC-PVTZ-JKFIT

    Orbital Energies [Eh]
    ---------------------

    Doubly Occupied:

       1A    -15.564725     2A    -11.274123     3A    -11.231895
       4A    -11.231714     5A    -11.228060     6A    -11.224536
       7A    -11.224515     8A    -11.220839     9A     -1.219076
      10A     -1.129843    11A     -1.019732    12A     -1.008534
      13A     -0.917824    14A     -0.831004    15A     -0.791293
      16A     -0.692796    17A     -0.681893    18A     -0.639799
      19A     -0.604537    20A     -0.597112    21A     -0.577968
      22A     -0.577830    23A     -0.523291    24A     -0.501479
      25A     -0.497376    26A     -0.472748    27A     -0.438565
      28A     -0.334639    29A     -0.290005

  @DF-RHF Final Energy:  -324.85531726977376

   => Energetics <=

    Nuclear Repulsion Energy =            341.8688375816230973
    One-Electron Energy =               -1116.3528066081912584
    Two-Electron Energy =                 449.6286517567943974
    Total Energy =                       -324.8553172697737637
  Basis Set: (AUG-CC-PVTZ AUX)
    Blend: AUG-CC-PVTZ-RI
    Molecular point group: c1

    Geometry (in Angstrom), charge = 0, multiplicity = 1:

       Center              X                  Y                   Z               Mass
    ------------   -----------------  -----------------  -----------------  -----------------
         N            2.812578716985    -0.000031126330    -0.084344604111    14.003074004430
         C           -1.429396283015     0.000030873670    -0.027449604111    12.000000000000
         C            1.406836716985    -0.000000126330    -0.005919604111    12.000000000000
         C           -0.703936283015    -1.197468126330    -0.019183604111    12.000000000000
         C           -0.703915283015     1.197498873670    -0.019180604111    12.000000000000
         C            0.689556716985    -1.203933126330    -0.024810604111    12.000000000000
         C            0.689590716985     1.203936873670    -0.024809604111    12.000000000000
         C           -2.932953783015    -0.000018326330     0.167556095889    12.000000000000
         H           -1.236862283015    -2.147390126330    -0.029842604111     1.007825032230
         H           -1.236819283015     2.147430873670    -0.029827604111     1.007825032230
         H            1.228598716985    -2.150337126330    -0.028894604111     1.007825032230
         H            1.228650716985     2.150330873670    -0.028893604111     1.007825032230
         H           -3.343220283015     0.885798873670    -0.478143604111     1.007825032230
         H           -3.343312283015    -0.883730126330    -0.481824604111     1.007825032230
         H           -3.305752283015    -0.002165126330     1.048903395889     1.007825032230
         H            3.231183716985     0.829537873670     0.325132395889     1.007825032230
         H            3.231145716985    -0.829602126330     0.325179395889     1.007825032230

  Basis Set: AUG-CC-PVTZ
    Blend: AUG-CC-PVTZ
  Basis Set: (AUG-CC-PVTZ AUX)
    Blend: AUG-CC-PVTZ-JKFIT
	 Reference Energy          =    -324.8553172697737637 [Eh]
	 Singles Energy            =      -0.0000000000000000 [Eh]
	 Same-Spin Energy          =      -0.3599149816426873 [Eh]
	 Opposite-Spin Energy      =      -1.1522851552227484 [Eh]
	 Correlation Energy        =      -1.5122001368654359 [Eh]
	 Total Energy              =    -326.3675174066391946 [Eh]

	 ================> DF-SCS-MP2 Energies <==================
	-----------------------------------------------------------
	 SCS Same-Spin Scale       =       0.3333333333333333 [-]
	 SCS Opposite-Spin Scale   =       1.2000000000000000 [-]
	 SCS Same-Spin Energy      =      -0.1199716605475624 [Eh]
	 SCS Opposite-Spin Energy  =      -1.3827421862672982 [Eh]
	 SCS Correlation Energy    =      -1.5027138468148606 [Eh]
	 SCS Total Energy          =    -326.3580311165886201 [Eh]
	-----------------------------------------------------------

  Dipole Moment: [D]
     X:     0.7070      Y:    -0.0002      Z:     1.1874     Total:     1.3819

*** Psi4 exiting successfully. Buy a developer a beer!
