                               Psi4 1.3.2 release

  ==> Input File <==

--------------------------------------------------------------------------
#psi4
#
memory 32 gb

molecule  {
0 1
  N        2.8432420    -0.0000300    -0.0741500
  C       -1.3987330     0.0000320    -0.0172550
  C        1.4375000     0.0000010     0.0042750
  C       -0.6732730    -1.1974670    -0.0089890
  C       -0.6732520     1.1975000    -0.0089860
  C        0.7202200    -1.2039320    -0.0146160
  C        0.7160493     1.2039381    -0.1645561
  C       -2.9047610    -0.0000170     0.0277710
  H       -1.2061990    -2.1473890    -0.0196480
  H       -1.2061560     2.1474320    -0.0196330
  H        1.2592620    -2.1503360    -0.0187000
  H        1.2593140     2.1503320    -0.0186990
  H       -3.3125570     0.8858000    -0.4679490
  H       -3.3126490    -0.8837290    -0.4716300
  H       -3.2750890    -0.0021640     1.0590980
  H        3.2618470     0.8295390     0.3353270
  H        3.2618090    -0.8296010     0.3353740
units angstrom
no_reorient  #important for SAPT in psi4, default
symmetry c1  #important for SAPT in psi4, default
}

set PROPERTIES_ORIGIN ["COM"]
properties('MP2/aug-cc-pvtz', properties = ['dipole'])
--------------------------------------------------------------------------

    Molecular point group: c1
  Charge       = 0
  Multiplicity = 1
  Basis Set: AUG-CC-PVTZ
    Blend: AUG-CC-PVTZ
  Basis Set: (AUG-CC-PVTZ AUX)
    Blend: AUG-CC-PVTZ-JKFIT

    Orbital Energies [Eh]
    ---------------------

    Doubly Occupied:

       1A    -15.564555     2A    -11.274634     3A    -11.232168
       4A    -11.231826     5A    -11.226960     6A    -11.226215
       7A    -11.224150     8A    -11.218507     9A     -1.218114
      10A     -1.129510    11A     -1.019210    12A     -1.007319
      13A     -0.914338    14A     -0.829603    15A     -0.788415
      16A     -0.690187    17A     -0.681849    18A     -0.632049
      19A     -0.600774    20A     -0.583056    21A     -0.576277
      22A     -0.569443    23A     -0.530238    24A     -0.523983
      25A     -0.493640    26A     -0.478074    27A     -0.438981
      28A     -0.334364    29A     -0.287032

  @DF-RHF Final Energy:  -324.87484148492678

   => Energetics <=

    Nuclear Repulsion Energy =            341.6907511382725602
    One-Electron Energy =               -1116.0802384623309536
    Two-Electron Energy =                 449.5146458391315605
    Total Energy =                       -324.8748414849267760
  Basis Set: (AUG-CC-PVTZ AUX)
    Blend: AUG-CC-PVTZ-RI
    Molecular point group: c1

    Geometry (in Angstrom), charge = 0, multiplicity = 1:

       Center              X                  Y                   Z               Mass
    ------------   -----------------  -----------------  -----------------  -----------------
         N            2.813326823665    -0.000031159952    -0.050731715546    14.003074004430
         C           -1.428648176335     0.000030840048     0.006163284454    12.000000000000
         C            1.407584823665    -0.000000159952     0.027693284454    12.000000000000
         C           -0.703188176335    -1.197468159952     0.014429284454    12.000000000000
         C           -0.703167176335     1.197498840048     0.014432284454    12.000000000000
         C            0.690304823665    -1.203933159952     0.008802284454    12.000000000000
         C            0.686134123665     1.203936940048    -0.141137815546    12.000000000000
         C           -2.934676176335    -0.000018159952     0.051189284454    12.000000000000
         H           -1.236114176335    -2.147390159952     0.003770284454     1.007825032230
         H           -1.236071176335     2.147430840048     0.003785284454     1.007825032230
         H            1.229346823665    -2.150337159952     0.004718284454     1.007825032230
         H            1.229398823665     2.150330840048     0.004719284454     1.007825032230
         H           -3.342472176335     0.885798840048    -0.444530715546     1.007825032230
         H           -3.342564176335    -0.883730159952    -0.448211715546     1.007825032230
         H           -3.305004176335    -0.002165159952     1.082516284454     1.007825032230
         H            3.231931823665     0.829537840048     0.358745284454     1.007825032230
         H            3.231893823665    -0.829602159952     0.358792284454     1.007825032230

  Basis Set: AUG-CC-PVTZ
    Blend: AUG-CC-PVTZ
  Basis Set: (AUG-CC-PVTZ AUX)
    Blend: AUG-CC-PVTZ-JKFIT
	 Reference Energy          =    -324.8748414849267760 [Eh]
	 Singles Energy            =      -0.0000000000000000 [Eh]
	 Same-Spin Energy          =      -0.3599985632601660 [Eh]
	 Opposite-Spin Energy      =      -1.1523991220615395 [Eh]
	 Correlation Energy        =      -1.5123976853217056 [Eh]
	 Total Energy              =    -326.3872391702485061 [Eh]

	 ================> DF-SCS-MP2 Energies <==================
	-----------------------------------------------------------
	 SCS Same-Spin Scale       =       0.3333333333333333 [-]
	 SCS Opposite-Spin Scale   =       1.2000000000000000 [-]
	 SCS Same-Spin Energy      =      -0.1199995210867220 [Eh]
	 SCS Opposite-Spin Energy  =      -1.3828789464738473 [Eh]
	 SCS Correlation Energy    =      -1.5028784675605693 [Eh]
	 SCS Total Energy          =    -326.3777199524873254 [Eh]
	-----------------------------------------------------------

  Dipole Moment: [D]
     X:     0.5757      Y:    -0.0463      Z:     1.2234     Total:     1.3529

*** Psi4 exiting successfully. Buy a developer a beer!
