                               Psi4 1.3.2 release

  ==> Input File <==

--------------------------------------------------------------------------
#psi4
#
memory 32 gb

molecule  {
0 1
  N        2.8432420    -0.0000300    -0.0741500
  C       -1.3987330     0.0000320    -0.0172550
  C        1.4375000     0.0000010     0.0042750
  C       -0.6732730    -1.1974670    -0.0089890
  C       -0.6732520     1.1975000    -0.0089860
  C        0.7202200    -1.2039320    -0.0146160
  C        0.7188524     1.2039380    -0.0645954
  C       -2.9047610    -0.0000170     0.0277710
  H       -1.2061990    -2.1473890    -0.0196480
  H       -1.2061560     2.1474320    -0.0196330
  H        1.2592620    -2.1503360    -0.0187000
  H        1.2593140     2.1503320    -0.0186990
  H       -3.3125570     0.8858000    -0.4679490
  H       -3.3126490    -0.8837290    -0.4716300
  H       -3.2750890    -0.0021640     1.0590980
  H        3.2618470     0.8295390     0.3353270
  H        3.2618090    -0.8296010     0.3353740
units angstrom
no_reorient  #important for SAPT in psi4, default
symmetry c1  #important for SAPT in psi4, default
}

set PROPERTIES_ORIGIN ["COM"]
properties('MP2/aug-cc-pvtz', properties = ['dipole'])
--------------------------------------------------------------------------

    Molecular point group: c1
  Charge       = 0
  Multiplicity = 1
  Basis Set: AUG-CC-PVTZ
    Blend: AUG-CC-PVTZ
  Basis Set: (AUG-CC-PVTZ AUX)
    Blend: AUG-CC-PVTZ-JKFIT

    Orbital Energies [Eh]
    ---------------------

    Doubly Occupied:

       1A    -15.563856     2A    -11.272876     3A    -11.231077
       4A    -11.230905     5A    -11.227083     6A    -11.224560
       7A    -11.224224     8A    -11.218518     9A     -1.218086
      10A     -1.129612    11A     -1.019631    12A     -1.007982
      13A     -0.914636    14A     -0.830539    15A     -0.789096
      16A     -0.690665    17A     -0.682087    18A     -0.633661
      19A     -0.601268    20A     -0.584101    21A     -0.577611
      22A     -0.570057    23A     -0.530081    24A     -0.524019
      25A     -0.494490    26A     -0.479974    27A     -0.438711
      28A     -0.334306    29A     -0.287470

  @DF-RHF Final Energy:  -324.88145051008644

   => Energetics <=

    Nuclear Repulsion Energy =            341.9167655356202431
    One-Electron Energy =               -1116.5340722838996044
    Two-Electron Energy =                 449.7358562381929232
    Total Energy =                       -324.8814505100864380
  Basis Set: (AUG-CC-PVTZ AUX)
    Blend: AUG-CC-PVTZ-RI
    Molecular point group: c1

    Geometry (in Angstrom), charge = 0, multiplicity = 1:

       Center              X                  Y                   Z               Mass
    ------------   -----------------  -----------------  -----------------  -----------------
         N            2.813012673102    -0.000031148744    -0.061934565999    14.003074004430
         C           -1.428962326898     0.000030851256    -0.005039565999    12.000000000000
         C            1.407270673102    -0.000000148744     0.016490434001    12.000000000000
         C           -0.703502326898    -1.197468148744     0.003226434001    12.000000000000
         C           -0.703481326898     1.197498851256     0.003229434001    12.000000000000
         C            0.689990673102    -1.203933148744    -0.002400565999    12.000000000000
         C            0.688623073102     1.203936851256    -0.052379965999    12.000000000000
         C           -2.934990326898    -0.000018148744     0.039986434001    12.000000000000
         H           -1.236428326898    -2.147390148744    -0.007432565999     1.007825032230
         H           -1.236385326898     2.147430851256    -0.007417565999     1.007825032230
         H            1.229032673102    -2.150337148744    -0.006484565999     1.007825032230
         H            1.229084673102     2.150330851256    -0.006483565999     1.007825032230
         H           -3.342786326898     0.885798851256    -0.455733565999     1.007825032230
         H           -3.342878326898    -0.883730148744    -0.459414565999     1.007825032230
         H           -3.305318326898    -0.002165148744     1.071313434001     1.007825032230
         H            3.231617673102     0.829537851256     0.347542434001     1.007825032230
         H            3.231579673102    -0.829602148744     0.347589434001     1.007825032230

  Basis Set: AUG-CC-PVTZ
    Blend: AUG-CC-PVTZ
  Basis Set: (AUG-CC-PVTZ AUX)
    Blend: AUG-CC-PVTZ-JKFIT
	 Reference Energy          =    -324.8814505100864380 [Eh]
	 Singles Energy            =      -0.0000000000000000 [Eh]
	 Same-Spin Energy          =      -0.3596830772492942 [Eh]
	 Opposite-Spin Energy      =      -1.1513365292362849 [Eh]
	 Correlation Energy        =      -1.5110196064855792 [Eh]
	 Total Energy              =    -326.3924701165720421 [Eh]

	 ================> DF-SCS-MP2 Energies <==================
	-----------------------------------------------------------
	 SCS Same-Spin Scale       =       0.3333333333333333 [-]
	 SCS Opposite-Spin Scale   =       1.2000000000000000 [-]
	 SCS Same-Spin Energy      =      -0.1198943590830981 [Eh]
	 SCS Opposite-Spin Energy  =      -1.3816038350835418 [Eh]
	 SCS Correlation Energy    =      -1.5014981941666399 [Eh]
	 SCS Total Energy          =    -326.3829487042530673 [Eh]
	-----------------------------------------------------------

  Dipole Moment: [D]
     X:     0.5820      Y:    -0.0042      Z:     1.1568     Total:     1.2950

*** Psi4 exiting successfully. Buy a developer a beer!
