                               Psi4 1.3.2 release

  ==> Input File <==

--------------------------------------------------------------------------
#psi4
#
memory 32 gb

molecule  {
0 1
  N        2.8432420    -0.0000300    -0.0741500
  C       -1.3987330     0.0000320    -0.0172550
  C        1.4375000     0.0000010     0.0042750
  C       -0.6732730    -1.1974670    -0.0089890
  C       -0.6732520     1.1975000    -0.0089860
  C        0.7202200    -1.2039320    -0.0146160
  C        0.7202540     1.2039380    -0.0146150
  C       -2.9047610    -0.0000170     0.0277710
  H       -1.2061000    -2.1473244    -0.0696479
  H       -1.2061560     2.1474320    -0.0196330
  H        1.2592620    -2.1503360    -0.0187000
  H        1.2593140     2.1503320    -0.0186990
  H       -3.3125570     0.8858000    -0.4679490
  H       -3.3126490    -0.8837290    -0.4716300
  H       -3.2750890    -0.0021640     1.0590980
  H        3.2618470     0.8295390     0.3353270
  H        3.2618090    -0.8296010     0.3353740
units angstrom
no_reorient  #important for SAPT in psi4, default
symmetry c1  #important for SAPT in psi4, default
}

set PROPERTIES_ORIGIN ["COM"]
properties('MP2/aug-cc-pvtz', properties = ['dipole'])
--------------------------------------------------------------------------

    Molecular point group: c1
  Charge       = 0
  Multiplicity = 1
  Basis Set: AUG-CC-PVTZ
    Blend: AUG-CC-PVTZ
  Basis Set: (AUG-CC-PVTZ AUX)
    Blend: AUG-CC-PVTZ-JKFIT

    Orbital Energies [Eh]
    ---------------------

    Doubly Occupied:

       1A    -15.563703     2A    -11.272676     3A    -11.231163
       4A    -11.230954     5A    -11.227182     6A    -11.224330
       7A    -11.224307     8A    -11.218581     9A     -1.218136
      10A     -1.129608    11A     -1.019771    12A     -1.007999
      13A     -0.914716    14A     -0.830781    15A     -0.789134
      16A     -0.690757    17A     -0.682139    18A     -0.633977
      19A     -0.601359    20A     -0.584508    21A     -0.577792
      22A     -0.570017    23A     -0.530062    24A     -0.523710
      25A     -0.494992    26A     -0.480394    27A     -0.438250
      28A     -0.334279    29A     -0.287769

  @DF-RHF Final Energy:  -324.88235060836558

   => Energetics <=

    Nuclear Repulsion Energy =            341.9399352665475362
    One-Electron Energy =               -1116.5784761194379371
    Two-Electron Energy =                 449.7561902445248165
    Total Energy =                       -324.8823506083655843
  Basis Set: (AUG-CC-PVTZ AUX)
    Blend: AUG-CC-PVTZ-RI
    Molecular point group: c1

    Geometry (in Angstrom), charge = 0, multiplicity = 1:

       Center              X                  Y                   Z               Mass
    ------------   -----------------  -----------------  -----------------  -----------------
         N            2.812854660384    -0.000031756789    -0.067065374768    14.003074004430
         C           -1.429120339616     0.000030243211    -0.010170374768    12.000000000000
         C            1.407112660384    -0.000000756789     0.011359625232    12.000000000000
         C           -0.703660339616    -1.197468756789    -0.001904374768    12.000000000000
         C           -0.703639339616     1.197498243211    -0.001901374768    12.000000000000
         C            0.689832660384    -1.203933756789    -0.007531374768    12.000000000000
         C            0.689866660384     1.203936243211    -0.007530374768    12.000000000000
         C           -2.935148339616    -0.000018756789     0.034855625232    12.000000000000
         H           -1.236487339616    -2.147326156789    -0.062563274768     1.007825032230
         H           -1.236543339616     2.147430243211    -0.012548374768     1.007825032230
         H            1.228874660384    -2.150337756789    -0.011615374768     1.007825032230
         H            1.228926660384     2.150330243211    -0.011614374768     1.007825032230
         H           -3.342944339616     0.885798243211    -0.460864374768     1.007825032230
         H           -3.343036339616    -0.883730756789    -0.464545374768     1.007825032230
         H           -3.305476339616    -0.002165756789     1.066182625232     1.007825032230
         H            3.231459660384     0.829537243211     0.342411625232     1.007825032230
         H            3.231421660384    -0.829602756789     0.342458625232     1.007825032230

  Basis Set: AUG-CC-PVTZ
    Blend: AUG-CC-PVTZ
  Basis Set: (AUG-CC-PVTZ AUX)
    Blend: AUG-CC-PVTZ-JKFIT
	 Reference Energy          =    -324.8823506083655843 [Eh]
	 Singles Energy            =      -0.0000000000000000 [Eh]
	 Same-Spin Energy          =      -0.3596348950395087 [Eh]
	 Opposite-Spin Energy      =      -1.1511656897212252 [Eh]
	 Correlation Energy        =      -1.5108005847607340 [Eh]
	 Total Energy              =    -326.3931511931263003 [Eh]

	 ================> DF-SCS-MP2 Energies <==================
	-----------------------------------------------------------
	 SCS Same-Spin Scale       =       0.3333333333333333 [-]
	 SCS Opposite-Spin Scale   =       1.2000000000000000 [-]
	 SCS Same-Spin Energy      =      -0.1198782983465029 [Eh]
	 SCS Opposite-Spin Energy  =      -1.3813988276654703 [Eh]
	 SCS Correlation Energy    =      -1.5012771260119733 [Eh]
	 SCS Total Energy          =    -326.3836277343775691 [Eh]
	-----------------------------------------------------------

  Dipole Moment: [D]
     X:     0.5826      Y:     0.0033      Z:     1.0944     Total:     1.2399

*** Psi4 exiting successfully. Buy a developer a beer!
