                               Psi4 1.3.2 release

  ==> Input File <==

--------------------------------------------------------------------------
#psi4
#
memory 32 gb

molecule  {
0 1
  N        2.8432420    -0.0000300    -0.0741500
  C       -1.3987330     0.0000320    -0.0172550
  C        1.4375000     0.0000010     0.0042750
  C       -0.6732730    -1.1974670    -0.0089890
  C       -0.6732520     1.1975000    -0.0089860
  C        0.7202200    -1.2039320    -0.0146160
  C        0.7202540     1.2039380    -0.0146150
  C       -2.9047610    -0.0000170     0.0277710
  H       -1.2061990    -2.1473890    -0.0196480
  H       -1.2061560     2.1474320    -0.0196330
  H        1.2592503    -2.1508692     0.0312972
  H        1.2593140     2.1503320    -0.0186990
  H       -3.3125570     0.8858000    -0.4679490
  H       -3.3126490    -0.8837290    -0.4716300
  H       -3.2750890    -0.0021640     1.0590980
  H        3.2618470     0.8295390     0.3353270
  H        3.2618090    -0.8296010     0.3353740
units angstrom
no_reorient  #important for SAPT in psi4, default
symmetry c1  #important for SAPT in psi4, default
}

set PROPERTIES_ORIGIN ["COM"]
properties('MP2/aug-cc-pvtz', properties = ['dipole'])
--------------------------------------------------------------------------

    Molecular point group: c1
  Charge       = 0
  Multiplicity = 1
  Basis Set: AUG-CC-PVTZ
    Blend: AUG-CC-PVTZ
  Basis Set: (AUG-CC-PVTZ AUX)
    Blend: AUG-CC-PVTZ-JKFIT

    Orbital Energies [Eh]
    ---------------------

    Doubly Occupied:

       1A    -15.563753     2A    -11.272663     3A    -11.231108
       4A    -11.230933     5A    -11.227149     6A    -11.224440
       7A    -11.224272     8A    -11.218577     9A     -1.218146
      10A     -1.129619    11A     -1.019764    12A     -1.008003
      13A     -0.914731    14A     -0.830803    15A     -0.789143
      16A     -0.690779    17A     -0.682148    18A     -0.633951
      19A     -0.601360    20A     -0.584582    21A     -0.577745
      22A     -0.570109    23A     -0.530126    24A     -0.523941
      25A     -0.494479    26A     -0.480356    27A     -0.438482
      28A     -0.334279    29A     -0.287754

  @DF-RHF Final Energy:  -324.88234780776935

   => Energetics <=

    Nuclear Repulsion Energy =            341.9403686963329392
    One-Electron Energy =               -1116.5790416220258976
    Two-Electron Energy =                 449.7563251179236090
    Total Energy =                       -324.8823478077693494
  Basis Set: (AUG-CC-PVTZ AUX)
    Blend: AUG-CC-PVTZ-RI
    Molecular point group: c1

    Geometry (in Angstrom), charge = 0, multiplicity = 1:

       Center              X                  Y                   Z               Mass
    ------------   -----------------  -----------------  -----------------  -----------------
         N            2.812855702343    -0.000026130021    -0.068006593475    14.003074004430
         C           -1.429119297657     0.000035869979    -0.011111593475    12.000000000000
         C            1.407113702343     0.000004869979     0.010418406525    12.000000000000
         C           -0.703659297657    -1.197463130021    -0.002845593475    12.000000000000
         C           -0.703638297657     1.197503869979    -0.002842593475    12.000000000000
         C            0.689833702343    -1.203928130021    -0.008472593475    12.000000000000
         C            0.689867702343     1.203941869979    -0.008471593475    12.000000000000
         C           -2.935147297657    -0.000013130021     0.033914406525    12.000000000000
         H           -1.236585297657    -2.147385130021    -0.013504593475     1.007825032230
         H           -1.236542297657     2.147435869979    -0.013489593475     1.007825032230
         H            1.228864002343    -2.150865330021     0.037440606525     1.007825032230
         H            1.228927702343     2.150335869979    -0.012555593475     1.007825032230
         H           -3.342943297657     0.885803869979    -0.461805593475     1.007825032230
         H           -3.343035297657    -0.883725130021    -0.465486593475     1.007825032230
         H           -3.305475297657    -0.002160130021     1.065241406525     1.007825032230
         H            3.231460702343     0.829542869979     0.341470406525     1.007825032230
         H            3.231422702343    -0.829597130021     0.341517406525     1.007825032230

  Basis Set: AUG-CC-PVTZ
    Blend: AUG-CC-PVTZ
  Basis Set: (AUG-CC-PVTZ AUX)
    Blend: AUG-CC-PVTZ-JKFIT
	 Reference Energy          =    -324.8823478077693494 [Eh]
	 Singles Energy            =      -0.0000000000000000 [Eh]
	 Same-Spin Energy          =      -0.3596328922501192 [Eh]
	 Opposite-Spin Energy      =      -1.1511647026387775 [Eh]
	 Correlation Energy        =      -1.5107975948888965 [Eh]
	 Total Energy              =    -326.3931454026582628 [Eh]

	 ================> DF-SCS-MP2 Energies <==================
	-----------------------------------------------------------
	 SCS Same-Spin Scale       =       0.3333333333333333 [-]
	 SCS Opposite-Spin Scale   =       1.2000000000000000 [-]
	 SCS Same-Spin Energy      =      -0.1198776307500397 [Eh]
	 SCS Opposite-Spin Energy  =      -1.3813976431665329 [Eh]
	 SCS Correlation Energy    =      -1.5012752739165727 [Eh]
	 SCS Total Energy          =    -326.3836230816859256 [Eh]
	-----------------------------------------------------------

  Dipole Moment: [D]
     X:     0.5778      Y:     0.0020      Z:     1.1542     Total:     1.2908

*** Psi4 exiting successfully. Buy a developer a beer!
