                               Psi4 1.3.2 release

  ==> Input File <==

--------------------------------------------------------------------------
#psi4
#
memory 32 gb

molecule  {
0 1
  N        2.8432420    -0.0000300    -0.0741500
  C       -1.3987330     0.0000320    -0.0172550
  C        1.4375000     0.0000010     0.0042750
  C       -0.6732730    -1.1974670    -0.0089890
  C       -0.6732520     1.1975000    -0.0089860
  C        0.7202200    -1.2039320    -0.0146160
  C        0.7132461     1.2039382    -0.2645168
  C       -2.9047610    -0.0000170     0.0277710
  H       -1.2061990    -2.1473890    -0.0196480
  H       -1.2061560     2.1474320    -0.0196330
  H        1.2592620    -2.1503360    -0.0187000
  H        1.2593140     2.1503320    -0.0186990
  H       -3.3125570     0.8858000    -0.4679490
  H       -3.3126490    -0.8837290    -0.4716300
  H       -3.2750890    -0.0021640     1.0590980
  H        3.2618470     0.8295390     0.3353270
  H        3.2618090    -0.8296010     0.3353740
units angstrom
no_reorient  #important for SAPT in psi4, default
symmetry c1  #important for SAPT in psi4, default
}

set PROPERTIES_ORIGIN ["COM"]
properties('MP2/aug-cc-pvtz', properties = ['dipole'])
--------------------------------------------------------------------------

    Molecular point group: c1
  Charge       = 0
  Multiplicity = 1
  Basis Set: AUG-CC-PVTZ
    Blend: AUG-CC-PVTZ
  Basis Set: (AUG-CC-PVTZ AUX)
    Blend: AUG-CC-PVTZ-JKFIT

    Orbital Energies [Eh]
    ---------------------

    Doubly Occupied:

       1A    -15.565765     2A    -11.278020     3A    -11.234795
       4A    -11.233853     5A    -11.229197     6A    -11.226802
       7A    -11.224169     8A    -11.218621     9A     -1.218287
      10A     -1.129271    11A     -1.018777    12A     -1.005618
      13A     -0.913935    14A     -0.828242    15A     -0.787123
      16A     -0.689750    17A     -0.681488    18A     -0.629497
      19A     -0.600047    20A     -0.582008    21A     -0.574349
      22A     -0.567645    23A     -0.530589    24A     -0.523141
      25A     -0.492372    26A     -0.474592    27A     -0.438784
      28A     -0.334428    29A     -0.286791

  @DF-RHF Final Energy:  -324.86218389540880

   => Energetics <=

    Nuclear Repulsion Energy =            341.2492961815851800
    One-Electron Energy =               -1115.1870450541157425
    Two-Electron Energy =                 449.0755649771218145
    Total Energy =                       -324.8621838954088048
  Basis Set: (AUG-CC-PVTZ AUX)
    Blend: AUG-CC-PVTZ-RI
    Molecular point group: c1

    Geometry (in Angstrom), charge = 0, multiplicity = 1:

       Center              X                  Y                   Z               Mass
    ------------   -----------------  -----------------  -----------------  -----------------
         N            2.813640985434    -0.000031171159    -0.039528865094    14.003074004430
         C           -1.428334014566     0.000030828841     0.017366134906    12.000000000000
         C            1.407898985434    -0.000000171159     0.038896134906    12.000000000000
         C           -0.702874014566    -1.197468171159     0.025632134906    12.000000000000
         C           -0.702853014566     1.197498828841     0.025635134906    12.000000000000
         C            0.690618985434    -1.203933171159     0.020005134906    12.000000000000
         C            0.683645085434     1.203937028841    -0.229895665094    12.000000000000
         C           -2.934362014566    -0.000018171159     0.062392134906    12.000000000000
         H           -1.235800014566    -2.147390171159     0.014973134906     1.007825032230
         H           -1.235757014566     2.147430828841     0.014988134906     1.007825032230
         H            1.229660985434    -2.150337171159     0.015921134906     1.007825032230
         H            1.229712985434     2.150330828841     0.015922134906     1.007825032230
         H           -3.342158014566     0.885798828841    -0.433327865094     1.007825032230
         H           -3.342250014566    -0.883730171159    -0.437008865094     1.007825032230
         H           -3.304690014566    -0.002165171159     1.093719134906     1.007825032230
         H            3.232245985434     0.829537828841     0.369948134906     1.007825032230
         H            3.232207985434    -0.829602171159     0.369995134906     1.007825032230

  Basis Set: AUG-CC-PVTZ
    Blend: AUG-CC-PVTZ
  Basis Set: (AUG-CC-PVTZ AUX)
    Blend: AUG-CC-PVTZ-JKFIT
	 Reference Energy          =    -324.8621838954088048 [Eh]
	 Singles Energy            =      -0.0000000000000000 [Eh]
	 Same-Spin Energy          =      -0.3605549285242735 [Eh]
	 Opposite-Spin Energy      =      -1.1542846933207229 [Eh]
	 Correlation Energy        =      -1.5148396218449964 [Eh]
	 Total Energy              =    -326.3770235172538037 [Eh]

	 ================> DF-SCS-MP2 Energies <==================
	-----------------------------------------------------------
	 SCS Same-Spin Scale       =       0.3333333333333333 [-]
	 SCS Opposite-Spin Scale   =       1.2000000000000000 [-]
	 SCS Same-Spin Energy      =      -0.1201849761747578 [Eh]
	 SCS Opposite-Spin Energy  =      -1.3851416319848675 [Eh]
	 SCS Correlation Energy    =      -1.5053266081596253 [Eh]
	 SCS Total Energy          =    -326.3675105035684396 [Eh]
	-----------------------------------------------------------

  Dipole Moment: [D]
     X:     0.5555      Y:    -0.1329      Z:     1.2922     Total:     1.4128

*** Psi4 exiting successfully. Buy a developer a beer!
