                               Psi4 1.3.2 release

  ==> Input File <==

--------------------------------------------------------------------------
#psi4
#
memory 32 gb

molecule  {
0 1
  N        2.8432420    -0.0000300    -0.0741500
  C       -1.3987330     0.0000320    -0.0172550
  C        1.4375000     0.0000010     0.0042750
  C       -0.6732730    -1.1974670    -0.0089890
  C       -0.6732520     1.1975000    -0.0089860
  C        0.7202200    -1.2039320    -0.0146160
  C        0.7202540     1.2039380    -0.0146150
  C       -2.9047610    -0.0000170     0.0277710
  H       -1.2056052    -2.1470015    -0.3196472
  H       -1.2061560     2.1474320    -0.0196330
  H        1.2592620    -2.1503360    -0.0187000
  H        1.2593140     2.1503320    -0.0186990
  H       -3.3125570     0.8858000    -0.4679490
  H       -3.3126490    -0.8837290    -0.4716300
  H       -3.2750890    -0.0021640     1.0590980
  H        3.2618470     0.8295390     0.3353270
  H        3.2618090    -0.8296010     0.3353740
units angstrom
no_reorient  #important for SAPT in psi4, default
symmetry c1  #important for SAPT in psi4, default
}

set PROPERTIES_ORIGIN ["COM"]
properties('MP2/aug-cc-pvtz', properties = ['dipole'])
--------------------------------------------------------------------------

    Molecular point group: c1
  Charge       = 0
  Multiplicity = 1
  Basis Set: AUG-CC-PVTZ
    Blend: AUG-CC-PVTZ
  Basis Set: (AUG-CC-PVTZ AUX)
    Blend: AUG-CC-PVTZ-JKFIT

    Orbital Energies [Eh]
    ---------------------

    Doubly Occupied:

       1A    -15.563935     2A    -11.273033     3A    -11.234750
       4A    -11.231416     5A    -11.228170     6A    -11.225289
       7A    -11.225171     8A    -11.218694     9A     -1.218495
      10A     -1.129825    11A     -1.020113    12A     -1.007528
      13A     -0.914676    14A     -0.829400    15A     -0.788653
      16A     -0.688512    17A     -0.682217    18A     -0.633547
      19A     -0.601545    20A     -0.583218    21A     -0.576631
      22A     -0.567440    23A     -0.529500    24A     -0.523838
      25A     -0.496077    26A     -0.479501    27A     -0.436391
      28A     -0.334123    29A     -0.288185

  @DF-RHF Final Energy:  -324.87594333519127

   => Energetics <=

    Nuclear Repulsion Energy =            341.7821064363786263
    One-Electron Energy =               -1116.2563558792269305
    Two-Electron Energy =                 449.5983061076570380
    Total Energy =                       -324.8759433351912662
  Basis Set: (AUG-CC-PVTZ AUX)
    Blend: AUG-CC-PVTZ-RI
    Molecular point group: c1

    Geometry (in Angstrom), charge = 0, multiplicity = 1:

       Center              X                  Y                   Z               Mass
    ------------   -----------------  -----------------  -----------------  -----------------
         N            2.812850003099    -0.000034796073    -0.064712266350    14.003074004430
         C           -1.429124996901     0.000027203927    -0.007817266350    12.000000000000
         C            1.407108003099    -0.000003796073     0.013712733650    12.000000000000
         C           -0.703664996901    -1.197471796073     0.000448733650    12.000000000000
         C           -0.703643996901     1.197495203927     0.000451733650    12.000000000000
         C            0.689828003099    -1.203936796073    -0.005178266350    12.000000000000
         C            0.689862003099     1.203933203927    -0.005177266350    12.000000000000
         C           -2.935152996901    -0.000021796073     0.037208733650    12.000000000000
         H           -1.235997196901    -2.147006296073    -0.310209466350     1.007825032230
         H           -1.236547996901     2.147427203927    -0.010195266350     1.007825032230
         H            1.228870003099    -2.150340796073    -0.009262266350     1.007825032230
         H            1.228922003099     2.150327203927    -0.009261266350     1.007825032230
         H           -3.342948996901     0.885795203927    -0.458511266350     1.007825032230
         H           -3.343040996901    -0.883733796073    -0.462192266350     1.007825032230
         H           -3.305480996901    -0.002168796073     1.068535733650     1.007825032230
         H            3.231455003099     0.829534203927     0.344764733650     1.007825032230
         H            3.231417003099    -0.829605796073     0.344811733650     1.007825032230

  Basis Set: AUG-CC-PVTZ
    Blend: AUG-CC-PVTZ
  Basis Set: (AUG-CC-PVTZ AUX)
    Blend: AUG-CC-PVTZ-JKFIT
	 Reference Energy          =    -324.8759433351912662 [Eh]
	 Singles Energy            =      -0.0000000000000000 [Eh]
	 Same-Spin Energy          =      -0.3600034305873941 [Eh]
	 Opposite-Spin Energy      =      -1.1520239811900650 [Eh]
	 Correlation Energy        =      -1.5120274117774590 [Eh]
	 Total Energy              =    -326.3879707469687332 [Eh]

	 ================> DF-SCS-MP2 Energies <==================
	-----------------------------------------------------------
	 SCS Same-Spin Scale       =       0.3333333333333333 [-]
	 SCS Opposite-Spin Scale   =       1.2000000000000000 [-]
	 SCS Same-Spin Energy      =      -0.1200011435291314 [Eh]
	 SCS Opposite-Spin Energy  =      -1.3824287774280779 [Eh]
	 SCS Correlation Energy    =      -1.5024299209572092 [Eh]
	 SCS Total Energy          =    -326.3783732561484499 [Eh]
	-----------------------------------------------------------

  Dipole Moment: [D]
     X:     0.6289      Y:     0.0783      Z:     0.9550     Total:     1.1461

*** Psi4 exiting successfully. Buy a developer a beer!
