                               Psi4 1.3.2 release

  ==> Input File <==

--------------------------------------------------------------------------
#psi4
#
memory 32 gb

molecule  {
0 1
  N        2.8432420    -0.0000300    -0.0741500
  C       -1.3987330     0.0000320    -0.0172550
  C        1.4375000     0.0000010     0.0042750
  C       -0.6732730    -1.1974670    -0.0089890
  C       -0.6732520     1.1975000    -0.0089860
  C        0.7202200    -1.2039320    -0.0146160
  C        0.7202540     1.2039380    -0.0146150
  C       -2.9047610    -0.0000170     0.0277710
  H       -1.2061990    -2.1473890    -0.0196480
  H       -1.2061560     2.1474320    -0.0196330
  H        1.2592620    -2.1503360    -0.0187000
  H        1.2593140     2.1503320    -0.0186990
  H       -3.3125570     0.8858000    -0.4679490
  H       -3.3126490    -0.8837290    -0.4716300
  H       -3.2750890    -0.0021640     1.0590980
  H        3.2618470     0.8295390     0.3353270
  H        3.3153774    -0.8296106     0.0401954
units angstrom
no_reorient  #important for SAPT in psi4, default
symmetry c1  #important for SAPT in psi4, default
}

set PROPERTIES_ORIGIN ["COM"]
properties('MP2/aug-cc-pvtz', properties = ['dipole'])
--------------------------------------------------------------------------

    Molecular point group: c1
  Charge       = 0
  Multiplicity = 1
  Basis Set: AUG-CC-PVTZ
    Blend: AUG-CC-PVTZ
  Basis Set: (AUG-CC-PVTZ AUX)
    Blend: AUG-CC-PVTZ-JKFIT

    Orbital Energies [Eh]
    ---------------------

    Doubly Occupied:

       1A    -15.556924     2A    -11.274178     3A    -11.230326
       4A    -11.230010     5A    -11.225219     6A    -11.222970
       7A    -11.222574     8A    -11.217470     9A     -1.218935
      10A     -1.129396    11A     -1.020116    12A     -1.006918
      13A     -0.915222    14A     -0.830755    15A     -0.789939
      16A     -0.702818    17A     -0.687530    18A     -0.633020
      19A     -0.609603    20A     -0.583392    21A     -0.576799
      22A     -0.568944    23A     -0.531396    24A     -0.519154
      25A     -0.494159    26A     -0.479792    27A     -0.433206
      28A     -0.333404    29A     -0.283699

  @DF-RHF Final Energy:  -324.88040737140682

   => Energetics <=

    Nuclear Repulsion Energy =            342.0802962217041454
    One-Electron Energy =               -1116.8656715605688987
    Two-Electron Energy =                 449.9049679674578783
    Total Energy =                       -324.8804073714068181
  Basis Set: (AUG-CC-PVTZ AUX)
    Blend: AUG-CC-PVTZ-RI
    Molecular point group: c1

    Geometry (in Angstrom), charge = 0, multiplicity = 1:

       Center              X                  Y                   Z               Mass
    ------------   -----------------  -----------------  -----------------  -----------------
         N            2.812351381794    -0.000031058385    -0.064757640055    14.003074004430
         C           -1.429623618206     0.000030941615    -0.007862640055    12.000000000000
         C            1.406609381794    -0.000000058385     0.013667359945    12.000000000000
         C           -0.704163618206    -1.197468058385     0.000403359945    12.000000000000
         C           -0.704142618206     1.197498941615     0.000406359945    12.000000000000
         C            0.689329381794    -1.203933058385    -0.005223640055    12.000000000000
         C            0.689363381794     1.203936941615    -0.005222640055    12.000000000000
         C           -2.935651618206    -0.000018058385     0.037163359945    12.000000000000
         H           -1.237089618206    -2.147390058385    -0.010255640055     1.007825032230
         H           -1.237046618206     2.147430941615    -0.010240640055     1.007825032230
         H            1.228371381794    -2.150337058385    -0.009307640055     1.007825032230
         H            1.228423381794     2.150330941615    -0.009306640055     1.007825032230
         H           -3.343447618206     0.885798941615    -0.458556640055     1.007825032230
         H           -3.343539618206    -0.883730058385    -0.462237640055     1.007825032230
         H           -3.305979618206    -0.002165058385     1.068490359945     1.007825032230
         H            3.230956381794     0.829537941615     0.344719359945     1.007825032230
         H            3.284486781794    -0.829611658385     0.049587759945     1.007825032230

  Basis Set: AUG-CC-PVTZ
    Blend: AUG-CC-PVTZ
  Basis Set: (AUG-CC-PVTZ AUX)
    Blend: AUG-CC-PVTZ-JKFIT
	 Reference Energy          =    -324.8804073714068181 [Eh]
	 Singles Energy            =      -0.0000000000000000 [Eh]
	 Same-Spin Energy          =      -0.3594763118287151 [Eh]
	 Opposite-Spin Energy      =      -1.1502632804488293 [Eh]
	 Correlation Energy        =      -1.5097395922775445 [Eh]
	 Total Energy              =    -326.3901469636843444 [Eh]

	 ================> DF-SCS-MP2 Energies <==================
	-----------------------------------------------------------
	 SCS Same-Spin Scale       =       0.3333333333333333 [-]
	 SCS Opposite-Spin Scale   =       1.2000000000000000 [-]
	 SCS Same-Spin Energy      =      -0.1198254372762384 [Eh]
	 SCS Opposite-Spin Energy  =      -1.3803159365385951 [Eh]
	 SCS Correlation Energy    =      -1.5001413738148335 [Eh]
	 SCS Total Energy          =    -326.3805487452216312 [Eh]
	-----------------------------------------------------------

  Dipole Moment: [D]
     X:     0.8436      Y:    -0.0783      Z:     0.7653     Total:     1.1417

*** Psi4 exiting successfully. Buy a developer a beer!
