                               Psi4 1.3.2 release

  ==> Input File <==

--------------------------------------------------------------------------
#psi4
#
memory 32 gb

molecule  {
0 1
  N        2.8432420    -0.0000300    -0.0741500
  C       -1.3987330     0.0000320    -0.0172550
  C        1.4375000     0.0000010     0.0042750
  C       -0.6732730    -1.1974670    -0.0089890
  C       -0.6732520     1.1975000    -0.0089860
  C        0.7202200    -1.2039320    -0.0146160
  C        0.7202540     1.2039380    -0.0146150
  C       -2.9014669    -0.0000173     0.2277439
  H       -1.2061990    -2.1473890    -0.0196480
  H       -1.2061560     2.1474320    -0.0196330
  H        1.2592620    -2.1503360    -0.0187000
  H        1.2593140     2.1503320    -0.0186990
  H       -3.3125570     0.8858000    -0.4679490
  H       -3.3126490    -0.8837290    -0.4716300
  H       -3.2750890    -0.0021640     1.0590980
  H        3.2618470     0.8295390     0.3353270
  H        3.2618090    -0.8296010     0.3353740
units angstrom
no_reorient  #important for SAPT in psi4, default
symmetry c1  #important for SAPT in psi4, default
}

set PROPERTIES_ORIGIN ["COM"]
properties('MP2/aug-cc-pvtz', properties = ['dipole'])
--------------------------------------------------------------------------

    Molecular point group: c1
  Charge       = 0
  Multiplicity = 1
  Basis Set: AUG-CC-PVTZ
    Blend: AUG-CC-PVTZ
  Basis Set: (AUG-CC-PVTZ AUX)
    Blend: AUG-CC-PVTZ-JKFIT

    Orbital Energies [Eh]
    ---------------------

    Doubly Occupied:

       1A    -15.565224     2A    -11.274804     3A    -11.232430
       4A    -11.232206     5A    -11.229234     6A    -11.224804
       7A    -11.224784     8A    -11.223032     9A     -1.219557
      10A     -1.130079    11A     -1.020042    12A     -1.008900
      13A     -0.920864    14A     -0.831264    15A     -0.793204
      16A     -0.694404    17A     -0.682067    18A     -0.646355
      19A     -0.609221    20A     -0.596559    21A     -0.578229
      22A     -0.576179    23A     -0.523512    24A     -0.497478
      25A     -0.495954    26A     -0.466293    27A     -0.437649
      28A     -0.334957    29A     -0.290597

  @DF-RHF Final Energy:  -324.83162544056012

   => Energetics <=

    Nuclear Repulsion Energy =            341.8203991737175329
    One-Electron Energy =               -1116.1842822506541779
    Two-Electron Energy =                 449.5322576363765279
    Total Energy =                       -324.8316254405601171
  Basis Set: (AUG-CC-PVTZ AUX)
    Blend: AUG-CC-PVTZ-RI
    Molecular point group: c1

    Geometry (in Angstrom), charge = 0, multiplicity = 1:

       Center              X                  Y                   Z               Mass
    ------------   -----------------  -----------------  -----------------  -----------------
         N            2.812486414034    -0.000031115123    -0.089947469469    14.003074004430
         C           -1.429488585966     0.000030884877    -0.033052469469    12.000000000000
         C            1.406744414034    -0.000000115123    -0.011522469469    12.000000000000
         C           -0.704028585966    -1.197468115123    -0.024786469469    12.000000000000
         C           -0.704007585966     1.197498884877    -0.024783469469    12.000000000000
         C            0.689464414034    -1.203933115123    -0.030413469469    12.000000000000
         C            0.689498414034     1.203936884877    -0.030412469469    12.000000000000
         C           -2.932222485966    -0.000018415123     0.211946430531    12.000000000000
         H           -1.236954585966    -2.147390115123    -0.035445469469     1.007825032230
         H           -1.236911585966     2.147430884877    -0.035430469469     1.007825032230
         H            1.228506414034    -2.150337115123    -0.034497469469     1.007825032230
         H            1.228558414034     2.150330884877    -0.034496469469     1.007825032230
         H           -3.343312585966     0.885798884877    -0.483746469469     1.007825032230
         H           -3.343404585966    -0.883730115123    -0.487427469469     1.007825032230
         H           -3.305844585966    -0.002165115123     1.043300530531     1.007825032230
         H            3.231091414034     0.829537884877     0.319529530531     1.007825032230
         H            3.231053414034    -0.829602115123     0.319576530531     1.007825032230

  Basis Set: AUG-CC-PVTZ
    Blend: AUG-CC-PVTZ
  Basis Set: (AUG-CC-PVTZ AUX)
    Blend: AUG-CC-PVTZ-JKFIT
	 Reference Energy          =    -324.8316254405601171 [Eh]
	 Singles Energy            =      -0.0000000000000000 [Eh]
	 Same-Spin Energy          =      -0.3601542974576130 [Eh]
	 Opposite-Spin Energy      =      -1.1531965738628078 [Eh]
	 Correlation Energy        =      -1.5133508713204209 [Eh]
	 Total Energy              =    -326.3449763118805436 [Eh]

	 ================> DF-SCS-MP2 Energies <==================
	-----------------------------------------------------------
	 SCS Same-Spin Scale       =       0.3333333333333333 [-]
	 SCS Opposite-Spin Scale   =       1.2000000000000000 [-]
	 SCS Same-Spin Energy      =      -0.1200514324858710 [Eh]
	 SCS Opposite-Spin Energy  =      -1.3838358886353694 [Eh]
	 SCS Correlation Energy    =      -1.5038873211212405 [Eh]
	 SCS Total Energy          =    -326.3355127616813434 [Eh]
	-----------------------------------------------------------

  Dipole Moment: [D]
     X:     0.7727      Y:    -0.0001      Z:     1.1987     Total:     1.4262

*** Psi4 exiting successfully. Buy a developer a beer!
