                               Psi4 1.3.2 release

  ==> Input File <==

--------------------------------------------------------------------------
#psi4
#
memory 32 gb

molecule  {
0 1
  N        2.8432420    -0.0000300    -0.0741500
  C       -1.3987330     0.0000320    -0.0172550
  C        1.4375000     0.0000010     0.0042750
  C       -0.6732730    -1.1974670    -0.0089890
  C       -0.6732520     1.1975000    -0.0089860
  C        0.7202200    -1.2039320    -0.0146160
  C        0.7202540     1.2039380    -0.0146150
  C       -2.9006434    -0.0000173     0.2777371
  H       -1.2061990    -2.1473890    -0.0196480
  H       -1.2061560     2.1474320    -0.0196330
  H        1.2592620    -2.1503360    -0.0187000
  H        1.2593140     2.1503320    -0.0186990
  H       -3.3125570     0.8858000    -0.4679490
  H       -3.3126490    -0.8837290    -0.4716300
  H       -3.2750890    -0.0021640     1.0590980
  H        3.2618470     0.8295390     0.3353270
  H        3.2618090    -0.8296010     0.3353740
units angstrom
no_reorient  #important for SAPT in psi4, default
symmetry c1  #important for SAPT in psi4, default
}

set PROPERTIES_ORIGIN ["COM"]
properties('MP2/aug-cc-pvtz', properties = ['dipole'])
--------------------------------------------------------------------------

    Molecular point group: c1
  Charge       = 0
  Multiplicity = 1
  Basis Set: AUG-CC-PVTZ
    Blend: AUG-CC-PVTZ
  Basis Set: (AUG-CC-PVTZ AUX)
    Blend: AUG-CC-PVTZ-JKFIT

    Orbital Energies [Eh]
    ---------------------

    Doubly Occupied:

       1A    -15.565805     2A    -11.275588     3A    -11.233155
       4A    -11.232817     5A    -11.230810     6A    -11.225991
       7A    -11.225171     8A    -11.225151     9A     -1.220124
      10A     -1.130398    11A     -1.020610    12A     -1.009369
      13A     -0.925225    14A     -0.831631    15A     -0.795785
      16A     -0.696702    17A     -0.682358    18A     -0.653941
      19A     -0.611352    20A     -0.596292    21A     -0.578596
      22A     -0.574231    23A     -0.524001    24A     -0.497187
      25A     -0.492936    26A     -0.457701    27A     -0.436331
      28A     -0.335374    29A     -0.291126

  @DF-RHF Final Energy:  -324.79858680665376

   => Energetics <=

    Nuclear Repulsion Energy =            341.7656993054378631
    One-Electron Energy =               -1115.9770560545350691
    Two-Electron Energy =                 449.4127699424433899
    Total Energy =                       -324.7985868066537591
  Basis Set: (AUG-CC-PVTZ AUX)
    Blend: AUG-CC-PVTZ-RI
    Molecular point group: c1

    Geometry (in Angstrom), charge = 0, multiplicity = 1:

       Center              X                  Y                   Z               Mass
    ------------   -----------------  -----------------  -----------------  -----------------
         N            2.812394122290    -0.000031115123    -0.095550334828    14.003074004430
         C           -1.429580877710     0.000030884877    -0.038655334828    12.000000000000
         C            1.406652122290    -0.000000115123    -0.017125334828    12.000000000000
         C           -0.704120877710    -1.197468115123    -0.030389334828    12.000000000000
         C           -0.704099877710     1.197498884877    -0.030386334828    12.000000000000
         C            0.689372122290    -1.203933115123    -0.036016334828    12.000000000000
         C            0.689406122290     1.203936884877    -0.036015334828    12.000000000000
         C           -2.931491277710    -0.000018415123     0.256336765172    12.000000000000
         H           -1.237046877710    -2.147390115123    -0.041048334828     1.007825032230
         H           -1.237003877710     2.147430884877    -0.041033334828     1.007825032230
         H            1.228414122290    -2.150337115123    -0.040100334828     1.007825032230
         H            1.228466122290     2.150330884877    -0.040099334828     1.007825032230
         H           -3.343404877710     0.885798884877    -0.489349334828     1.007825032230
         H           -3.343496877710    -0.883730115123    -0.493030334828     1.007825032230
         H           -3.305936877710    -0.002165115123     1.037697665172     1.007825032230
         H            3.230999122290     0.829537884877     0.313926665172     1.007825032230
         H            3.230961122290    -0.829602115123     0.313973665172     1.007825032230

  Basis Set: AUG-CC-PVTZ
    Blend: AUG-CC-PVTZ
  Basis Set: (AUG-CC-PVTZ AUX)
    Blend: AUG-CC-PVTZ-JKFIT
	 Reference Energy          =    -324.7985868066537591 [Eh]
	 Singles Energy            =      -0.0000000000000000 [Eh]
	 Same-Spin Energy          =      -0.3604711616917029 [Eh]
	 Opposite-Spin Energy      =      -1.1544040189403890 [Eh]
	 Correlation Energy        =      -1.5148751806320919 [Eh]
	 Total Energy              =    -326.3134619872858480 [Eh]

	 ================> DF-SCS-MP2 Energies <==================
	-----------------------------------------------------------
	 SCS Same-Spin Scale       =       0.3333333333333333 [-]
	 SCS Opposite-Spin Scale   =       1.2000000000000000 [-]
	 SCS Same-Spin Energy      =      -0.1201570538972343 [Eh]
	 SCS Opposite-Spin Energy  =      -1.3852848227284669 [Eh]
	 SCS Correlation Energy    =      -1.5054418766257012 [Eh]
	 SCS Total Energy          =    -326.3040286832794550 [Eh]
	-----------------------------------------------------------

  Dipole Moment: [D]
     X:     0.8507      Y:     0.0000      Z:     1.2048     Total:     1.4748

*** Psi4 exiting successfully. Buy a developer a beer!
