                               Psi4 1.3.2 release

  ==> Input File <==

--------------------------------------------------------------------------
#psi4
#
memory 32 gb

molecule  {
0 1
  N        2.8432420    -0.0000300    -0.0741500
  C       -1.3987330     0.0000320    -0.0172550
  C        1.4375000     0.0000010     0.0042750
  C       -0.6732730    -1.1974670    -0.0089890
  C       -0.6732520     1.1975000    -0.0089860
  C        0.7202200    -1.2039320    -0.0146160
  C        0.7202540     1.2039380    -0.0146150
  C       -2.9047610    -0.0000170     0.0277710
  H       -1.2061990    -2.1473890    -0.0196480
  H       -1.2061560     2.1474320    -0.0196330
  H        1.2592153    -2.1524689     0.1812886
  H        1.2593140     2.1503320    -0.0186990
  H       -3.3125570     0.8858000    -0.4679490
  H       -3.3126490    -0.8837290    -0.4716300
  H       -3.2750890    -0.0021640     1.0590980
  H        3.2618470     0.8295390     0.3353270
  H        3.2618090    -0.8296010     0.3353740
units angstrom
no_reorient  #important for SAPT in psi4, default
symmetry c1  #important for SAPT in psi4, default
}

set PROPERTIES_ORIGIN ["COM"]
properties('MP2/aug-cc-pvtz', properties = ['dipole'])
--------------------------------------------------------------------------

    Molecular point group: c1
  Charge       = 0
  Multiplicity = 1
  Basis Set: AUG-CC-PVTZ
    Blend: AUG-CC-PVTZ
  Basis Set: (AUG-CC-PVTZ AUX)
    Blend: AUG-CC-PVTZ-JKFIT

    Orbital Energies [Eh]
    ---------------------

    Doubly Occupied:

       1A    -15.564010     2A    -11.272995     3A    -11.231507
       4A    -11.231344     5A    -11.227317     6A    -11.226058
       7A    -11.224411     8A    -11.218724     9A     -1.218296
      10A     -1.129842    11A     -1.019836    12A     -1.007774
      13A     -0.914882    14A     -0.830294    15A     -0.788774
      16A     -0.690495    17A     -0.682237    18A     -0.632499
      19A     -0.601423    20A     -0.584452    21A     -0.576663
      22A     -0.569845    23A     -0.530303    24A     -0.524772
      25A     -0.493598    26A     -0.479408    27A     -0.438660
      28A     -0.334279    29A     -0.287920

  @DF-RHF Final Energy:  -324.87986976235794

   => Energetics <=

    Nuclear Repulsion Energy =            341.8709021490575424
    One-Electron Energy =               -1116.4363018751184882
    Two-Electron Energy =                 449.6855299637030043
    Total Energy =                       -324.8798697623579415
  Basis Set: (AUG-CC-PVTZ AUX)
    Blend: AUG-CC-PVTZ-RI
    Molecular point group: c1

    Geometry (in Angstrom), charge = 0, multiplicity = 1:

       Center              X                  Y                   Z               Mass
    ------------   -----------------  -----------------  -----------------  -----------------
         N            2.812856031780    -0.000011072908    -0.069418381532    14.003074004430
         C           -1.429118968220     0.000050927092    -0.012523381532    12.000000000000
         C            1.407114031780     0.000019927092     0.009006618468    12.000000000000
         C           -0.703658968220    -1.197448072908    -0.004257381532    12.000000000000
         C           -0.703637968220     1.197518927092    -0.004254381532    12.000000000000
         C            0.689834031780    -1.203913072908    -0.009884381532    12.000000000000
         C            0.689868031780     1.203956927092    -0.009883381532    12.000000000000
         C           -2.935146968220     0.000001927092     0.032502618468    12.000000000000
         H           -1.236584968220    -2.147370072908    -0.014916381532     1.007825032230
         H           -1.236541968220     2.147450927092    -0.014901381532     1.007825032230
         H            1.228829331780    -2.152449972908     0.186020218468     1.007825032230
         H            1.228928031780     2.150350927092    -0.013967381532     1.007825032230
         H           -3.342942968220     0.885818927092    -0.463217381532     1.007825032230
         H           -3.343034968220    -0.883710072908    -0.466898381532     1.007825032230
         H           -3.305474968220    -0.002145072908     1.063829618468     1.007825032230
         H            3.231461031780     0.829557927092     0.340058618468     1.007825032230
         H            3.231423031780    -0.829582072908     0.340105618468     1.007825032230

  Basis Set: AUG-CC-PVTZ
    Blend: AUG-CC-PVTZ
  Basis Set: (AUG-CC-PVTZ AUX)
    Blend: AUG-CC-PVTZ-JKFIT
	 Reference Energy          =    -324.8798697623579415 [Eh]
	 Singles Energy            =      -0.0000000000000000 [Eh]
	 Same-Spin Energy          =      -0.3597679849134359 [Eh]
	 Opposite-Spin Energy      =      -1.1514974900141863 [Eh]
	 Correlation Energy        =      -1.5112654749276222 [Eh]
	 Total Energy              =    -326.3911352372855390 [Eh]

	 ================> DF-SCS-MP2 Energies <==================
	-----------------------------------------------------------
	 SCS Same-Spin Scale       =       0.3333333333333333 [-]
	 SCS Opposite-Spin Scale   =       1.2000000000000000 [-]
	 SCS Same-Spin Energy      =      -0.1199226616378120 [Eh]
	 SCS Opposite-Spin Energy  =      -1.3817969880170236 [Eh]
	 SCS Correlation Energy    =      -1.5017196496548355 [Eh]
	 SCS Total Energy          =    -326.3815894120127723 [Eh]
	-----------------------------------------------------------

  Dipole Moment: [D]
     X:     0.5583      Y:     0.0332      Z:     1.2437     Total:     1.3637

*** Psi4 exiting successfully. Buy a developer a beer!
