                               Psi4 1.3.2 release

  ==> Input File <==

--------------------------------------------------------------------------
#psi4
#
memory 32 gb

molecule  {
0 1
  N        2.8432420    -0.0000300    -0.0741500
  C       -1.3987330     0.0000320    -0.0172550
  C        1.4375000     0.0000010     0.0042750
  C       -0.6732730    -1.1974670    -0.0089890
  C       -0.6732520     1.1975000    -0.0089860
  C        0.7202200    -1.2039320    -0.0146160
  C        0.7202540     1.2039380    -0.0146150
  C       -2.9047610    -0.0000170     0.0277710
  H       -1.2061990    -2.1473890    -0.0196480
  H       -1.2061560     2.1474320    -0.0196330
  H        1.2592620    -2.1503360    -0.0187000
  H        1.2593140     2.1503320    -0.0186990
  H       -3.3125570     0.8858000    -0.4679490
  H       -3.3126490    -0.8837290    -0.4716300
  H       -3.2750890    -0.0021640     1.0590980
  H        3.2618470     0.8295390     0.3353270
  H        3.2885932    -0.8296058     0.1877847
units angstrom
no_reorient  #important for SAPT in psi4, default
symmetry c1  #important for SAPT in psi4, default
}

set PROPERTIES_ORIGIN ["COM"]
properties('MP2/aug-cc-pvtz', properties = ['dipole'])
--------------------------------------------------------------------------

    Molecular point group: c1
  Charge       = 0
  Multiplicity = 1
  Basis Set: AUG-CC-PVTZ
    Blend: AUG-CC-PVTZ
  Basis Set: (AUG-CC-PVTZ AUX)
    Blend: AUG-CC-PVTZ-JKFIT

    Orbital Energies [Eh]
    ---------------------

    Doubly Occupied:

       1A    -15.559271     2A    -11.273504     3A    -11.230690
       4A    -11.230487     5A    -11.226088     6A    -11.223572
       7A    -11.223428     8A    -11.217972     9A     -1.219615
      10A     -1.129777    11A     -1.020211    12A     -1.007465
      13A     -0.915191    14A     -0.830925    15A     -0.789739
      16A     -0.696352    17A     -0.687243    18A     -0.633542
      19A     -0.606423    20A     -0.584164    21A     -0.577317
      22A     -0.569522    23A     -0.530662    24A     -0.521918
      25A     -0.494492    26A     -0.480154    27A     -0.435934
      28A     -0.333838    29A     -0.285558

  @DF-RHF Final Energy:  -324.88235448109145

   => Energetics <=

    Nuclear Repulsion Energy =            342.0631157395104651
    One-Electron Energy =               -1116.8208380097955796
    Two-Electron Energy =                 449.8753677891936036
    Total Energy =                       -324.8823544810914541
  Basis Set: (AUG-CC-PVTZ AUX)
    Blend: AUG-CC-PVTZ-RI
    Molecular point group: c1

    Geometry (in Angstrom), charge = 0, multiplicity = 1:

       Center              X                  Y                   Z               Mass
    ------------   -----------------  -----------------  -----------------  -----------------
         N            2.812603487006    -0.000031103565    -0.066146818441    14.003074004430
         C           -1.429371512994     0.000030896435    -0.009251818441    12.000000000000
         C            1.406861487006    -0.000000103565     0.012278181559    12.000000000000
         C           -0.703911512994    -1.197468103565    -0.000985818441    12.000000000000
         C           -0.703890512994     1.197498896435    -0.000982818441    12.000000000000
         C            0.689581487006    -1.203933103565    -0.006612818441    12.000000000000
         C            0.689615487006     1.203936896435    -0.006611818441    12.000000000000
         C           -2.935399512994    -0.000018103565     0.035774181559    12.000000000000
         H           -1.236837512994    -2.147390103565    -0.011644818441     1.007825032230
         H           -1.236794512994     2.147430896435    -0.011629818441     1.007825032230
         H            1.228623487006    -2.150337103565    -0.010696818441     1.007825032230
         H            1.228675487006     2.150330896435    -0.010695818441     1.007825032230
         H           -3.343195512994     0.885798896435    -0.459945818441     1.007825032230
         H           -3.343287512994    -0.883730103565    -0.463626818441     1.007825032230
         H           -3.305727512994    -0.002165103565     1.067101181559     1.007825032230
         H            3.231208487006     0.829537896435     0.343330181559     1.007825032230
         H            3.257954687006    -0.829606903565     0.195787881559     1.007825032230

  Basis Set: AUG-CC-PVTZ
    Blend: AUG-CC-PVTZ
  Basis Set: (AUG-CC-PVTZ AUX)
    Blend: AUG-CC-PVTZ-JKFIT
	 Reference Energy          =    -324.8823544810914541 [Eh]
	 Singles Energy            =      -0.0000000000000000 [Eh]
	 Same-Spin Energy          =      -0.3594614944016344 [Eh]
	 Opposite-Spin Energy      =      -1.1504641590476428 [Eh]
	 Correlation Energy        =      -1.5099256534492771 [Eh]
	 Total Energy              =    -326.3922801345407265 [Eh]

	 ================> DF-SCS-MP2 Energies <==================
	-----------------------------------------------------------
	 SCS Same-Spin Scale       =       0.3333333333333333 [-]
	 SCS Opposite-Spin Scale   =       1.2000000000000000 [-]
	 SCS Same-Spin Energy      =      -0.1198204981338781 [Eh]
	 SCS Opposite-Spin Energy  =      -1.3805569908571713 [Eh]
	 SCS Correlation Energy    =      -1.5003774889910495 [Eh]
	 SCS Total Energy          =    -326.3827319700824887 [Eh]
	-----------------------------------------------------------

  Dipole Moment: [D]
     X:     0.7229      Y:    -0.0479      Z:     0.9583     Total:     1.2013

*** Psi4 exiting successfully. Buy a developer a beer!
