                               Psi4 1.3.2 release

  ==> Input File <==

--------------------------------------------------------------------------
#psi4
#
memory 32 gb

molecule  {
0 1
  N        2.8432420    -0.0000300    -0.0741500
  C       -1.3987330     0.0000320    -0.0172550
  C        1.4375000     0.0000010     0.0042750
  C       -0.6732730    -1.1974670    -0.0089890
  C       -0.6732520     1.1975000    -0.0089860
  C        0.7202200    -1.2039320    -0.0146160
  C        0.7202540     1.2039380    -0.0146150
  C       -2.9047610    -0.0000170     0.0277710
  H       -1.2057041    -2.1470660    -0.2696473
  H       -1.2061560     2.1474320    -0.0196330
  H        1.2592620    -2.1503360    -0.0187000
  H        1.2593140     2.1503320    -0.0186990
  H       -3.3125570     0.8858000    -0.4679490
  H       -3.3126490    -0.8837290    -0.4716300
  H       -3.2750890    -0.0021640     1.0590980
  H        3.2618470     0.8295390     0.3353270
  H        3.2618090    -0.8296010     0.3353740
units angstrom
no_reorient  #important for SAPT in psi4, default
symmetry c1  #important for SAPT in psi4, default
}

set PROPERTIES_ORIGIN ["COM"]
properties('MP2/aug-cc-pvtz', properties = ['dipole'])
--------------------------------------------------------------------------

    Molecular point group: c1
  Charge       = 0
  Multiplicity = 1
  Basis Set: AUG-CC-PVTZ
    Blend: AUG-CC-PVTZ
  Basis Set: (AUG-CC-PVTZ AUX)
    Blend: AUG-CC-PVTZ-JKFIT

    Orbital Energies [Eh]
    ---------------------

    Doubly Occupied:

       1A    -15.563862     2A    -11.272924     3A    -11.233643
       4A    -11.231284     5A    -11.227875     6A    -11.224995
       7A    -11.224917     8A    -11.218671     9A     -1.218386
      10A     -1.129756    11A     -1.020008    12A     -1.007661
      13A     -0.914683    14A     -0.829786    15A     -0.788789
      16A     -0.689135    17A     -0.682208    18A     -0.633686
      19A     -0.601481    20A     -0.583418    21A     -0.576987
      22A     -0.568300    23A     -0.529663    24A     -0.523822
      25A     -0.495869    26A     -0.479792    27A     -0.436902
      28A     -0.334186    29A     -0.288066

  @DF-RHF Final Energy:  -324.87806083193306

   => Energetics <=

    Nuclear Repulsion Energy =            341.8295889452689948
    One-Electron Energy =               -1116.3537875387144140
    Two-Electron Energy =                 449.6461377615123070
    Total Energy =                       -324.8780608319330554
  Basis Set: (AUG-CC-PVTZ AUX)
    Blend: AUG-CC-PVTZ-RI
    Molecular point group: c1

    Geometry (in Angstrom), charge = 0, multiplicity = 1:

       Center              X                  Y                   Z               Mass
    ------------   -----------------  -----------------  -----------------  -----------------
         N            2.812850933991    -0.000034188969    -0.065182888410    14.003074004430
         C           -1.429124066009     0.000027811031    -0.008287888410    12.000000000000
         C            1.407108933991    -0.000003188969     0.013242111590    12.000000000000
         C           -0.703664066009    -1.197471188969    -0.000021888410    12.000000000000
         C           -0.703643066009     1.197495811031    -0.000018888410    12.000000000000
         C            0.689828933991    -1.203936188969    -0.005648888410    12.000000000000
         C            0.689862933991     1.203933811031    -0.005647888410    12.000000000000
         C           -2.935152066009    -0.000021188969     0.036738111590    12.000000000000
         H           -1.236095166009    -2.147070188969    -0.260680188410     1.007825032230
         H           -1.236547066009     2.147427811031    -0.010665888410     1.007825032230
         H            1.228870933991    -2.150340188969    -0.009732888410     1.007825032230
         H            1.228922933991     2.150327811031    -0.009731888410     1.007825032230
         H           -3.342948066009     0.885795811031    -0.458981888410     1.007825032230
         H           -3.343040066009    -0.883733188969    -0.462662888410     1.007825032230
         H           -3.305480066009    -0.002168188969     1.068065111590     1.007825032230
         H            3.231455933991     0.829534811031     0.344294111590     1.007825032230
         H            3.231417933991    -0.829605188969     0.344341111590     1.007825032230

  Basis Set: AUG-CC-PVTZ
    Blend: AUG-CC-PVTZ
  Basis Set: (AUG-CC-PVTZ AUX)
    Blend: AUG-CC-PVTZ-JKFIT
	 Reference Energy          =    -324.8780608319330554 [Eh]
	 Singles Energy            =      -0.0000000000000000 [Eh]
	 Same-Spin Energy          =      -0.3598924017227871 [Eh]
	 Opposite-Spin Energy      =      -1.1517526954812383 [Eh]
	 Correlation Energy        =      -1.5116450972040254 [Eh]
	 Total Energy              =    -326.3897059291371079 [Eh]

	 ================> DF-SCS-MP2 Energies <==================
	-----------------------------------------------------------
	 SCS Same-Spin Scale       =       0.3333333333333333 [-]
	 SCS Opposite-Spin Scale   =       1.2000000000000000 [-]
	 SCS Same-Spin Energy      =      -0.1199641339075957 [Eh]
	 SCS Opposite-Spin Energy  =      -1.3821032345774860 [Eh]
	 SCS Correlation Energy    =      -1.5020673684850816 [Eh]
	 SCS Total Energy          =    -326.3801282004181417 [Eh]
	-----------------------------------------------------------

  Dipole Moment: [D]
     X:     0.6154      Y:     0.0561      Z:     0.9815     Total:     1.1599

*** Psi4 exiting successfully. Buy a developer a beer!
