                               Psi4 1.3.2 release

  ==> Input File <==

--------------------------------------------------------------------------
#psi4
#
memory 32 gb

molecule  {
0 1
  N        2.8432420    -0.0000300    -0.0741500
  C       -1.3987330     0.0000320    -0.0172550
  C        1.4375000     0.0000010     0.0042750
  C       -0.6732730    -1.1974670    -0.0089890
  C       -0.6732520     1.1975000    -0.0089860
  C        0.7202200    -1.2039320    -0.0146160
  C        0.7118445     1.2039382    -0.3144971
  C       -2.9047610    -0.0000170     0.0277710
  H       -1.2061990    -2.1473890    -0.0196480
  H       -1.2061560     2.1474320    -0.0196330
  H        1.2592620    -2.1503360    -0.0187000
  H        1.2593140     2.1503320    -0.0186990
  H       -3.3125570     0.8858000    -0.4679490
  H       -3.3126490    -0.8837290    -0.4716300
  H       -3.2750890    -0.0021640     1.0590980
  H        3.2618470     0.8295390     0.3353270
  H        3.2618090    -0.8296010     0.3353740
units angstrom
no_reorient  #important for SAPT in psi4, default
symmetry c1  #important for SAPT in psi4, default
}

set PROPERTIES_ORIGIN ["COM"]
properties('MP2/aug-cc-pvtz', properties = ['dipole'])
--------------------------------------------------------------------------

    Molecular point group: c1
  Charge       = 0
  Multiplicity = 1
  Basis Set: AUG-CC-PVTZ
    Blend: AUG-CC-PVTZ
  Basis Set: (AUG-CC-PVTZ AUX)
    Blend: AUG-CC-PVTZ-JKFIT

    Orbital Energies [Eh]
    ---------------------

    Doubly Occupied:

       1A    -15.566569     2A    -11.280250     3A    -11.236603
       4A    -11.235318     5A    -11.231106     6A    -11.226736
       7A    -11.224235     8A    -11.218736     9A     -1.218445
      10A     -1.129127    11A     -1.018661    12A     -1.004265
      13A     -0.913736    14A     -0.827421    15A     -0.786329
      16A     -0.689648    17A     -0.681305    18A     -0.628104
      19A     -0.599720    20A     -0.581319    21A     -0.573579
      22A     -0.565989    23A     -0.530773    24A     -0.522528
      25A     -0.491520    26A     -0.472117    27A     -0.438504
      28A     -0.334506    29A     -0.286775

  @DF-RHF Final Energy:  -324.85352288406739

   => Energetics <=

    Nuclear Repulsion Energy =            340.9527179152515828
    One-Electron Energy =               -1114.5846357598181839
    Two-Electron Energy =                 448.7783949604992131
    Total Energy =                       -324.8535228840673881
  Basis Set: (AUG-CC-PVTZ AUX)
    Blend: AUG-CC-PVTZ-RI
    Molecular point group: c1

    Geometry (in Angstrom), charge = 0, multiplicity = 1:

       Center              X                  Y                   Z               Mass
    ------------   -----------------  -----------------  -----------------  -----------------
         N            2.813798066319    -0.000031171159    -0.033927445471    14.003074004430
         C           -1.428176933681     0.000030828841     0.022967554529    12.000000000000
         C            1.408056066319    -0.000000171159     0.044497554529    12.000000000000
         C           -0.702716933681    -1.197468171159     0.031233554529    12.000000000000
         C           -0.702695933681     1.197498828841     0.031236554529    12.000000000000
         C            0.690776066319    -1.203933171159     0.025606554529    12.000000000000
         C            0.682400566319     1.203937028841    -0.274274545471    12.000000000000
         C           -2.934204933681    -0.000018171159     0.067993554529    12.000000000000
         H           -1.235642933681    -2.147390171159     0.020574554529     1.007825032230
         H           -1.235599933681     2.147430828841     0.020589554529     1.007825032230
         H            1.229818066319    -2.150337171159     0.021522554529     1.007825032230
         H            1.229870066319     2.150330828841     0.021523554529     1.007825032230
         H           -3.342000933681     0.885798828841    -0.427726445471     1.007825032230
         H           -3.342092933681    -0.883730171159    -0.431407445471     1.007825032230
         H           -3.304532933681    -0.002165171159     1.099320554529     1.007825032230
         H            3.232403066319     0.829537828841     0.375549554529     1.007825032230
         H            3.232365066319    -0.829602171159     0.375596554529     1.007825032230

  Basis Set: AUG-CC-PVTZ
    Blend: AUG-CC-PVTZ
  Basis Set: (AUG-CC-PVTZ AUX)
    Blend: AUG-CC-PVTZ-JKFIT
	 Reference Energy          =    -324.8535228840673881 [Eh]
	 Singles Energy            =      -0.0000000000000000 [Eh]
	 Same-Spin Energy          =      -0.3609108314001547 [Eh]
	 Opposite-Spin Energy      =      -1.1555059208109113 [Eh]
	 Correlation Energy        =      -1.5164167522110659 [Eh]
	 Total Energy              =    -326.3699396362784455 [Eh]

	 ================> DF-SCS-MP2 Energies <==================
	-----------------------------------------------------------
	 SCS Same-Spin Scale       =       0.3333333333333333 [-]
	 SCS Opposite-Spin Scale   =       1.2000000000000000 [-]
	 SCS Same-Spin Energy      =      -0.1203036104667182 [Eh]
	 SCS Opposite-Spin Energy  =      -1.3866071049730935 [Eh]
	 SCS Correlation Energy    =      -1.5069107154398118 [Eh]
	 SCS Total Energy          =    -326.3604335995071892 [Eh]
	-----------------------------------------------------------

  Dipole Moment: [D]
     X:     0.5407      Y:    -0.1921      Z:     1.3277     Total:     1.4464

*** Psi4 exiting successfully. Buy a developer a beer!
