                               Psi4 1.3.2 release

  ==> Input File <==

--------------------------------------------------------------------------
#psi4
#
memory 32 gb

molecule  {
0 1
  N        2.8432420    -0.0000300    -0.0741500
  C       -1.3987330     0.0000320    -0.0172550
  C        1.4375000     0.0000010     0.0042750
  C       -0.6732730    -1.1974670    -0.0089890
  C       -0.6732520     1.1975000    -0.0089860
  C        0.7202200    -1.2039320    -0.0146160
  C        0.7202540     1.2039380    -0.0146150
  C       -2.9047610    -0.0000170     0.0277710
  H       -1.2061990    -2.1473890    -0.0196480
  H       -1.2061560     2.1474320    -0.0196330
  H        1.2592620    -2.1503360    -0.0187000
  H        1.2593140     2.1503320    -0.0186990
  H       -3.3125570     0.8858000    -0.4679490
  H       -3.3126490    -0.8837290    -0.4716300
  H       -3.2750890    -0.0021640     1.0590980
  H        3.2618470     0.8295390     0.3353270
  H        3.3064494    -0.8296090     0.0893918
units angstrom
no_reorient  #important for SAPT in psi4, default
symmetry c1  #important for SAPT in psi4, default
}

set PROPERTIES_ORIGIN ["COM"]
properties('MP2/aug-cc-pvtz', properties = ['dipole'])
--------------------------------------------------------------------------

    Molecular point group: c1
  Charge       = 0
  Multiplicity = 1
  Basis Set: AUG-CC-PVTZ
    Blend: AUG-CC-PVTZ
  Basis Set: (AUG-CC-PVTZ AUX)
    Blend: AUG-CC-PVTZ-JKFIT

    Orbital Energies [Eh]
    ---------------------

    Doubly Occupied:

       1A    -15.557468     2A    -11.273987     3A    -11.230447
       4A    -11.230173     5A    -11.225480     6A    -11.223157
       7A    -11.222852     8A    -11.217624     9A     -1.219431
      10A     -1.129591    11A     -1.020220    12A     -1.007098
      13A     -0.915274    14A     -0.830853    15A     -0.789937
      16A     -0.701084    17A     -0.687575    18A     -0.633202
      19A     -0.608711    20A     -0.583667    21A     -0.576970
      22A     -0.569129    23A     -0.531155    24A     -0.520153
      25A     -0.494271    26A     -0.479918    27A     -0.434140
      28A     -0.333550    29A     -0.284267

  @DF-RHF Final Energy:  -324.88105889906075

   => Energetics <=

    Nuclear Repulsion Energy =            342.0867532682933074
    One-Electron Energy =               -1116.8728566408694860
    Two-Electron Energy =                 449.9050444735154883
    Total Energy =                       -324.8810588990607471
  Basis Set: (AUG-CC-PVTZ AUX)
    Blend: AUG-CC-PVTZ-RI
    Molecular point group: c1

    Geometry (in Angstrom), charge = 0, multiplicity = 1:

       Center              X                  Y                   Z               Mass
    ------------   -----------------  -----------------  -----------------  -----------------
         N            2.812435416237    -0.000031073445    -0.065220699203    14.003074004430
         C           -1.429539583763     0.000030926555    -0.008325699203    12.000000000000
         C            1.406693416237    -0.000000073445     0.013204300797    12.000000000000
         C           -0.704079583763    -1.197468073445    -0.000059699203    12.000000000000
         C           -0.704058583763     1.197498926555    -0.000056699203    12.000000000000
         C            0.689413416237    -1.203933073445    -0.005686699203    12.000000000000
         C            0.689447416237     1.203936926555    -0.005685699203    12.000000000000
         C           -2.935567583763    -0.000018073445     0.036700300797    12.000000000000
         H           -1.237005583763    -2.147390073445    -0.010718699203     1.007825032230
         H           -1.236962583763     2.147430926555    -0.010703699203     1.007825032230
         H            1.228455416237    -2.150337073445    -0.009770699203     1.007825032230
         H            1.228507416237     2.150330926555    -0.009769699203     1.007825032230
         H           -3.343363583763     0.885798926555    -0.459019699203     1.007825032230
         H           -3.343455583763    -0.883730073445    -0.462700699203     1.007825032230
         H           -3.305895583763    -0.002165073445     1.068027300797     1.007825032230
         H            3.231040416237     0.829537926555     0.344256300797     1.007825032230
         H            3.275642816237    -0.829610073445     0.098321100797     1.007825032230

  Basis Set: AUG-CC-PVTZ
    Blend: AUG-CC-PVTZ
  Basis Set: (AUG-CC-PVTZ AUX)
    Blend: AUG-CC-PVTZ-JKFIT
	 Reference Energy          =    -324.8810588990607471 [Eh]
	 Singles Energy            =      -0.0000000000000000 [Eh]
	 Same-Spin Energy          =      -0.3594530108611451 [Eh]
	 Opposite-Spin Energy      =      -1.1502817584786822 [Eh]
	 Correlation Energy        =      -1.5097347693398273 [Eh]
	 Total Energy              =    -326.3907936684005904 [Eh]

	 ================> DF-SCS-MP2 Energies <==================
	-----------------------------------------------------------
	 SCS Same-Spin Scale       =       0.3333333333333333 [-]
	 SCS Opposite-Spin Scale   =       1.2000000000000000 [-]
	 SCS Same-Spin Energy      =      -0.1198176702870484 [Eh]
	 SCS Opposite-Spin Energy  =      -1.3803381101744185 [Eh]
	 SCS Correlation Energy    =      -1.5001557804614669 [Eh]
	 SCS Total Energy          =    -326.3812146795222020 [Eh]
	-----------------------------------------------------------

  Dipole Moment: [D]
     X:     0.8066      Y:    -0.0702      Z:     0.8323     Total:     1.1612

*** Psi4 exiting successfully. Buy a developer a beer!
