                               Psi4 1.3.2 release

  ==> Input File <==

--------------------------------------------------------------------------
#psi4
#
memory 32 gb

molecule  {
0 1
  N        2.8432420    -0.0000300    -0.0741500
  C       -1.3987330     0.0000320    -0.0172550
  C        1.4375000     0.0000010     0.0042750
  C       -0.6732730    -1.1974670    -0.0089890
  C       -0.6732520     1.1975000    -0.0089860
  C        0.7202200    -1.2039320    -0.0146160
  C        0.7202540     1.2039380    -0.0146150
  C       -2.9047610    -0.0000170     0.0277710
  H       -1.2061990    -2.1473890    -0.0196480
  H       -1.2061560     2.1474320    -0.0196330
  H        1.2592036    -2.1530021     0.2312858
  H        1.2593140     2.1503320    -0.0186990
  H       -3.3125570     0.8858000    -0.4679490
  H       -3.3126490    -0.8837290    -0.4716300
  H       -3.2750890    -0.0021640     1.0590980
  H        3.2618470     0.8295390     0.3353270
  H        3.2618090    -0.8296010     0.3353740
units angstrom
no_reorient  #important for SAPT in psi4, default
symmetry c1  #important for SAPT in psi4, default
}

set PROPERTIES_ORIGIN ["COM"]
properties('MP2/aug-cc-pvtz', properties = ['dipole'])
--------------------------------------------------------------------------

    Molecular point group: c1
  Charge       = 0
  Multiplicity = 1
  Basis Set: AUG-CC-PVTZ
    Blend: AUG-CC-PVTZ
  Basis Set: (AUG-CC-PVTZ AUX)
    Blend: AUG-CC-PVTZ-JKFIT

    Orbital Energies [Eh]
    ---------------------

    Doubly Occupied:

       1A    -15.564122     2A    -11.273212     3A    -11.231742
       4A    -11.231586     5A    -11.227427     6A    -11.226952
       7A    -11.224505     8A    -11.218807     9A     -1.218368
      10A     -1.129969    11A     -1.019884    12A     -1.007642
      13A     -0.914971    14A     -0.830017    15A     -0.788552
      16A     -0.690392    17A     -0.682279    18A     -0.631610
      19A     -0.601461    20A     -0.584498    21A     -0.576057
      22A     -0.569625    23A     -0.530404    24A     -0.525061
      25A     -0.493355    26A     -0.478795    27A     -0.438703
      28A     -0.334260    29A     -0.288017

  @DF-RHF Final Energy:  -324.87831287756018

   => Energetics <=

    Nuclear Repulsion Energy =            341.8310838603847515
    One-Electron Energy =               -1116.3542465042771710
    Two-Electron Energy =                 449.6448497663322428
    Total Energy =                       -324.8783128775601767
  Basis Set: (AUG-CC-PVTZ AUX)
    Blend: AUG-CC-PVTZ-RI
    Molecular point group: c1

    Geometry (in Angstrom), charge = 0, multiplicity = 1:

       Center              X                  Y                   Z               Mass
    ------------   -----------------  -----------------  -----------------  -----------------
         N            2.812856141905    -0.000006054185    -0.069888978179    14.003074004430
         C           -1.429118858095     0.000055945815    -0.012993978179    12.000000000000
         C            1.407114141905     0.000024945815     0.008536021821    12.000000000000
         C           -0.703658858095    -1.197443054185    -0.004727978179    12.000000000000
         C           -0.703637858095     1.197523945815    -0.004724978179    12.000000000000
         C            0.689834141905    -1.203908054185    -0.010354978179    12.000000000000
         C            0.689868141905     1.203961945815    -0.010353978179    12.000000000000
         C           -2.935146858095     0.000006945815     0.032032021821    12.000000000000
         H           -1.236584858095    -2.147365054185    -0.015386978179     1.007825032230
         H           -1.236541858095     2.147455945815    -0.015371978179     1.007825032230
         H            1.228817741905    -2.152978154185     0.235546821821     1.007825032230
         H            1.228928141905     2.150355945815    -0.014437978179     1.007825032230
         H           -3.342942858095     0.885823945815    -0.463687978179     1.007825032230
         H           -3.343034858095    -0.883705054185    -0.467368978179     1.007825032230
         H           -3.305474858095    -0.002140054185     1.063359021821     1.007825032230
         H            3.231461141905     0.829562945815     0.339588021821     1.007825032230
         H            3.231423141905    -0.829577054185     0.339635021821     1.007825032230

  Basis Set: AUG-CC-PVTZ
    Blend: AUG-CC-PVTZ
  Basis Set: (AUG-CC-PVTZ AUX)
    Blend: AUG-CC-PVTZ-JKFIT
	 Reference Energy          =    -324.8783128775601767 [Eh]
	 Singles Energy            =      -0.0000000000000000 [Eh]
	 Same-Spin Energy          =      -0.3598439297996655 [Eh]
	 Opposite-Spin Energy      =      -1.1516959309337289 [Eh]
	 Correlation Energy        =      -1.5115398607333943 [Eh]
	 Total Energy              =    -326.3898527382935981 [Eh]

	 ================> DF-SCS-MP2 Energies <==================
	-----------------------------------------------------------
	 SCS Same-Spin Scale       =       0.3333333333333333 [-]
	 SCS Opposite-Spin Scale   =       1.2000000000000000 [-]
	 SCS Same-Spin Energy      =      -0.1199479765998885 [Eh]
	 SCS Opposite-Spin Energy  =      -1.3820351171204746 [Eh]
	 SCS Correlation Energy    =      -1.5019830937203631 [Eh]
	 SCS Total Energy          =    -326.3802959712805318 [Eh]
	-----------------------------------------------------------

  Dipole Moment: [D]
     X:     0.5474      Y:     0.0514      Z:     1.2722     Total:     1.3859

*** Psi4 exiting successfully. Buy a developer a beer!
