                               Psi4 1.3.2 release

  ==> Input File <==

--------------------------------------------------------------------------
#psi4
#
memory 32 gb

molecule  {
0 1
  N        2.8432420    -0.0000300    -0.0741500
  C       -1.3987330     0.0000320    -0.0172550
  C        1.4375000     0.0000010     0.0042750
  C       -0.6732730    -1.1974670    -0.0089890
  C       -0.6732520     1.1975000    -0.0089860
  C        0.7202200    -1.2039320    -0.0146160
  C        0.7202540     1.2039380    -0.0146150
  C       -2.8998199    -0.0000174     0.3277303
  H       -1.2061990    -2.1473890    -0.0196480
  H       -1.2061560     2.1474320    -0.0196330
  H        1.2592620    -2.1503360    -0.0187000
  H        1.2593140     2.1503320    -0.0186990
  H       -3.3125570     0.8858000    -0.4679490
  H       -3.3126490    -0.8837290    -0.4716300
  H       -3.2750890    -0.0021640     1.0590980
  H        3.2618470     0.8295390     0.3353270
  H        3.2618090    -0.8296010     0.3353740
units angstrom
no_reorient  #important for SAPT in psi4, default
symmetry c1  #important for SAPT in psi4, default
}

set PROPERTIES_ORIGIN ["COM"]
properties('MP2/aug-cc-pvtz', properties = ['dipole'])
--------------------------------------------------------------------------

    Molecular point group: c1
  Charge       = 0
  Multiplicity = 1
  Basis Set: AUG-CC-PVTZ
    Blend: AUG-CC-PVTZ
  Basis Set: (AUG-CC-PVTZ AUX)
    Blend: AUG-CC-PVTZ-JKFIT

    Orbital Energies [Eh]
    ---------------------

    Doubly Occupied:

       1A    -15.566472     2A    -11.276480     3A    -11.234277
       4A    -11.233554     5A    -11.232597     6A    -11.229811
       7A    -11.225638     8A    -11.225619     9A     -1.220780
      10A     -1.130806    11A     -1.021536    12A     -1.009944
      13A     -0.931041    14A     -0.832108    15A     -0.798955
      16A     -0.699696    17A     -0.682766    18A     -0.660828
      19A     -0.612165    20A     -0.596267    21A     -0.579070
      22A     -0.572091    23A     -0.524766    24A     -0.496525
      25A     -0.491508    26A     -0.447994    27A     -0.434635
      28A     -0.335892    29A     -0.291603

  @DF-RHF Final Energy:  -324.75463906581535

   => Energetics <=

    Nuclear Repulsion Energy =            341.7080512635453715
    One-Electron Energy =               -1115.7345302009780426
    Two-Electron Energy =                 449.2718398716173169
    Total Energy =                       -324.7546390658153541
  Basis Set: (AUG-CC-PVTZ AUX)
    Blend: AUG-CC-PVTZ-RI
    Molecular point group: c1

    Geometry (in Angstrom), charge = 0, multiplicity = 1:

       Center              X                  Y                   Z               Mass
    ------------   -----------------  -----------------  -----------------  -----------------
         N            2.812301830546    -0.000031103915    -0.101153200186    14.003074004430
         C           -1.429673169454     0.000030896085    -0.044258200186    12.000000000000
         C            1.406559830546    -0.000000103915    -0.022728200186    12.000000000000
         C           -0.704213169454    -1.197468103915    -0.035992200186    12.000000000000
         C           -0.704192169454     1.197498896085    -0.035989200186    12.000000000000
         C            0.689279830546    -1.203933103915    -0.041619200186    12.000000000000
         C            0.689313830546     1.203936896085    -0.041618200186    12.000000000000
         C           -2.930760069454    -0.000018503915     0.300727099814    12.000000000000
         H           -1.237139169454    -2.147390103915    -0.046651200186     1.007825032230
         H           -1.237096169454     2.147430896085    -0.046636200186     1.007825032230
         H            1.228321830546    -2.150337103915    -0.045703200186     1.007825032230
         H            1.228373830546     2.150330896085    -0.045702200186     1.007825032230
         H           -3.343497169454     0.885798896085    -0.494952200186     1.007825032230
         H           -3.343589169454    -0.883730103915    -0.498633200186     1.007825032230
         H           -3.306029169454    -0.002165103915     1.032094799814     1.007825032230
         H            3.230906830546     0.829537896085     0.308323799814     1.007825032230
         H            3.230868830546    -0.829602103915     0.308370799814     1.007825032230

  Basis Set: AUG-CC-PVTZ
    Blend: AUG-CC-PVTZ
  Basis Set: (AUG-CC-PVTZ AUX)
    Blend: AUG-CC-PVTZ-JKFIT
	 Reference Energy          =    -324.7546390658153541 [Eh]
	 Singles Energy            =      -0.0000000000000000 [Eh]
	 Same-Spin Energy          =      -0.3608697989810308 [Eh]
	 Opposite-Spin Energy      =      -1.1559195128368946 [Eh]
	 Correlation Energy        =      -1.5167893118179254 [Eh]
	 Total Energy              =    -326.2714283776332991 [Eh]

	 ================> DF-SCS-MP2 Energies <==================
	-----------------------------------------------------------
	 SCS Same-Spin Scale       =       0.3333333333333333 [-]
	 SCS Opposite-Spin Scale   =       1.2000000000000000 [-]
	 SCS Same-Spin Energy      =      -0.1202899329936769 [Eh]
	 SCS Opposite-Spin Energy  =      -1.3871034154042736 [Eh]
	 SCS Correlation Energy    =      -1.5073933483979505 [Eh]
	 SCS Total Energy          =    -326.2620324142133086 [Eh]
	-----------------------------------------------------------

  Dipole Moment: [D]
     X:     0.9409      Y:     0.0001      Z:     1.2058     Total:     1.5294

*** Psi4 exiting successfully. Buy a developer a beer!
