                               Psi4 1.4a3.dev225

  ==> Input File <==

--------------------------------------------------------------------------
#psi4
#
memory 32 gb

molecule  {
0 1
  C        1.6145290    -0.0000010     0.5621290
  C        2.5582230    -0.7522490    -0.3397160
  C        2.5582240     0.7522500    -0.3397120
  C        0.0989769    -0.0000010     0.2714797
  C       -0.5548080     1.2061540     0.1589450
  C       -0.5548100    -1.2061550     0.1589460
  C       -1.9306470     1.2078790    -0.0767010
  C       -1.9306490    -1.2078780    -0.0767020
  C       -2.6220200     0.0000010    -0.1960300
  H        1.8787490    -0.0000050     1.6191980
  H        2.1259860    -1.2531880    -1.2001610
  H        3.4001610    -1.2700850     0.1085340
  H        3.4001670     1.2700790     0.1085380
  H        2.1259890     1.2531940    -1.2001560
  H       -0.0142320     2.1466170     0.2491570
  H       -0.0142360    -2.1466190     0.2491580
  H       -2.4630520     2.1516370    -0.1717350
  H       -2.4630540    -2.1516360    -0.1717360
  H       -3.6932210     0.0000030    -0.3831350
units angstrom
no_reorient  #important for SAPT in psi4, default
symmetry c1  #important for SAPT in psi4, default
}

set PROPERTIES_ORIGIN ["COM"]
properties('MP2/aug-cc-pvtz', properties = ['dipole'])
--------------------------------------------------------------------------

    Molecular point group: c1
  Charge       = 0
  Multiplicity = 1
  Basis Set: AUG-CC-PVTZ
    Blend: AUG-CC-PVTZ
  Basis Set: (AUG-CC-PVTZ AUX)
    Blend: AUG-CC-PVTZ-JKFIT

    Orbital Energies [Eh]
    ---------------------

    Doubly Occupied:

       1A    -11.237488     2A    -11.236497     3A    -11.234924
       4A    -11.234698     5A    -11.231711     6A    -11.228380
       7A    -11.228274     8A    -11.225514     9A    -11.224855
      10A     -1.165190    11A     -1.128929    12A     -1.013619
      13A     -1.013160    14A     -0.848468    15A     -0.835677
      16A     -0.810576    17A     -0.774819    18A     -0.699979
      19A     -0.661833    20A     -0.632554    21A     -0.623696
      22A     -0.607730    23A     -0.585384    24A     -0.540614
      25A     -0.513307    26A     -0.504209    27A     -0.497557
      28A     -0.473188    29A     -0.424950    30A     -0.415966
      31A     -0.334795    32A     -0.328215

  @DF-RHF Final Energy:  -346.71831901204069

   => Energetics <=

    Nuclear Repulsion Energy =            403.5817683164980281
    One-Electron Energy =               -1267.5666618996237958
    Two-Electron Energy =                 517.2665745710850160
    Total Energy =                       -346.7183190120407517
  Basis Set: (AUG-CC-PVTZ AUX)
    Blend: AUG-CC-PVTZ-RI
    Molecular point group: c1

    Geometry (in Angstrom), charge = 0, multiplicity = 1:

       Center              X                  Y                   Z               Mass
    ------------   -----------------  -----------------  -----------------  -----------------
         C            1.655510294715    -0.000000974394     0.556428319919    12.000000000000
         C            2.599204294715    -0.752248974394    -0.345416680081    12.000000000000
         C            2.599205294715     0.752250025606    -0.345412680081    12.000000000000
         C            0.139958194715    -0.000000974394     0.265779019919    12.000000000000
         C           -0.513826705285     1.206154025606     0.153244319919    12.000000000000
         C           -0.513828705285    -1.206154974394     0.153245319919    12.000000000000
         C           -1.889665705285     1.207879025606    -0.082401680081    12.000000000000
         C           -1.889667705285    -1.207877974394    -0.082402680081    12.000000000000
         C           -2.581038705285     0.000001025606    -0.201730680081    12.000000000000
         H            1.919730294715    -0.000004974394     1.613497319919     1.007825032230
         H            2.166967294715    -1.253187974394    -1.205861680081     1.007825032230
         H            3.441142294715    -1.270084974394     0.102833319919     1.007825032230
         H            3.441148294715     1.270079025606     0.102837319919     1.007825032230
         H            2.166970294715     1.253194025606    -1.205856680081     1.007825032230
         H            0.026749294715     2.146617025606     0.243456319919     1.007825032230
         H            0.026745294715    -2.146618974394     0.243457319919     1.007825032230
         H           -2.422070705285     2.151637025606    -0.177435680081     1.007825032230
         H           -2.422072705285    -2.151635974394    -0.177436680081     1.007825032230
         H           -3.652239705285     0.000003025606    -0.388835680081     1.007825032230

  Basis Set: AUG-CC-PVTZ
    Blend: AUG-CC-PVTZ
  Basis Set: (AUG-CC-PVTZ AUX)
    Blend: AUG-CC-PVTZ-JKFIT
	 Reference Energy          =    -346.7183190120406948 [Eh]
	 Singles Energy            =      -0.0000000000000000 [Eh]
	 Same-Spin Energy          =      -0.3872703409378873 [Eh]
	 Opposite-Spin Energy      =      -1.2546996051947774 [Eh]
	 Correlation Energy        =      -1.6419699461326647 [Eh]
	 Total Energy              =    -348.3602889581733848 [Eh]

	 ================> DF-SCS-MP2 Energies <==================
	-----------------------------------------------------------
	 SCS Same-Spin Scale       =       0.3333333333333333 [-]
	 SCS Opposite-Spin Scale   =       1.2000000000000000 [-]
	 SCS Same-Spin Energy      =      -0.1290901136459624 [Eh]
	 SCS Opposite-Spin Energy  =      -1.5056395262337328 [Eh]
	 SCS Correlation Energy    =      -1.6347296398796951 [Eh]
	 SCS Total Energy          =    -348.3530486519204032 [Eh]
	-----------------------------------------------------------

  Dipole Moment: [D]
     X:     0.2035      Y:    -0.0000      Z:     0.0626     Total:     0.2129

*** Psi4 exiting successfully. Buy a developer a beer!
