                               Psi4 1.3.2 release

  ==> Input File <==

--------------------------------------------------------------------------
#psi4
#
memory 32 gb

molecule  {
0 1
  C        1.6137384     0.0521070     0.5614223
  C        2.5582230    -0.7522490    -0.3397160
  C        2.5582240     0.7522500    -0.3397120
  C        0.1480820    -0.0000010     0.2808970
  C       -0.5548080     1.2061540     0.1589450
  C       -0.5548100    -1.2061550     0.1589460
  C       -1.9306470     1.2078790    -0.0767010
  C       -1.9306490    -1.2078780    -0.0767020
  C       -2.6220200     0.0000010    -0.1960300
  H        1.8787490    -0.0000050     1.6191980
  H        2.1259860    -1.2531880    -1.2001610
  H        3.4001610    -1.2700850     0.1085340
  H        3.4001670     1.2700790     0.1085380
  H        2.1259890     1.2531940    -1.2001560
  H       -0.0142320     2.1466170     0.2491570
  H       -0.0142360    -2.1466190     0.2491580
  H       -2.4630520     2.1516370    -0.1717350
  H       -2.4630540    -2.1516360    -0.1717360
  H       -3.6932210     0.0000030    -0.3831350
units angstrom
no_reorient  #important for SAPT in psi4, default
symmetry c1  #important for SAPT in psi4, default
}

set PROPERTIES_ORIGIN ["COM"]
properties('MP2/aug-cc-pvtz', properties = ['dipole'])
--------------------------------------------------------------------------

    Molecular point group: c1
  Charge       = 0
  Multiplicity = 1
  Basis Set: AUG-CC-PVTZ
    Blend: AUG-CC-PVTZ
  Basis Set: (AUG-CC-PVTZ AUX)
    Blend: AUG-CC-PVTZ-JKFIT

    Orbital Energies [Eh]
    ---------------------

    Doubly Occupied:

       1A    -11.240190     2A    -11.236149     3A    -11.234880
       4A    -11.234241     5A    -11.232141     6A    -11.231411
       7A    -11.230083     8A    -11.227708     9A    -11.225373
      10A     -1.165140    11A     -1.128269    12A     -1.012912
      13A     -1.010072    14A     -0.856475    15A     -0.835048
      16A     -0.809198    17A     -0.773870    18A     -0.699302
      19A     -0.664673    20A     -0.635756    21A     -0.620969
      22A     -0.607886    23A     -0.581916    24A     -0.541546
      25A     -0.514502    26A     -0.501111    27A     -0.493257
      28A     -0.482480    29A     -0.435529    30A     -0.408316
      31A     -0.333733    32A     -0.323734

  @DF-RHF Final Energy:  -346.71851973037627

   => Energetics <=

    Nuclear Repulsion Energy =            403.3765782632120818
    One-Electron Energy =               -1267.1344561381420135
    Two-Electron Energy =                 517.0393581445537166
    Total Energy =                       -346.7185197303762152
  Basis Set: (AUG-CC-PVTZ AUX)
    Blend: AUG-CC-PVTZ-RI
    Molecular point group: c1

    Geometry (in Angstrom), charge = 0, multiplicity = 1:

       Center              X                  Y                   Z               Mass
    ------------   -----------------  -----------------  -----------------  -----------------
         C            1.649809611796     0.046811418682     0.554836383225    12.000000000000
         C            2.594294211796    -0.757544581318    -0.346301916775    12.000000000000
         C            2.594295211796     0.746954418682    -0.346297916775    12.000000000000
         C            0.184153211796    -0.005296581318     0.274311083225    12.000000000000
         C           -0.518736788204     1.200858418682     0.152359083225    12.000000000000
         C           -0.518738788204    -1.211450581318     0.152360083225    12.000000000000
         C           -1.894575788204     1.202583418682    -0.083286916775    12.000000000000
         C           -1.894577788204    -1.213173581318    -0.083287916775    12.000000000000
         C           -2.585948788204    -0.005294581318    -0.202615916775    12.000000000000
         H            1.914820211796    -0.005300581318     1.612612083225     1.007825032230
         H            2.162057211796    -1.258483581318    -1.206746916775     1.007825032230
         H            3.436232211796    -1.275380581318     0.101948083225     1.007825032230
         H            3.436238211796     1.264783418682     0.101952083225     1.007825032230
         H            2.162060211796     1.247898418682    -1.206741916775     1.007825032230
         H            0.021839211796     2.141321418682     0.242571083225     1.007825032230
         H            0.021835211796    -2.151914581318     0.242572083225     1.007825032230
         H           -2.426980788204     2.146341418682    -0.178320916775     1.007825032230
         H           -2.426982788204    -2.156931581318    -0.178321916775     1.007825032230
         H           -3.657149788204    -0.005292581318    -0.389720916775     1.007825032230

  Basis Set: AUG-CC-PVTZ
    Blend: AUG-CC-PVTZ
  Basis Set: (AUG-CC-PVTZ AUX)
    Blend: AUG-CC-PVTZ-JKFIT
	 Reference Energy          =    -346.7185197303762720 [Eh]
	 Singles Energy            =      -0.0000000000000000 [Eh]
	 Same-Spin Energy          =      -0.3877525706653159 [Eh]
	 Opposite-Spin Energy      =      -1.2555285147090425 [Eh]
	 Correlation Energy        =      -1.6432810853743582 [Eh]
	 Total Energy              =    -348.3618008157506551 [Eh]

	 ================> DF-SCS-MP2 Energies <==================
	-----------------------------------------------------------
	 SCS Same-Spin Scale       =       0.3333333333333333 [-]
	 SCS Opposite-Spin Scale   =       1.2000000000000000 [-]
	 SCS Same-Spin Energy      =      -0.1292508568884386 [Eh]
	 SCS Opposite-Spin Energy  =      -1.5066342176508509 [Eh]
	 SCS Correlation Energy    =      -1.6358850745392894 [Eh]
	 SCS Total Energy          =    -348.3544048049155890 [Eh]
	-----------------------------------------------------------

  Dipole Moment: [D]
     X:     0.2787      Y:     0.0330      Z:     0.0623     Total:     0.2874

*** Psi4 exiting successfully. Buy a developer a beer!
