                               Psi4 1.3.2 release

  ==> Input File <==

--------------------------------------------------------------------------
#psi4
#
memory 32 gb

molecule  {
0 1
  C        1.6135330    -0.0521090     0.5624931
  C        2.5582230    -0.7522490    -0.3397160
  C        2.5582240     0.7522500    -0.3397120
  C        0.1480820    -0.0000010     0.2808970
  C       -0.5548080     1.2061540     0.1589450
  C       -0.5548100    -1.2061550     0.1589460
  C       -1.9306470     1.2078790    -0.0767010
  C       -1.9306490    -1.2078780    -0.0767020
  C       -2.6220200     0.0000010    -0.1960300
  H        1.8787490    -0.0000050     1.6191980
  H        2.1259860    -1.2531880    -1.2001610
  H        3.4001610    -1.2700850     0.1085340
  H        3.4001670     1.2700790     0.1085380
  H        2.1259890     1.2531940    -1.2001560
  H       -0.0142320     2.1466170     0.2491570
  H       -0.0142360    -2.1466190     0.2491580
  H       -2.4630520     2.1516370    -0.1717350
  H       -2.4630540    -2.1516360    -0.1717360
  H       -3.6932210     0.0000030    -0.3831350
units angstrom
no_reorient  #important for SAPT in psi4, default
symmetry c1  #important for SAPT in psi4, default
}

set PROPERTIES_ORIGIN ["COM"]
properties('MP2/aug-cc-pvtz', properties = ['dipole'])
--------------------------------------------------------------------------

    Molecular point group: c1
  Charge       = 0
  Multiplicity = 1
  Basis Set: AUG-CC-PVTZ
    Blend: AUG-CC-PVTZ
  Basis Set: (AUG-CC-PVTZ AUX)
    Blend: AUG-CC-PVTZ-JKFIT

    Orbital Energies [Eh]
    ---------------------

    Doubly Occupied:

       1A    -11.240175     2A    -11.236131     3A    -11.234871
       4A    -11.234233     5A    -11.232138     6A    -11.231401
       7A    -11.230075     8A    -11.227759     9A    -11.225421
      10A     -1.165018    11A     -1.128132    12A     -1.012881
      13A     -1.010064    14A     -0.856527    15A     -0.835004
      16A     -0.809171    17A     -0.773962    18A     -0.699312
      19A     -0.664625    20A     -0.635662    21A     -0.620958
      22A     -0.607882    23A     -0.581908    24A     -0.541685
      25A     -0.514497    26A     -0.501093    27A     -0.493240
      28A     -0.482590    29A     -0.435483    30A     -0.408145
      31A     -0.333724    32A     -0.323738

  @DF-RHF Final Energy:  -346.71852220364610

   => Energetics <=

    Nuclear Repulsion Energy =            403.3647431053295236
    One-Electron Energy =               -1267.1115183629276544
    Two-Electron Energy =                 517.0282530539519712
    Total Energy =                       -346.7185222036461028
  Basis Set: (AUG-CC-PVTZ AUX)
    Blend: AUG-CC-PVTZ-RI
    Molecular point group: c1

    Geometry (in Angstrom), charge = 0, multiplicity = 1:

       Center              X                  Y                   Z               Mass
    ------------   -----------------  -----------------  -----------------  -----------------
         C            1.649625086089    -0.046813367470     0.555798360474    12.000000000000
         C            2.594315086089    -0.746953367470    -0.346410739526    12.000000000000
         C            2.594316086089     0.757545632530    -0.346406739526    12.000000000000
         C            0.184174086089     0.005294632530     0.274202260474    12.000000000000
         C           -0.518715913911     1.211449632530     0.152250260474    12.000000000000
         C           -0.518717913911    -1.200859367470     0.152251260474    12.000000000000
         C           -1.894554913911     1.213174632530    -0.083395739526    12.000000000000
         C           -1.894556913911    -1.202582367470    -0.083396739526    12.000000000000
         C           -2.585927913911     0.005296632530    -0.202724739526    12.000000000000
         H            1.914841086089     0.005290632530     1.612503260474     1.007825032230
         H            2.162078086089    -1.247892367470    -1.206855739526     1.007825032230
         H            3.436253086089    -1.264789367470     0.101839260474     1.007825032230
         H            3.436259086089     1.275374632530     0.101843260474     1.007825032230
         H            2.162081086089     1.258489632530    -1.206850739526     1.007825032230
         H            0.021860086089     2.151912632530     0.242462260474     1.007825032230
         H            0.021856086089    -2.141323367470     0.242463260474     1.007825032230
         H           -2.426959913911     2.156932632530    -0.178429739526     1.007825032230
         H           -2.426961913911    -2.146340367470    -0.178430739526     1.007825032230
         H           -3.657128913911     0.005298632530    -0.389829739526     1.007825032230

  Basis Set: AUG-CC-PVTZ
    Blend: AUG-CC-PVTZ
  Basis Set: (AUG-CC-PVTZ AUX)
    Blend: AUG-CC-PVTZ-JKFIT
	 Reference Energy          =    -346.7185222036461028 [Eh]
	 Singles Energy            =      -0.0000000000000000 [Eh]
	 Same-Spin Energy          =      -0.3877501225208503 [Eh]
	 Opposite-Spin Energy      =      -1.2555348513451756 [Eh]
	 Correlation Energy        =      -1.6432849738660260 [Eh]
	 Total Energy              =    -348.3618071775121052 [Eh]

	 ================> DF-SCS-MP2 Energies <==================
	-----------------------------------------------------------
	 SCS Same-Spin Scale       =       0.3333333333333333 [-]
	 SCS Opposite-Spin Scale   =       1.2000000000000000 [-]
	 SCS Same-Spin Energy      =      -0.1292500408402834 [Eh]
	 SCS Opposite-Spin Energy  =      -1.5066418216142108 [Eh]
	 SCS Correlation Energy    =      -1.6358918624544942 [Eh]
	 SCS Total Energy          =    -348.3544140661006168 [Eh]
	-----------------------------------------------------------

  Dipole Moment: [D]
     X:     0.2790      Y:    -0.0329      Z:     0.0622     Total:     0.2877

*** Psi4 exiting successfully. Buy a developer a beer!
