                               Psi4 1.4a3.dev225

  ==> Input File <==

--------------------------------------------------------------------------
#psi4
#
memory 32 gb

molecule  {
0 1
  C        1.6145290    -0.0000010     0.5621290
  C        2.5582230    -0.7522490    -0.3397160
  C        2.5582240     0.7522500    -0.3397120
  C        0.1284399    -0.0000010     0.2771301
  C       -0.5548080     1.2061540     0.1589450
  C       -0.5548100    -1.2061550     0.1589460
  C       -1.9306470     1.2078790    -0.0767010
  C       -1.9306490    -1.2078780    -0.0767020
  C       -2.6220200     0.0000010    -0.1960300
  H        1.8787490    -0.0000050     1.6191980
  H        2.1259860    -1.2531880    -1.2001610
  H        3.4001610    -1.2700850     0.1085340
  H        3.4001670     1.2700790     0.1085380
  H        2.1259890     1.2531940    -1.2001560
  H       -0.0142320     2.1466170     0.2491570
  H       -0.0142360    -2.1466190     0.2491580
  H       -2.4630520     2.1516370    -0.1717350
  H       -2.4630540    -2.1516360    -0.1717360
  H       -3.6932210     0.0000030    -0.3831350
units angstrom
no_reorient  #important for SAPT in psi4, default
symmetry c1  #important for SAPT in psi4, default
}

set PROPERTIES_ORIGIN ["COM"]
properties('MP2/aug-cc-pvtz', properties = ['dipole'])
--------------------------------------------------------------------------

    Molecular point group: c1
  Charge       = 0
  Multiplicity = 1
  Basis Set: AUG-CC-PVTZ
    Blend: AUG-CC-PVTZ
  Basis Set: (AUG-CC-PVTZ AUX)
    Blend: AUG-CC-PVTZ-JKFIT

    Orbital Energies [Eh]
    ---------------------

    Doubly Occupied:

       1A    -11.238955     2A    -11.236072     3A    -11.234752
       4A    -11.234486     5A    -11.231950     6A    -11.229782
       7A    -11.229689     8A    -11.226289     9A    -11.225633
      10A     -1.164862    11A     -1.128591    12A     -1.013107
      13A     -1.011249    14A     -0.853124    15A     -0.835215
      16A     -0.809731    17A     -0.774381    18A     -0.699538
      19A     -0.663521    20A     -0.634400    21A     -0.621916
      22A     -0.607972    23A     -0.583288    24A     -0.541240
      25A     -0.514004    26A     -0.502138    27A     -0.494892
      28A     -0.479171    29A     -0.427113    30A     -0.415786
      31A     -0.334116    32A     -0.325656

  @DF-RHF Final Energy:  -346.72010776914425

   => Energetics <=

    Nuclear Repulsion Energy =            403.4563268326294860
    One-Electron Energy =               -1267.3076302375588966
    Two-Electron Energy =                 517.1311956357851614
    Total Energy =                       -346.7201077691443061
  Basis Set: (AUG-CC-PVTZ AUX)
    Blend: AUG-CC-PVTZ-RI
    Molecular point group: c1

    Geometry (in Angstrom), charge = 0, multiplicity = 1:

       Center              X                  Y                   Z               Mass
    ------------   -----------------  -----------------  -----------------  -----------------
         C            1.652516043030    -0.000000974394     0.555854083768    12.000000000000
         C            2.596210043030    -0.752248974394    -0.345990916232    12.000000000000
         C            2.596211043030     0.752250025606    -0.345986916232    12.000000000000
         C            0.166426943030    -0.000000974394     0.270855183768    12.000000000000
         C           -0.516820956970     1.206154025606     0.152670083768    12.000000000000
         C           -0.516822956970    -1.206154974394     0.152671083768    12.000000000000
         C           -1.892659956970     1.207879025606    -0.082975916232    12.000000000000
         C           -1.892661956970    -1.207877974394    -0.082976916232    12.000000000000
         C           -2.584032956970     0.000001025606    -0.202304916232    12.000000000000
         H            1.916736043030    -0.000004974394     1.612923083768     1.007825032230
         H            2.163973043030    -1.253187974394    -1.206435916232     1.007825032230
         H            3.438148043030    -1.270084974394     0.102259083768     1.007825032230
         H            3.438154043030     1.270079025606     0.102263083768     1.007825032230
         H            2.163976043030     1.253194025606    -1.206430916232     1.007825032230
         H            0.023755043030     2.146617025606     0.242882083768     1.007825032230
         H            0.023751043030    -2.146618974394     0.242883083768     1.007825032230
         H           -2.425064956970     2.151637025606    -0.178009916232     1.007825032230
         H           -2.425066956970    -2.151635974394    -0.178010916232     1.007825032230
         H           -3.655233956970     0.000003025606    -0.389409916232     1.007825032230

  Basis Set: AUG-CC-PVTZ
    Blend: AUG-CC-PVTZ
  Basis Set: (AUG-CC-PVTZ AUX)
    Blend: AUG-CC-PVTZ-JKFIT
	 Reference Energy          =    -346.7201077691442492 [Eh]
	 Singles Energy            =      -0.0000000000000000 [Eh]
	 Same-Spin Energy          =      -0.3874692458640879 [Eh]
	 Opposite-Spin Energy      =      -1.2550243235453851 [Eh]
	 Correlation Energy        =      -1.6424935694094729 [Eh]
	 Total Energy              =    -348.3626013385537021 [Eh]

	 ================> DF-SCS-MP2 Energies <==================
	-----------------------------------------------------------
	 SCS Same-Spin Scale       =       0.3333333333333333 [-]
	 SCS Opposite-Spin Scale   =       1.2000000000000000 [-]
	 SCS Same-Spin Energy      =      -0.1291564152880293 [Eh]
	 SCS Opposite-Spin Energy  =      -1.5060291882544621 [Eh]
	 SCS Correlation Energy    =      -1.6351856035424914 [Eh]
	 SCS Total Energy          =    -348.3552933726867309 [Eh]
	-----------------------------------------------------------

  Dipole Moment: [D]
     X:     0.2501      Y:    -0.0000      Z:     0.0628     Total:     0.2579

*** Psi4 exiting successfully. Buy a developer a beer!
