                               Psi4 1.3.2 release

  ==> Input File <==

--------------------------------------------------------------------------
#psi4
#
memory 32 gb

molecule  {
0 1
  C        1.6143570     0.0260570     0.5618184
  C        2.5582230    -0.7522490    -0.3397160
  C        2.5582240     0.7522500    -0.3397120
  C        0.1480820    -0.0000010     0.2808970
  C       -0.5548080     1.2061540     0.1589450
  C       -0.5548100    -1.2061550     0.1589460
  C       -1.9306470     1.2078790    -0.0767010
  C       -1.9306490    -1.2078780    -0.0767020
  C       -2.6220200     0.0000010    -0.1960300
  H        1.8787490    -0.0000050     1.6191980
  H        2.1259860    -1.2531880    -1.2001610
  H        3.4001610    -1.2700850     0.1085340
  H        3.4001670     1.2700790     0.1085380
  H        2.1259890     1.2531940    -1.2001560
  H       -0.0142320     2.1466170     0.2491570
  H       -0.0142360    -2.1466190     0.2491580
  H       -2.4630520     2.1516370    -0.1717350
  H       -2.4630540    -2.1516360    -0.1717360
  H       -3.6932210     0.0000030    -0.3831350
units angstrom
no_reorient  #important for SAPT in psi4, default
symmetry c1  #important for SAPT in psi4, default
}

set PROPERTIES_ORIGIN ["COM"]
properties('MP2/aug-cc-pvtz', properties = ['dipole'])
--------------------------------------------------------------------------

    Molecular point group: c1
  Charge       = 0
  Multiplicity = 1
  Basis Set: AUG-CC-PVTZ
    Blend: AUG-CC-PVTZ
  Basis Set: (AUG-CC-PVTZ AUX)
    Blend: AUG-CC-PVTZ-JKFIT

    Orbital Energies [Eh]
    ---------------------

    Doubly Occupied:

       1A    -11.240073     2A    -11.235781     3A    -11.234735
       4A    -11.234327     5A    -11.232116     6A    -11.231049
       7A    -11.230378     8A    -11.227149     9A    -11.225847
      10A     -1.165068    11A     -1.128230    12A     -1.012811
      13A     -1.010067    14A     -0.856400    15A     -0.835029
      16A     -0.809107    17A     -0.773982    18A     -0.699312
      19A     -0.664678    20A     -0.635768    21A     -0.620907
      22A     -0.607967    23A     -0.581885    24A     -0.541668
      25A     -0.514484    26A     -0.501004    27A     -0.493173
      28A     -0.482725    29A     -0.430771    30A     -0.413128
      31A     -0.333702    32A     -0.323836

  @DF-RHF Final Energy:  -346.71967207900587

   => Energetics <=

    Nuclear Repulsion Energy =            403.3808872990636019
    One-Electron Energy =               -1267.1468035666594005
    Two-Electron Energy =                 517.0462441885899807
    Total Energy =                       -346.7196720790058180
  Basis Set: (AUG-CC-PVTZ AUX)
    Blend: AUG-CC-PVTZ-RI
    Molecular point group: c1

    Geometry (in Angstrom), charge = 0, multiplicity = 1:

       Center              X                  Y                   Z               Mass
    ------------   -----------------  -----------------  -----------------  -----------------
         C            1.650365345011     0.023408815634     0.555192228563    12.000000000000
         C            2.594231345011    -0.754897184366    -0.346342171437    12.000000000000
         C            2.594232345011     0.749601815634    -0.346338171437    12.000000000000
         C            0.184090345011    -0.002649184366     0.274270828563    12.000000000000
         C           -0.518799654989     1.203505815634     0.152318828563    12.000000000000
         C           -0.518801654989    -1.208803184366     0.152319828563    12.000000000000
         C           -1.894638654989     1.205230815634    -0.083327171437    12.000000000000
         C           -1.894640654989    -1.210526184366    -0.083328171437    12.000000000000
         C           -2.586011654989    -0.002647184366    -0.202656171437    12.000000000000
         H            1.914757345011    -0.002653184366     1.612571828563     1.007825032230
         H            2.161994345011    -1.255836184366    -1.206787171437     1.007825032230
         H            3.436169345011    -1.272733184366     0.101907828563     1.007825032230
         H            3.436175345011     1.267430815634     0.101911828563     1.007825032230
         H            2.161997345011     1.250545815634    -1.206782171437     1.007825032230
         H            0.021776345011     2.143968815634     0.242530828563     1.007825032230
         H            0.021772345011    -2.149267184366     0.242531828563     1.007825032230
         H           -2.427043654989     2.148988815634    -0.178361171437     1.007825032230
         H           -2.427045654989    -2.154284184366    -0.178362171437     1.007825032230
         H           -3.657212654989    -0.002645184366    -0.389761171437     1.007825032230

  Basis Set: AUG-CC-PVTZ
    Blend: AUG-CC-PVTZ
  Basis Set: (AUG-CC-PVTZ AUX)
    Blend: AUG-CC-PVTZ-JKFIT
	 Reference Energy          =    -346.7196720790058748 [Eh]
	 Singles Energy            =      -0.0000000000000000 [Eh]
	 Same-Spin Energy          =      -0.3876846472713154 [Eh]
	 Opposite-Spin Energy      =      -1.2553888442046433 [Eh]
	 Correlation Energy        =      -1.6430734914759586 [Eh]
	 Total Energy              =    -348.3627455704818203 [Eh]

	 ================> DF-SCS-MP2 Energies <==================
	-----------------------------------------------------------
	 SCS Same-Spin Scale       =       0.3333333333333333 [-]
	 SCS Opposite-Spin Scale   =       1.2000000000000000 [-]
	 SCS Same-Spin Energy      =      -0.1292282157571051 [Eh]
	 SCS Opposite-Spin Energy  =      -1.5064666130455719 [Eh]
	 SCS Correlation Energy    =      -1.6356948288026771 [Eh]
	 SCS Total Energy          =    -348.3553669078085591 [Eh]
	-----------------------------------------------------------

  Dipole Moment: [D]
     X:     0.2809      Y:     0.0166      Z:     0.0627     Total:     0.2883

*** Psi4 exiting successfully. Buy a developer a beer!
