                               Psi4 1.3.2 release

  ==> Input File <==

--------------------------------------------------------------------------
#psi4
#
memory 32 gb

molecule  {
0 1
  C        1.6068032     0.1560693     0.5589849
  C        2.5582230    -0.7522490    -0.3397160
  C        2.5582240     0.7522500    -0.3397120
  C        0.1480820    -0.0000010     0.2808970
  C       -0.5548080     1.2061540     0.1589450
  C       -0.5548100    -1.2061550     0.1589460
  C       -1.9306470     1.2078790    -0.0767010
  C       -1.9306490    -1.2078780    -0.0767020
  C       -2.6220200     0.0000010    -0.1960300
  H        1.8787490    -0.0000050     1.6191980
  H        2.1259860    -1.2531880    -1.2001610
  H        3.4001610    -1.2700850     0.1085340
  H        3.4001670     1.2700790     0.1085380
  H        2.1259890     1.2531940    -1.2001560
  H       -0.0142320     2.1466170     0.2491570
  H       -0.0142360    -2.1466190     0.2491580
  H       -2.4630520     2.1516370    -0.1717350
  H       -2.4630540    -2.1516360    -0.1717360
  H       -3.6932210     0.0000030    -0.3831350
units angstrom
no_reorient  #important for SAPT in psi4, default
symmetry c1  #important for SAPT in psi4, default
}

set PROPERTIES_ORIGIN ["COM"]
properties('MP2/aug-cc-pvtz', properties = ['dipole'])
--------------------------------------------------------------------------

    Molecular point group: c1
  Charge       = 0
  Multiplicity = 1
  Basis Set: AUG-CC-PVTZ
    Blend: AUG-CC-PVTZ
  Basis Set: (AUG-CC-PVTZ AUX)
    Blend: AUG-CC-PVTZ-JKFIT

    Orbital Energies [Eh]
    ---------------------

    Doubly Occupied:

       1A    -11.241401     2A    -11.239872     3A    -11.235710
       4A    -11.233999     5A    -11.233100     6A    -11.232299
       7A    -11.230331     8A    -11.229136     9A    -11.223856
      10A     -1.165668    11A     -1.128416    12A     -1.013868
      13A     -1.010154    14A     -0.857376    15A     -0.835165
      16A     -0.810115    17A     -0.772836    18A     -0.699192
      19A     -0.664545    20A     -0.635476    21A     -0.621583
      22A     -0.606960    23A     -0.582229    24A     -0.540500
      25A     -0.514716    26A     -0.502273    27A     -0.493890
      28A     -0.480464    29A     -0.456640    30A     -0.386150
      31A     -0.334033    32A     -0.322514

  @DF-RHF Final Energy:  -346.70642946712303

   => Energetics <=

    Nuclear Repulsion Energy =            403.3108103470017340
    One-Electron Energy =               -1266.9655463920312286
    Two-Electron Energy =                 516.9483065779064646
    Total Energy =                       -346.7064294671230300
  Basis Set: (AUG-CC-PVTZ AUX)
    Blend: AUG-CC-PVTZ-RI
    Molecular point group: c1

    Geometry (in Angstrom), charge = 0, multiplicity = 1:

       Center              X                  Y                   Z               Mass
    ------------   -----------------  -----------------  -----------------  -----------------
         C            1.643579218988     0.140208287736     0.552646690147    12.000000000000
         C            2.594999018988    -0.768110012264    -0.346054209853    12.000000000000
         C            2.595000018988     0.736388987736    -0.346050209853    12.000000000000
         C            0.184858018988    -0.015862012264     0.274558790147    12.000000000000
         C           -0.518031981012     1.190292987736     0.152606790147    12.000000000000
         C           -0.518033981012    -1.222016012264     0.152607790147    12.000000000000
         C           -1.893870981012     1.192017987736    -0.083039209853    12.000000000000
         C           -1.893872981012    -1.223739012264    -0.083040209853    12.000000000000
         C           -2.585243981012    -0.015860012264    -0.202368209853    12.000000000000
         H            1.915525018988    -0.015866012264     1.612859790147     1.007825032230
         H            2.162762018988    -1.269049012264    -1.206499209853     1.007825032230
         H            3.436937018988    -1.285946012264     0.102195790147     1.007825032230
         H            3.436943018988     1.254217987736     0.102199790147     1.007825032230
         H            2.162765018988     1.237332987736    -1.206494209853     1.007825032230
         H            0.022544018988     2.130755987736     0.242818790147     1.007825032230
         H            0.022540018988    -2.162480012264     0.242819790147     1.007825032230
         H           -2.426275981012     2.135775987736    -0.178073209853     1.007825032230
         H           -2.426277981012    -2.167497012264    -0.178074209853     1.007825032230
         H           -3.656444981012    -0.015858012264    -0.389473209853     1.007825032230

  Basis Set: AUG-CC-PVTZ
    Blend: AUG-CC-PVTZ
  Basis Set: (AUG-CC-PVTZ AUX)
    Blend: AUG-CC-PVTZ-JKFIT
	 Reference Energy          =    -346.7064294671230300 [Eh]
	 Singles Energy            =      -0.0000000000000000 [Eh]
	 Same-Spin Energy          =      -0.3884641658980822 [Eh]
	 Opposite-Spin Energy      =      -1.2570215349134328 [Eh]
	 Correlation Energy        =      -1.6454857008115149 [Eh]
	 Total Energy              =    -348.3519151679345214 [Eh]

	 ================> DF-SCS-MP2 Energies <==================
	-----------------------------------------------------------
	 SCS Same-Spin Scale       =       0.3333333333333333 [-]
	 SCS Opposite-Spin Scale   =       1.2000000000000000 [-]
	 SCS Same-Spin Energy      =      -0.1294880552993607 [Eh]
	 SCS Opposite-Spin Energy  =      -1.5084258418961194 [Eh]
	 SCS Correlation Energy    =      -1.6379138971954801 [Eh]
	 SCS Total Energy          =    -348.3443433643184903 [Eh]
	-----------------------------------------------------------

  Dipole Moment: [D]
     X:     0.2576      Y:     0.0935      Z:     0.0552     Total:     0.2796

*** Psi4 exiting successfully. Buy a developer a beer!
