                               Psi4 1.3.2 release

  ==> Input File <==

--------------------------------------------------------------------------
#psi4
#
memory 32 gb

molecule  {
0 1
  C        1.6145290    -0.0000010     0.5621290
  C        2.5582230    -0.7522490    -0.3397160
  C        2.5582240     0.7522500    -0.3397120
  C        0.1391605    -0.0000012     0.3322466
  C       -0.5548080     1.2061540     0.1589450
  C       -0.5548100    -1.2061550     0.1589460
  C       -1.9306470     1.2078790    -0.0767010
  C       -1.9306490    -1.2078780    -0.0767020
  C       -2.6220200     0.0000010    -0.1960300
  H        1.8787490    -0.0000050     1.6191980
  H        2.1259860    -1.2531880    -1.2001610
  H        3.4001610    -1.2700850     0.1085340
  H        3.4001670     1.2700790     0.1085380
  H        2.1259890     1.2531940    -1.2001560
  H       -0.0142320     2.1466170     0.2491570
  H       -0.0142360    -2.1466190     0.2491580
  H       -2.4630520     2.1516370    -0.1717350
  H       -2.4630540    -2.1516360    -0.1717360
  H       -3.6932210     0.0000030    -0.3831350
units angstrom
no_reorient  #important for SAPT in psi4, default
symmetry c1  #important for SAPT in psi4, default
}

set PROPERTIES_ORIGIN ["COM"]
properties('MP2/aug-cc-pvtz', properties = ['dipole'])
--------------------------------------------------------------------------

    Molecular point group: c1
  Charge       = 0
  Multiplicity = 1
  Basis Set: AUG-CC-PVTZ
    Blend: AUG-CC-PVTZ
  Basis Set: (AUG-CC-PVTZ AUX)
    Blend: AUG-CC-PVTZ-JKFIT

    Orbital Energies [Eh]
    ---------------------

    Doubly Occupied:

       1A    -11.240462     2A    -11.235513     3A    -11.234582
       4A    -11.234295     5A    -11.231997     6A    -11.230859
       7A    -11.230768     8A    -11.227436     9A    -11.226785
      10A     -1.164528    11A     -1.128080    12A     -1.013011
      13A     -1.009952    14A     -0.857332    15A     -0.834853
      16A     -0.809242    17A     -0.773898    18A     -0.698596
      19A     -0.663952    20A     -0.637080    21A     -0.620611
      22A     -0.608229    23A     -0.581805    24A     -0.540871
      25A     -0.514776    26A     -0.501567    27A     -0.493025
      28A     -0.480303    29A     -0.430267    30A     -0.415540
      31A     -0.333506    32A     -0.323559

  @DF-RHF Final Energy:  -346.71909313290979

   => Energetics <=

    Nuclear Repulsion Energy =            403.2214579823625513
    One-Electron Energy =               -1266.8265419266576828
    Two-Electron Energy =                 516.8859908113852271
    Total Energy =                       -346.7190931329098476
  Basis Set: (AUG-CC-PVTZ AUX)
    Blend: AUG-CC-PVTZ-RI
    Molecular point group: c1

    Geometry (in Angstrom), charge = 0, multiplicity = 1:

       Center              X                  Y                   Z               Mass
    ------------   -----------------  -----------------  -----------------  -----------------
         C            1.651426535016    -0.000000954069     0.550252730443    12.000000000000
         C            2.595120535016    -0.752248954069    -0.351592269557    12.000000000000
         C            2.595121535016     0.752250045931    -0.351588269557    12.000000000000
         C            0.176058035016    -0.000001154069     0.320370330443    12.000000000000
         C           -0.517910464984     1.206154045931     0.147068730443    12.000000000000
         C           -0.517912464984    -1.206154954069     0.147069730443    12.000000000000
         C           -1.893749464984     1.207879045931    -0.088577269557    12.000000000000
         C           -1.893751464984    -1.207877954069    -0.088578269557    12.000000000000
         C           -2.585122464984     0.000001045931    -0.207906269557    12.000000000000
         H            1.915646535016    -0.000004954069     1.607321730443     1.007825032230
         H            2.162883535016    -1.253187954069    -1.212037269557     1.007825032230
         H            3.437058535016    -1.270084954069     0.096657730443     1.007825032230
         H            3.437064535016     1.270079045931     0.096661730443     1.007825032230
         H            2.162886535016     1.253194045931    -1.212032269557     1.007825032230
         H            0.022665535016     2.146617045931     0.237280730443     1.007825032230
         H            0.022661535016    -2.146618954069     0.237281730443     1.007825032230
         H           -2.426154464984     2.151637045931    -0.183611269557     1.007825032230
         H           -2.426156464984    -2.151635954069    -0.183612269557     1.007825032230
         H           -3.656323464984     0.000003045931    -0.395011269557     1.007825032230

  Basis Set: AUG-CC-PVTZ
    Blend: AUG-CC-PVTZ
  Basis Set: (AUG-CC-PVTZ AUX)
    Blend: AUG-CC-PVTZ-JKFIT
	 Reference Energy          =    -346.7190931329097907 [Eh]
	 Singles Energy            =      -0.0000000000000000 [Eh]
	 Same-Spin Energy          =      -0.3876268079027861 [Eh]
	 Opposite-Spin Energy      =      -1.2553386671762605 [Eh]
	 Correlation Energy        =      -1.6429654750790466 [Eh]
	 Total Energy              =    -348.3620586079888426 [Eh]

	 ================> DF-SCS-MP2 Energies <==================
	-----------------------------------------------------------
	 SCS Same-Spin Scale       =       0.3333333333333333 [-]
	 SCS Opposite-Spin Scale   =       1.2000000000000000 [-]
	 SCS Same-Spin Energy      =      -0.1292089359675954 [Eh]
	 SCS Opposite-Spin Energy  =      -1.5064064006115125 [Eh]
	 SCS Correlation Energy    =      -1.6356153365791080 [Eh]
	 SCS Total Energy          =    -348.3547084694889122 [Eh]
	-----------------------------------------------------------

  Dipole Moment: [D]
     X:     0.3026      Y:    -0.0000      Z:     0.0340     Total:     0.3045

*** Psi4 exiting successfully. Buy a developer a beer!
