                               Psi4 1.3.2 release

  ==> Input File <==

--------------------------------------------------------------------------
#psi4
#
memory 32 gb

molecule  {
0 1
  C        1.6145290    -0.0000010     0.5621290
  C        2.5582230    -0.7522490    -0.3397160
  C        2.5582240     0.7522500    -0.3397120
  C        0.1433972    -0.0000011     0.3065329
  C       -0.5548080     1.2061540     0.1589450
  C       -0.5548100    -1.2061550     0.1589460
  C       -1.9306470     1.2078790    -0.0767010
  C       -1.9306490    -1.2078780    -0.0767020
  C       -2.6220200     0.0000010    -0.1960300
  H        1.8787490    -0.0000050     1.6191980
  H        2.1259860    -1.2531880    -1.2001610
  H        3.4001610    -1.2700850     0.1085340
  H        3.4001670     1.2700790     0.1085380
  H        2.1259890     1.2531940    -1.2001560
  H       -0.0142320     2.1466170     0.2491570
  H       -0.0142360    -2.1466190     0.2491580
  H       -2.4630520     2.1516370    -0.1717350
  H       -2.4630540    -2.1516360    -0.1717360
  H       -3.6932210     0.0000030    -0.3831350
units angstrom
no_reorient  #important for SAPT in psi4, default
symmetry c1  #important for SAPT in psi4, default
}

set PROPERTIES_ORIGIN ["COM"]
properties('MP2/aug-cc-pvtz', properties = ['dipole'])
--------------------------------------------------------------------------

    Molecular point group: c1
  Charge       = 0
  Multiplicity = 1
  Basis Set: AUG-CC-PVTZ
    Blend: AUG-CC-PVTZ
  Basis Set: (AUG-CC-PVTZ AUX)
    Blend: AUG-CC-PVTZ-JKFIT

    Orbital Energies [Eh]
    ---------------------

    Doubly Occupied:

       1A    -11.240182     2A    -11.235585     3A    -11.234624
       4A    -11.234338     5A    -11.232017     6A    -11.230732
       7A    -11.230642     8A    -11.227136     9A    -11.226483
      10A     -1.164804    11A     -1.128153    12A     -1.012926
      13A     -1.010024    14A     -0.856849    15A     -0.834963
      16A     -0.809188    17A     -0.773990    18A     -0.698965
      19A     -0.664302    20A     -0.636414    21A     -0.620806
      22A     -0.608124    23A     -0.581853    24A     -0.541315
      25A     -0.514632    26A     -0.501292    27A     -0.493119
      28A     -0.481597    29A     -0.429358    30A     -0.415518
      31A     -0.333630    32A     -0.323733

  @DF-RHF Final Energy:  -346.71984523370969

   => Energetics <=

    Nuclear Repulsion Energy =            403.3102782932784862
    One-Electron Energy =               -1267.0056588054874283
    Two-Electron Energy =                 516.9755352784992510
    Total Energy =                       -346.7198452337096342
  Basis Set: (AUG-CC-PVTZ AUX)
    Blend: AUG-CC-PVTZ-RI
    Molecular point group: c1

    Geometry (in Angstrom), charge = 0, multiplicity = 1:

       Center              X                  Y                   Z               Mass
    ------------   -----------------  -----------------  -----------------  -----------------
         C            1.650995969693    -0.000000964232     0.552865950060    12.000000000000
         C            2.594689969693    -0.752248964232    -0.348979049940    12.000000000000
         C            2.594690969693     0.752250035768    -0.348975049940    12.000000000000
         C            0.179864169693    -0.000001064232     0.297269850060    12.000000000000
         C           -0.518341030307     1.206154035768     0.149681950060    12.000000000000
         C           -0.518343030307    -1.206154964232     0.149682950060    12.000000000000
         C           -1.894180030307     1.207879035768    -0.085964049940    12.000000000000
         C           -1.894182030307    -1.207877964232    -0.085965049940    12.000000000000
         C           -2.585553030307     0.000001035768    -0.205293049940    12.000000000000
         H            1.915215969693    -0.000004964232     1.609934950060     1.007825032230
         H            2.162452969693    -1.253187964232    -1.209424049940     1.007825032230
         H            3.436627969693    -1.270084964232     0.099270950060     1.007825032230
         H            3.436633969693     1.270079035768     0.099274950060     1.007825032230
         H            2.162455969693     1.253194035768    -1.209419049940     1.007825032230
         H            0.022234969693     2.146617035768     0.239893950060     1.007825032230
         H            0.022230969693    -2.146618964232     0.239894950060     1.007825032230
         H           -2.426585030307     2.151637035768    -0.180998049940     1.007825032230
         H           -2.426587030307    -2.151635964232    -0.180999049940     1.007825032230
         H           -3.656754030307     0.000003035768    -0.392398049940     1.007825032230

  Basis Set: AUG-CC-PVTZ
    Blend: AUG-CC-PVTZ
  Basis Set: (AUG-CC-PVTZ AUX)
    Blend: AUG-CC-PVTZ-JKFIT
	 Reference Energy          =    -346.7198452337096910 [Eh]
	 Singles Energy            =      -0.0000000000000000 [Eh]
	 Same-Spin Energy          =      -0.3876296496473011 [Eh]
	 Opposite-Spin Energy      =      -1.2553046441627487 [Eh]
	 Correlation Energy        =      -1.6429342938100497 [Eh]
	 Total Energy              =    -348.3627795275197627 [Eh]

	 ================> DF-SCS-MP2 Energies <==================
	-----------------------------------------------------------
	 SCS Same-Spin Scale       =       0.3333333333333333 [-]
	 SCS Opposite-Spin Scale   =       1.2000000000000000 [-]
	 SCS Same-Spin Energy      =      -0.1292098832157670 [Eh]
	 SCS Opposite-Spin Energy  =      -1.5063655729952983 [Eh]
	 SCS Correlation Energy    =      -1.6355754562110654 [Eh]
	 SCS Total Energy          =    -348.3554206899207770 [Eh]
	-----------------------------------------------------------

  Dipole Moment: [D]
     X:     0.2935      Y:    -0.0000      Z:     0.0485     Total:     0.2975

*** Psi4 exiting successfully. Buy a developer a beer!
