                               Psi4 1.3.2 release

  ==> Input File <==

--------------------------------------------------------------------------
#psi4
#
memory 32 gb

molecule  {
0 1
  C        1.6145290    -0.0000010     0.5621290
  C        2.5582230    -0.7522490    -0.3397160
  C        2.5582240     0.7522500    -0.3397120
  C        0.0498717    -0.0000010     0.2620624
  C       -0.5548080     1.2061540     0.1589450
  C       -0.5548100    -1.2061550     0.1589460
  C       -1.9306470     1.2078790    -0.0767010
  C       -1.9306490    -1.2078780    -0.0767020
  C       -2.6220200     0.0000010    -0.1960300
  H        1.8787490    -0.0000050     1.6191980
  H        2.1259860    -1.2531880    -1.2001610
  H        3.4001610    -1.2700850     0.1085340
  H        3.4001670     1.2700790     0.1085380
  H        2.1259890     1.2531940    -1.2001560
  H       -0.0142320     2.1466170     0.2491570
  H       -0.0142360    -2.1466190     0.2491580
  H       -2.4630520     2.1516370    -0.1717350
  H       -2.4630540    -2.1516360    -0.1717360
  H       -3.6932210     0.0000030    -0.3831350
units angstrom
no_reorient  #important for SAPT in psi4, default
symmetry c1  #important for SAPT in psi4, default
}

set PROPERTIES_ORIGIN ["COM"]
properties('MP2/aug-cc-pvtz', properties = ['dipole'])
--------------------------------------------------------------------------

    Molecular point group: c1
  Charge       = 0
  Multiplicity = 1
  Basis Set: AUG-CC-PVTZ
    Blend: AUG-CC-PVTZ
  Basis Set: (AUG-CC-PVTZ AUX)
    Blend: AUG-CC-PVTZ-JKFIT

    Orbital Energies [Eh]
    ---------------------

    Doubly Occupied:

       1A    -11.236950     2A    -11.235358     3A    -11.235176
       4A    -11.235160     5A    -11.231307     6A    -11.226246
       7A    -11.226113     8A    -11.224244     9A    -11.223583
      10A     -1.167179    11A     -1.128802    12A     -1.016750
      13A     -1.014447    14A     -0.841381    15A     -0.836865
      16A     -0.811575    17A     -0.775352    18A     -0.700968
      19A     -0.659137    20A     -0.630054    21A     -0.627389
      22A     -0.606760    23A     -0.588665    24A     -0.539831
      25A     -0.512157    26A     -0.508216    27A     -0.501913
      28A     -0.462578    29A     -0.420503    30A     -0.415596
      31A     -0.336060    32A     -0.332185

  @DF-RHF Final Energy:  -346.71065131237037

   => Energetics <=

    Nuclear Repulsion Energy =            403.8183648925219700
    One-Electron Energy =               -1268.0410371273985675
    Two-Electron Energy =                 517.5120209225062808
    Total Energy =                       -346.7106513123703735
  Basis Set: (AUG-CC-PVTZ AUX)
    Blend: AUG-CC-PVTZ-RI
    Molecular point group: c1

    Geometry (in Angstrom), charge = 0, multiplicity = 1:

       Center              X                  Y                   Z               Mass
    ------------   -----------------  -----------------  -----------------  -----------------
         C            1.660500734516    -0.000000974394     0.557385376783    12.000000000000
         C            2.604194734516    -0.752248974394    -0.344459623217    12.000000000000
         C            2.604195734516     0.752250025606    -0.344455623217    12.000000000000
         C            0.095843434516    -0.000000974394     0.257318776783    12.000000000000
         C           -0.508836265484     1.206154025606     0.154201376783    12.000000000000
         C           -0.508838265484    -1.206154974394     0.154202376783    12.000000000000
         C           -1.884675265484     1.207879025606    -0.081444623217    12.000000000000
         C           -1.884677265484    -1.207877974394    -0.081445623217    12.000000000000
         C           -2.576048265484     0.000001025606    -0.200773623217    12.000000000000
         H            1.924720734516    -0.000004974394     1.614454376783     1.007825032230
         H            2.171957734516    -1.253187974394    -1.204904623217     1.007825032230
         H            3.446132734516    -1.270084974394     0.103790376783     1.007825032230
         H            3.446138734516     1.270079025606     0.103794376783     1.007825032230
         H            2.171960734516     1.253194025606    -1.204899623217     1.007825032230
         H            0.031739734516     2.146617025606     0.244413376783     1.007825032230
         H            0.031735734516    -2.146618974394     0.244414376783     1.007825032230
         H           -2.417080265484     2.151637025606    -0.176478623217     1.007825032230
         H           -2.417082265484    -2.151635974394    -0.176479623217     1.007825032230
         H           -3.647249265484     0.000003025606    -0.387878623217     1.007825032230

  Basis Set: AUG-CC-PVTZ
    Blend: AUG-CC-PVTZ
  Basis Set: (AUG-CC-PVTZ AUX)
    Blend: AUG-CC-PVTZ-JKFIT
	 Reference Energy          =    -346.7106513123703735 [Eh]
	 Singles Energy            =      -0.0000000000000000 [Eh]
	 Same-Spin Energy          =      -0.3871712142412326 [Eh]
	 Opposite-Spin Energy      =      -1.2545575612448019 [Eh]
	 Correlation Energy        =      -1.6417287754860346 [Eh]
	 Total Energy              =    -348.3523800878564316 [Eh]

	 ================> DF-SCS-MP2 Energies <==================
	-----------------------------------------------------------
	 SCS Same-Spin Scale       =       0.3333333333333333 [-]
	 SCS Opposite-Spin Scale   =       1.2000000000000000 [-]
	 SCS Same-Spin Energy      =      -0.1290570714137442 [Eh]
	 SCS Opposite-Spin Energy  =      -1.5054690734937621 [Eh]
	 SCS Correlation Energy    =      -1.6345261449075064 [Eh]
	 SCS Total Energy          =    -348.3451774572778845 [Eh]
	-----------------------------------------------------------

  Dipole Moment: [D]
     X:     0.1255      Y:    -0.0000      Z:     0.0623     Total:     0.1402

*** Psi4 exiting successfully. Buy a developer a beer!
