                               Psi4 1.4a3.dev225

  ==> Input File <==

--------------------------------------------------------------------------
#psi4
#
memory 32 gb

molecule  {
0 1
  C        1.6145290    -0.0000010     0.5621290
  C        2.5582230    -0.7522490    -0.3397160
  C        2.5582240     0.7522500    -0.3397120
  C        0.1971871    -0.0000010     0.2903143
  C       -0.5548080     1.2061540     0.1589450
  C       -0.5548100    -1.2061550     0.1589460
  C       -1.9306470     1.2078790    -0.0767010
  C       -1.9306490    -1.2078780    -0.0767020
  C       -2.6220200     0.0000010    -0.1960300
  H        1.8787490    -0.0000050     1.6191980
  H        2.1259860    -1.2531880    -1.2001610
  H        3.4001610    -1.2700850     0.1085340
  H        3.4001670     1.2700790     0.1085380
  H        2.1259890     1.2531940    -1.2001560
  H       -0.0142320     2.1466170     0.2491570
  H       -0.0142360    -2.1466190     0.2491580
  H       -2.4630520     2.1516370    -0.1717350
  H       -2.4630540    -2.1516360    -0.1717360
  H       -3.6932210     0.0000030    -0.3831350
units angstrom
no_reorient  #important for SAPT in psi4, default
symmetry c1  #important for SAPT in psi4, default
}

set PROPERTIES_ORIGIN ["COM"]
properties('MP2/aug-cc-pvtz', properties = ['dipole'])
--------------------------------------------------------------------------

    Molecular point group: c1
  Charge       = 0
  Multiplicity = 1
  Basis Set: AUG-CC-PVTZ
    Blend: AUG-CC-PVTZ
  Basis Set: (AUG-CC-PVTZ AUX)
    Blend: AUG-CC-PVTZ-JKFIT

    Orbital Energies [Eh]
    ---------------------

    Doubly Occupied:

       1A    -11.242915     2A    -11.234621     3A    -11.234358
       4A    -11.234264     5A    -11.233213     6A    -11.233015
       7A    -11.232264     8A    -11.228216     9A    -11.227573
      10A     -1.166762    11A     -1.126672    12A     -1.012032
      13A     -1.007371    14A     -0.864994    15A     -0.834892
      16A     -0.807127    17A     -0.772974    18A     -0.699060
      19A     -0.667598    20A     -0.639499    21A     -0.618747
      22A     -0.607586    23A     -0.578375    24A     -0.543267
      25A     -0.515701    26A     -0.499696    27A     -0.489632
      28A     -0.489079    29A     -0.431436    30A     -0.413705
      31A     -0.332706    32A     -0.319106

  @DF-RHF Final Energy:  -346.71529991868590

   => Energetics <=

    Nuclear Repulsion Energy =            403.2199147192152395
    One-Electron Energy =               -1266.7935172103450441
    Two-Electron Energy =                 516.8583025724439040
    Total Energy =                       -346.7152999186859006
  Basis Set: (AUG-CC-PVTZ AUX)
    Blend: AUG-CC-PVTZ-RI
    Molecular point group: c1

    Geometry (in Angstrom), charge = 0, multiplicity = 1:

       Center              X                  Y                   Z               Mass
    ------------   -----------------  -----------------  -----------------  -----------------
         C            1.645529435440    -0.000000974394     0.554514206190    12.000000000000
         C            2.589223435439    -0.752248974394    -0.347330793810    12.000000000000
         C            2.589224435440     0.752250025606    -0.347326793810    12.000000000000
         C            0.228187535440    -0.000000974394     0.282699506190    12.000000000000
         C           -0.523807564560     1.206154025606     0.151330206190    12.000000000000
         C           -0.523809564560    -1.206154974394     0.151331206190    12.000000000000
         C           -1.899646564561     1.207879025606    -0.084315793810    12.000000000000
         C           -1.899648564560    -1.207877974394    -0.084316793810    12.000000000000
         C           -2.591019564560     0.000001025606    -0.203644793810    12.000000000000
         H            1.909749435440    -0.000004974394     1.611583206190     1.007825032230
         H            2.156986435440    -1.253187974394    -1.207775793810     1.007825032230
         H            3.431161435440    -1.270084974394     0.100919206190     1.007825032230
         H            3.431167435440     1.270079025606     0.100923206190     1.007825032230
         H            2.156989435440     1.253194025606    -1.207770793810     1.007825032230
         H            0.016768435440     2.146617025606     0.241542206190     1.007825032230
         H            0.016764435440    -2.146618974394     0.241543206190     1.007825032230
         H           -2.432051564560     2.151637025606    -0.179349793810     1.007825032230
         H           -2.432053564560    -2.151635974394    -0.179350793810     1.007825032230
         H           -3.662220564560     0.000003025606    -0.390749793810     1.007825032230

  Basis Set: AUG-CC-PVTZ
    Blend: AUG-CC-PVTZ
  Basis Set: (AUG-CC-PVTZ AUX)
    Blend: AUG-CC-PVTZ-JKFIT
	 Reference Energy          =    -346.7152999186859006 [Eh]
	 Singles Energy            =      -0.0000000000000000 [Eh]
	 Same-Spin Energy          =      -0.3883576846666222 [Eh]
	 Opposite-Spin Energy      =      -1.2565069537287175 [Eh]
	 Correlation Energy        =      -1.6448646383953398 [Eh]
	 Total Energy              =    -348.3601645570812479 [Eh]

	 ================> DF-SCS-MP2 Energies <==================
	-----------------------------------------------------------
	 SCS Same-Spin Scale       =       0.3333333333333333 [-]
	 SCS Opposite-Spin Scale   =       1.2000000000000000 [-]
	 SCS Same-Spin Energy      =      -0.1294525615555407 [Eh]
	 SCS Opposite-Spin Energy  =      -1.5078083444744610 [Eh]
	 SCS Correlation Energy    =      -1.6372609060300016 [Eh]
	 SCS Total Energy          =    -348.3525608247159084 [Eh]
	-----------------------------------------------------------

  Dipole Moment: [D]
     X:     0.3648      Y:    -0.0000      Z:     0.0632     Total:     0.3702

*** Psi4 exiting successfully. Buy a developer a beer!
