                               Psi4 1.3.2 release

  ==> Input File <==

--------------------------------------------------------------------------
#psi4
#
memory 32 gb

molecule  {
0 1
  C        1.6145290    -0.0000010     0.5621290
  C        2.5582230    -0.7522490    -0.3397160
  C        2.5582240     0.7522500    -0.3397120
  C        0.1320364    -0.0000014     0.3838762
  C       -0.5548080     1.2061540     0.1589450
  C       -0.5548100    -1.2061550     0.1589460
  C       -1.9306470     1.2078790    -0.0767010
  C       -1.9306490    -1.2078780    -0.0767020
  C       -2.6220200     0.0000010    -0.1960300
  H        1.8787490    -0.0000050     1.6191980
  H        2.1259860    -1.2531880    -1.2001610
  H        3.4001610    -1.2700850     0.1085340
  H        3.4001670     1.2700790     0.1085380
  H        2.1259890     1.2531940    -1.2001560
  H       -0.0142320     2.1466170     0.2491570
  H       -0.0142360    -2.1466190     0.2491580
  H       -2.4630520     2.1516370    -0.1717350
  H       -2.4630540    -2.1516360    -0.1717360
  H       -3.6932210     0.0000030    -0.3831350
units angstrom
no_reorient  #important for SAPT in psi4, default
symmetry c1  #important for SAPT in psi4, default
}

set PROPERTIES_ORIGIN ["COM"]
properties('MP2/aug-cc-pvtz', properties = ['dipole'])
--------------------------------------------------------------------------

    Molecular point group: c1
  Charge       = 0
  Multiplicity = 1
  Basis Set: AUG-CC-PVTZ
    Blend: AUG-CC-PVTZ
  Basis Set: (AUG-CC-PVTZ AUX)
    Blend: AUG-CC-PVTZ-JKFIT

    Orbital Energies [Eh]
    ---------------------

    Doubly Occupied:

       1A    -11.241409     2A    -11.235360     3A    -11.234515
       4A    -11.234199     5A    -11.232183     6A    -11.231526
       7A    -11.231412     8A    -11.227988     9A    -11.227340
      10A     -1.163803    11A     -1.127845    12A     -1.012980
      13A     -1.009719    14A     -0.858350    15A     -0.834474
      16A     -0.809161    17A     -0.773565    18A     -0.697817
      19A     -0.663301    20A     -0.638433    21A     -0.619883
      22A     -0.608364    23A     -0.581622    24A     -0.539909
      25A     -0.515028    26A     -0.501969    27A     -0.492626
      28A     -0.477522    29A     -0.432012    30A     -0.415459
      31A     -0.333069    32A     -0.323103

  @DF-RHF Final Energy:  -346.71595894190688

   => Energetics <=

    Nuclear Repulsion Energy =            402.9879414104530042
    One-Electron Energy =               -1266.3559028203305843
    Two-Electron Energy =                 516.6520024679707603
    Total Energy =                       -346.7159589419068197
  Basis Set: (AUG-CC-PVTZ AUX)
    Blend: AUG-CC-PVTZ-RI
    Molecular point group: c1

    Geometry (in Angstrom), charge = 0, multiplicity = 1:

       Center              X                  Y                   Z               Mass
    ------------   -----------------  -----------------  -----------------  -----------------
         C            1.652150539647    -0.000000933743     0.545005742126    12.000000000000
         C            2.595844539647    -0.752248933743    -0.356839257874    12.000000000000
         C            2.595845539647     0.752250066257    -0.356835257874    12.000000000000
         C            0.169657939647    -0.000001333743     0.366752942126    12.000000000000
         C           -0.517186460353     1.206154066257     0.141821742126    12.000000000000
         C           -0.517188460353    -1.206154933743     0.141822742126    12.000000000000
         C           -1.893025460353     1.207879066257    -0.093824257874    12.000000000000
         C           -1.893027460353    -1.207877933743    -0.093825257874    12.000000000000
         C           -2.584398460353     0.000001066257    -0.213153257874    12.000000000000
         H            1.916370539647    -0.000004933743     1.602074742126     1.007825032230
         H            2.163607539647    -1.253187933743    -1.217284257874     1.007825032230
         H            3.437782539647    -1.270084933743     0.091410742126     1.007825032230
         H            3.437788539647     1.270079066257     0.091414742126     1.007825032230
         H            2.163610539647     1.253194066257    -1.217279257874     1.007825032230
         H            0.023389539647     2.146617066257     0.232033742126     1.007825032230
         H            0.023385539647    -2.146618933743     0.232034742126     1.007825032230
         H           -2.425430460353     2.151637066257    -0.188858257874     1.007825032230
         H           -2.425432460353    -2.151635933743    -0.188859257874     1.007825032230
         H           -3.655599460353     0.000003066257    -0.400258257874     1.007825032230

  Basis Set: AUG-CC-PVTZ
    Blend: AUG-CC-PVTZ
  Basis Set: (AUG-CC-PVTZ AUX)
    Blend: AUG-CC-PVTZ-JKFIT
	 Reference Energy          =    -346.7159589419068766 [Eh]
	 Singles Energy            =      -0.0000000000000000 [Eh]
	 Same-Spin Energy          =      -0.3877088071770409 [Eh]
	 Opposite-Spin Energy      =      -1.2556387577492496 [Eh]
	 Correlation Energy        =      -1.6433475649262905 [Eh]
	 Total Energy              =    -348.3593065068331498 [Eh]

	 ================> DF-SCS-MP2 Energies <==================
	-----------------------------------------------------------
	 SCS Same-Spin Scale       =       0.3333333333333333 [-]
	 SCS Opposite-Spin Scale   =       1.2000000000000000 [-]
	 SCS Same-Spin Energy      =      -0.1292362690590136 [Eh]
	 SCS Opposite-Spin Energy  =      -1.5067665092990994 [Eh]
	 SCS Correlation Energy    =      -1.6360027783581130 [Eh]
	 SCS Total Energy          =    -348.3519617202649670 [Eh]
	-----------------------------------------------------------

  Dipole Moment: [D]
     X:     0.3127      Y:    -0.0000      Z:     0.0044     Total:     0.3127

*** Psi4 exiting successfully. Buy a developer a beer!
