                               Psi4 1.3.2 release

  ==> Input File <==

--------------------------------------------------------------------------
#psi4
#
memory 32 gb

molecule  {
0 1
  C        1.6107516    -0.1041536     0.5625140
  C        2.5582230    -0.7522490    -0.3397160
  C        2.5582240     0.7522500    -0.3397120
  C        0.1480820    -0.0000010     0.2808970
  C       -0.5548080     1.2061540     0.1589450
  C       -0.5548100    -1.2061550     0.1589460
  C       -1.9306470     1.2078790    -0.0767010
  C       -1.9306490    -1.2078780    -0.0767020
  C       -2.6220200     0.0000010    -0.1960300
  H        1.8787490    -0.0000050     1.6191980
  H        2.1259860    -1.2531880    -1.2001610
  H        3.4001610    -1.2700850     0.1085340
  H        3.4001670     1.2700790     0.1085380
  H        2.1259890     1.2531940    -1.2001560
  H       -0.0142320     2.1466170     0.2491570
  H       -0.0142360    -2.1466190     0.2491580
  H       -2.4630520     2.1516370    -0.1717350
  H       -2.4630540    -2.1516360    -0.1717360
  H       -3.6932210     0.0000030    -0.3831350
units angstrom
no_reorient  #important for SAPT in psi4, default
symmetry c1  #important for SAPT in psi4, default
}

set PROPERTIES_ORIGIN ["COM"]
properties('MP2/aug-cc-pvtz', properties = ['dipole'])
--------------------------------------------------------------------------

    Molecular point group: c1
  Charge       = 0
  Multiplicity = 1
  Basis Set: AUG-CC-PVTZ
    Blend: AUG-CC-PVTZ
  Basis Set: (AUG-CC-PVTZ AUX)
    Blend: AUG-CC-PVTZ-JKFIT

    Orbital Energies [Eh]
    ---------------------

    Doubly Occupied:

       1A    -11.240615     2A    -11.237549     3A    -11.235239
       4A    -11.234072     5A    -11.232316     6A    -11.232081
       7A    -11.229545     8A    -11.229075     9A    -11.224600
      10A     -1.165118    11A     -1.128075    12A     -1.013227
      13A     -1.010079    14A     -0.856902    15A     -0.835011
      16A     -0.809495    17A     -0.773649    18A     -0.699284
      19A     -0.664531    20A     -0.635473    21A     -0.621185
      22A     -0.607539    23A     -0.582020    24A     -0.541406
      25A     -0.514567    26A     -0.501501    27A     -0.493514
      28A     -0.481826    29A     -0.446120    30A     -0.396973
      31A     -0.333832    32A     -0.323311

  @DF-RHF Final Energy:  -346.71397360792247

   => Energetics <=

    Nuclear Repulsion Energy =            403.3297267508879713
    One-Electron Energy =               -1267.0279360513916345
    Two-Electron Energy =                 516.9842356925811373
    Total Energy =                       -346.7139736079225258
  Basis Set: (AUG-CC-PVTZ AUX)
    Blend: AUG-CC-PVTZ-RI
    Molecular point group: c1

    Geometry (in Angstrom), charge = 0, multiplicity = 1:

       Center              X                  Y                   Z               Mass
    ------------   -----------------  -----------------  -----------------  -----------------
         C            1.647126352880    -0.093568803731     0.555817136459    12.000000000000
         C            2.594597752880    -0.741664203731    -0.346412863541    12.000000000000
         C            2.594598752880     0.762834796269    -0.346408863541    12.000000000000
         C            0.184456752880     0.010583796269     0.274200136459    12.000000000000
         C           -0.518433247120     1.216738796269     0.152248136459    12.000000000000
         C           -0.518435247120    -1.195570203731     0.152249136459    12.000000000000
         C           -1.894272247120     1.218463796269    -0.083397863541    12.000000000000
         C           -1.894274247120    -1.197293203731    -0.083398863541    12.000000000000
         C           -2.585645247120     0.010585796269    -0.202726863541    12.000000000000
         H            1.915123752880     0.010579796269     1.612501136459     1.007825032230
         H            2.162360752880    -1.242603203731    -1.206857863541     1.007825032230
         H            3.436535752880    -1.259500203731     0.101837136459     1.007825032230
         H            3.436541752880     1.280663796269     0.101841136459     1.007825032230
         H            2.162363752880     1.263778796269    -1.206852863541     1.007825032230
         H            0.022142752880     2.157201796269     0.242460136459     1.007825032230
         H            0.022138752880    -2.136034203731     0.242461136459     1.007825032230
         H           -2.426677247120     2.162221796269    -0.178431863541     1.007825032230
         H           -2.426679247120    -2.141051203731    -0.178432863541     1.007825032230
         H           -3.656846247120     0.010587796269    -0.389831863541     1.007825032230

  Basis Set: AUG-CC-PVTZ
    Blend: AUG-CC-PVTZ
  Basis Set: (AUG-CC-PVTZ AUX)
    Blend: AUG-CC-PVTZ-JKFIT
	 Reference Energy          =    -346.7139736079224690 [Eh]
	 Singles Energy            =      -0.0000000000000000 [Eh]
	 Same-Spin Energy          =      -0.3880163779047332 [Eh]
	 Opposite-Spin Energy      =      -1.2561015303601926 [Eh]
	 Correlation Energy        =      -1.6441179082649258 [Eh]
	 Total Energy              =    -348.3580915161874145 [Eh]

	 ================> DF-SCS-MP2 Energies <==================
	-----------------------------------------------------------
	 SCS Same-Spin Scale       =       0.3333333333333333 [-]
	 SCS Opposite-Spin Scale   =       1.2000000000000000 [-]
	 SCS Same-Spin Energy      =      -0.1293387926349110 [Eh]
	 SCS Opposite-Spin Energy  =      -1.5073218364322309 [Eh]
	 SCS Correlation Energy    =      -1.6366606290671419 [Eh]
	 SCS Total Energy          =    -348.3506342369896061 [Eh]
	-----------------------------------------------------------

  Dipole Moment: [D]
     X:     0.2710      Y:    -0.0643      Z:     0.0598     Total:     0.2849

*** Psi4 exiting successfully. Buy a developer a beer!
