                               Psi4 1.3.2 release

  ==> Input File <==

--------------------------------------------------------------------------
#psi4
#
memory 32 gb

molecule  {
0 1
  C        1.6145290    -0.0000010     0.5621290
  C        2.6746101    -0.7024355    -0.2456914
  C        2.5582240     0.7522500    -0.3397120
  C        0.1480820    -0.0000010     0.2808970
  C       -0.5548080     1.2061540     0.1589450
  C       -0.5548100    -1.2061550     0.1589460
  C       -1.9306470     1.2078790    -0.0767010
  C       -1.9306490    -1.2078780    -0.0767020
  C       -2.6220200     0.0000010    -0.1960300
  H        1.8787490    -0.0000050     1.6191980
  H        2.1259860    -1.2531880    -1.2001610
  H        3.4001610    -1.2700850     0.1085340
  H        3.4001670     1.2700790     0.1085380
  H        2.1259890     1.2531940    -1.2001560
  H       -0.0142320     2.1466170     0.2491570
  H       -0.0142360    -2.1466190     0.2491580
  H       -2.4630520     2.1516370    -0.1717350
  H       -2.4630540    -2.1516360    -0.1717360
  H       -3.6932210     0.0000030    -0.3831350
units angstrom
no_reorient  #important for SAPT in psi4, default
symmetry c1  #important for SAPT in psi4, default
}

set PROPERTIES_ORIGIN ["COM"]
properties('MP2/aug-cc-pvtz', properties = ['dipole'])
--------------------------------------------------------------------------

    Molecular point group: c1
  Charge       = 0
  Multiplicity = 1
  Basis Set: AUG-CC-PVTZ
    Blend: AUG-CC-PVTZ
  Basis Set: (AUG-CC-PVTZ AUX)
    Blend: AUG-CC-PVTZ-JKFIT

    Orbital Energies [Eh]
    ---------------------

    Doubly Occupied:

       1A    -11.241951     2A    -11.235160     3A    -11.235104
       4A    -11.234599     5A    -11.232626     6A    -11.231927
       7A    -11.231036     8A    -11.230213     9A    -11.227354
      10A     -1.168130    11A     -1.132966    12A     -1.015415
      13A     -1.010492    14A     -0.859092    15A     -0.836017
      16A     -0.812479    17A     -0.774665    18A     -0.696935
      19A     -0.674180    20A     -0.642102    21A     -0.621576
      22A     -0.607676    23A     -0.582303    24A     -0.541217
      25A     -0.507692    26A     -0.495688    27A     -0.491253
      28A     -0.482590    29A     -0.437407    30A     -0.405067
      31A     -0.333961    32A     -0.324884

  @DF-RHF Final Energy:  -346.69287641303839

   => Energetics <=

    Nuclear Repulsion Energy =            402.9873467381016781
    One-Electron Energy =               -1266.2529306864869341
    Two-Electron Energy =                 516.5727075353469218
    Total Energy =                       -346.6928764130383342
  Basis Set: (AUG-CC-PVTZ AUX)
    Blend: AUG-CC-PVTZ-RI
    Molecular point group: c1

    Geometry (in Angstrom), charge = 0, multiplicity = 1:

       Center              X                  Y                   Z               Mass
    ------------   -----------------  -----------------  -----------------  -----------------
         C            1.638691732494    -0.005063396969     0.545915775936    12.000000000000
         C            2.698772832494    -0.707497896969    -0.261904624064    12.000000000000
         C            2.582386732494     0.747187603031    -0.355925224064    12.000000000000
         C            0.172244732494    -0.005063396969     0.264683775936    12.000000000000
         C           -0.530645267506     1.201091603031     0.142731775936    12.000000000000
         C           -0.530647267506    -1.211217396969     0.142732775936    12.000000000000
         C           -1.906484267506     1.202816603031    -0.092914224064    12.000000000000
         C           -1.906486267506    -1.212940396969    -0.092915224064    12.000000000000
         C           -2.597857267506    -0.005061396969    -0.212243224064    12.000000000000
         H            1.902911732494    -0.005067396969     1.602984775936     1.007825032230
         H            2.150148732494    -1.258250396969    -1.216374224064     1.007825032230
         H            3.424323732494    -1.275147396969     0.092320775936     1.007825032230
         H            3.424329732494     1.265016603031     0.092324775936     1.007825032230
         H            2.150151732494     1.248131603031    -1.216369224064     1.007825032230
         H            0.009930732494     2.141554603031     0.232943775936     1.007825032230
         H            0.009926732494    -2.151681396969     0.232944775936     1.007825032230
         H           -2.438889267506     2.146574603031    -0.187948224064     1.007825032230
         H           -2.438891267506    -2.156698396969    -0.187949224064     1.007825032230
         H           -3.669058267506    -0.005059396969    -0.399348224064     1.007825032230

  Basis Set: AUG-CC-PVTZ
    Blend: AUG-CC-PVTZ
  Basis Set: (AUG-CC-PVTZ AUX)
    Blend: AUG-CC-PVTZ-JKFIT
	 Reference Energy          =    -346.6928764130383911 [Eh]
	 Singles Energy            =      -0.0000000000000000 [Eh]
	 Same-Spin Energy          =      -0.3881555438707435 [Eh]
	 Opposite-Spin Energy      =      -1.2565155398377512 [Eh]
	 Correlation Energy        =      -1.6446710837084946 [Eh]
	 Total Energy              =    -348.3375474967468790 [Eh]

	 ================> DF-SCS-MP2 Energies <==================
	-----------------------------------------------------------
	 SCS Same-Spin Scale       =       0.3333333333333333 [-]
	 SCS Opposite-Spin Scale   =       1.2000000000000000 [-]
	 SCS Same-Spin Energy      =      -0.1293851812902478 [Eh]
	 SCS Opposite-Spin Energy  =      -1.5078186478053015 [Eh]
	 SCS Correlation Energy    =      -1.6372038290955493 [Eh]
	 SCS Total Energy          =    -348.3300802421339313 [Eh]
	-----------------------------------------------------------

  Dipole Moment: [D]
     X:     0.2919      Y:     0.0129      Z:     0.1058     Total:     0.3107

*** Psi4 exiting successfully. Buy a developer a beer!
