                               Psi4 1.3.2 release

  ==> Input File <==

--------------------------------------------------------------------------
#psi4
#
memory 32 gb

molecule  {
0 1
  C        1.6145290    -0.0000010     0.5621290
  C        2.5582230    -0.7522490    -0.3397160
  C        2.5582240     0.7522500    -0.3397120
  C        0.1587902    -0.0000008     0.2298901
  C       -0.5548080     1.2061540     0.1589450
  C       -0.5548100    -1.2061550     0.1589460
  C       -1.9306470     1.2078790    -0.0767010
  C       -1.9306490    -1.2078780    -0.0767020
  C       -2.6220200     0.0000010    -0.1960300
  H        1.8787490    -0.0000050     1.6191980
  H        2.1259860    -1.2531880    -1.2001610
  H        3.4001610    -1.2700850     0.1085340
  H        3.4001670     1.2700790     0.1085380
  H        2.1259890     1.2531940    -1.2001560
  H       -0.0142320     2.1466170     0.2491570
  H       -0.0142360    -2.1466190     0.2491580
  H       -2.4630520     2.1516370    -0.1717350
  H       -2.4630540    -2.1516360    -0.1717360
  H       -3.6932210     0.0000030    -0.3831350
units angstrom
no_reorient  #important for SAPT in psi4, default
symmetry c1  #important for SAPT in psi4, default
}

set PROPERTIES_ORIGIN ["COM"]
properties('MP2/aug-cc-pvtz', properties = ['dipole'])
--------------------------------------------------------------------------

    Molecular point group: c1
  Charge       = 0
  Multiplicity = 1
  Basis Set: AUG-CC-PVTZ
    Blend: AUG-CC-PVTZ
  Basis Set: (AUG-CC-PVTZ AUX)
    Blend: AUG-CC-PVTZ-JKFIT

    Orbital Energies [Eh]
    ---------------------

    Doubly Occupied:

       1A    -11.240119     2A    -11.235788     3A    -11.234761
       4A    -11.234417     5A    -11.232486     6A    -11.231195
       7A    -11.231100     8A    -11.226141     9A    -11.225484
      10A     -1.165294    11A     -1.128183    12A     -1.012253
      13A     -1.010049    14A     -0.855509    15A     -0.834943
      16A     -0.808657    17A     -0.773985    18A     -0.699959
      19A     -0.665478    20A     -0.634468    21A     -0.620695
      22A     -0.607649    23A     -0.581824    24A     -0.542474
      25A     -0.514134    26A     -0.500160    27A     -0.492966
      28A     -0.485094    29A     -0.426490    30A     -0.415205
      31A     -0.333618    32A     -0.324032

  @DF-RHF Final Energy:  -346.71885132314213

   => Energetics <=

    Nuclear Repulsion Energy =            403.4644044839513413
    One-Electron Energy =               -1267.3172893202329305
    Two-Electron Energy =                 517.1340335131395705
    Total Energy =                       -346.7188513231420757
  Basis Set: (AUG-CC-PVTZ AUX)
    Blend: AUG-CC-PVTZ-RI
    Molecular point group: c1

    Geometry (in Angstrom), charge = 0, multiplicity = 1:

       Center              X                  Y                   Z               Mass
    ------------   -----------------  -----------------  -----------------  -----------------
         C            1.649431617245    -0.000000994720     0.560654967914    12.000000000000
         C            2.593125617245    -0.752248994720    -0.341190032086    12.000000000000
         C            2.593126617245     0.752250005280    -0.341186032086    12.000000000000
         C            0.193692817245    -0.000000794720     0.228416067914    12.000000000000
         C           -0.519905382755     1.206154005280     0.157470967914    12.000000000000
         C           -0.519907382755    -1.206154994720     0.157471967914    12.000000000000
         C           -1.895744382755     1.207879005280    -0.078175032086    12.000000000000
         C           -1.895746382755    -1.207877994720    -0.078176032086    12.000000000000
         C           -2.587117382755     0.000001005280    -0.197504032086    12.000000000000
         H            1.913651617245    -0.000004994720     1.617723967914     1.007825032230
         H            2.160888617245    -1.253187994720    -1.201635032086     1.007825032230
         H            3.435063617245    -1.270084994720     0.107059967914     1.007825032230
         H            3.435069617245     1.270079005280     0.107063967914     1.007825032230
         H            2.160891617245     1.253194005280    -1.201630032086     1.007825032230
         H            0.020670617245     2.146617005280     0.247682967914     1.007825032230
         H            0.020666617245    -2.146618994720     0.247683967914     1.007825032230
         H           -2.428149382755     2.151637005280    -0.173209032086     1.007825032230
         H           -2.428151382755    -2.151635994720    -0.173210032086     1.007825032230
         H           -3.658318382755     0.000003005280    -0.384609032086     1.007825032230

  Basis Set: AUG-CC-PVTZ
    Blend: AUG-CC-PVTZ
  Basis Set: (AUG-CC-PVTZ AUX)
    Blend: AUG-CC-PVTZ-JKFIT
	 Reference Energy          =    -346.7188513231421325 [Eh]
	 Singles Energy            =      -0.0000000000000000 [Eh]
	 Same-Spin Energy          =      -0.3878109458638841 [Eh]
	 Opposite-Spin Energy      =      -1.2556258409465832 [Eh]
	 Correlation Energy        =      -1.6434367868104673 [Eh]
	 Total Energy              =    -348.3622881099526012 [Eh]

	 ================> DF-SCS-MP2 Energies <==================
	-----------------------------------------------------------
	 SCS Same-Spin Scale       =       0.3333333333333333 [-]
	 SCS Opposite-Spin Scale   =       1.2000000000000000 [-]
	 SCS Same-Spin Energy      =      -0.1292703152879613 [Eh]
	 SCS Opposite-Spin Energy  =      -1.5067510091358998 [Eh]
	 SCS Correlation Energy    =      -1.6360213244238611 [Eh]
	 SCS Total Energy          =    -348.3548726475659691 [Eh]
	-----------------------------------------------------------

  Dipole Moment: [D]
     X:     0.2502      Y:    -0.0000      Z:     0.0911     Total:     0.2663

*** Psi4 exiting successfully. Buy a developer a beer!
