                               Psi4 1.3.2 release

  ==> Input File <==

--------------------------------------------------------------------------
#psi4
#
memory 32 gb

molecule  {
0 1
  C        1.6111620     0.1041516     0.5603738
  C        2.5582230    -0.7522490    -0.3397160
  C        2.5582240     0.7522500    -0.3397120
  C        0.1480820    -0.0000010     0.2808970
  C       -0.5548080     1.2061540     0.1589450
  C       -0.5548100    -1.2061550     0.1589460
  C       -1.9306470     1.2078790    -0.0767010
  C       -1.9306490    -1.2078780    -0.0767020
  C       -2.6220200     0.0000010    -0.1960300
  H        1.8787490    -0.0000050     1.6191980
  H        2.1259860    -1.2531880    -1.2001610
  H        3.4001610    -1.2700850     0.1085340
  H        3.4001670     1.2700790     0.1085380
  H        2.1259890     1.2531940    -1.2001560
  H       -0.0142320     2.1466170     0.2491570
  H       -0.0142360    -2.1466190     0.2491580
  H       -2.4630520     2.1516370    -0.1717350
  H       -2.4630540    -2.1516360    -0.1717360
  H       -3.6932210     0.0000030    -0.3831350
units angstrom
no_reorient  #important for SAPT in psi4, default
symmetry c1  #important for SAPT in psi4, default
}

set PROPERTIES_ORIGIN ["COM"]
properties('MP2/aug-cc-pvtz', properties = ['dipole'])
--------------------------------------------------------------------------

    Molecular point group: c1
  Charge       = 0
  Multiplicity = 1
  Basis Set: AUG-CC-PVTZ
    Blend: AUG-CC-PVTZ
  Basis Set: (AUG-CC-PVTZ AUX)
    Blend: AUG-CC-PVTZ-JKFIT

    Orbital Energies [Eh]
    ---------------------

    Doubly Occupied:

       1A    -11.240646     2A    -11.237586     3A    -11.235257
       4A    -11.234090     5A    -11.232330     6A    -11.232094
       7A    -11.229563     8A    -11.228968     9A    -11.224507
      10A     -1.165360    11A     -1.128349    12A     -1.013288
      13A     -1.010098    14A     -0.856804    15A     -0.835100
      16A     -0.809548    17A     -0.773468    18A     -0.699265
      19A     -0.664629    20A     -0.635661    21A     -0.621207
      22A     -0.607549    23A     -0.582037    24A     -0.541133
      25A     -0.514578    26A     -0.501538    27A     -0.493539
      28A     -0.481619    29A     -0.446273    30A     -0.397235
      31A     -0.333849    32A     -0.323306

  @DF-RHF Final Energy:  -346.71394046887673

   => Energetics <=

    Nuclear Repulsion Energy =            403.3534150393652453
    One-Electron Energy =               -1267.0737620921029247
    Two-Electron Energy =                 517.0064065838608940
    Total Energy =                       -346.7139404688767854
  Basis Set: (AUG-CC-PVTZ AUX)
    Blend: AUG-CC-PVTZ-RI
    Molecular point group: c1

    Geometry (in Angstrom), charge = 0, multiplicity = 1:

       Center              X                  Y                   Z               Mass
    ------------   -----------------  -----------------  -----------------  -----------------
         C            1.647495044944     0.093566854942     0.553894439682    12.000000000000
         C            2.594556044944    -0.762833745058    -0.346195360318    12.000000000000
         C            2.594557044944     0.741665254942    -0.346191360318    12.000000000000
         C            0.184415044944    -0.010585745058     0.274417639682    12.000000000000
         C           -0.518474955056     1.195569254942     0.152465639682    12.000000000000
         C           -0.518476955056    -1.216739745058     0.152466639682    12.000000000000
         C           -1.894313955056     1.197294254942    -0.083180360318    12.000000000000
         C           -1.894315955056    -1.218462745058    -0.083181360318    12.000000000000
         C           -2.585686955056    -0.010583745058    -0.202509360318    12.000000000000
         H            1.915082044944    -0.010589745058     1.612718639682     1.007825032230
         H            2.162319044944    -1.263772745058    -1.206640360318     1.007825032230
         H            3.436494044944    -1.280669745058     0.102054639682     1.007825032230
         H            3.436500044944     1.259494254942     0.102058639682     1.007825032230
         H            2.162322044944     1.242609254942    -1.206635360318     1.007825032230
         H            0.022101044944     2.136032254942     0.242677639682     1.007825032230
         H            0.022097044944    -2.157203745058     0.242678639682     1.007825032230
         H           -2.426718955056     2.141052254942    -0.178214360318     1.007825032230
         H           -2.426720955056    -2.162220745058    -0.178215360318     1.007825032230
         H           -3.656887955056    -0.010581745058    -0.389614360318     1.007825032230

  Basis Set: AUG-CC-PVTZ
    Blend: AUG-CC-PVTZ
  Basis Set: (AUG-CC-PVTZ AUX)
    Blend: AUG-CC-PVTZ-JKFIT
	 Reference Energy          =    -346.7139404688767286 [Eh]
	 Singles Energy            =      -0.0000000000000000 [Eh]
	 Same-Spin Energy          =      -0.3880215766608642 [Eh]
	 Opposite-Spin Energy      =      -1.2560891700187560 [Eh]
	 Correlation Energy        =      -1.6441107466796203 [Eh]
	 Total Energy              =    -348.3580512155563724 [Eh]

	 ================> DF-SCS-MP2 Energies <==================
	-----------------------------------------------------------
	 SCS Same-Spin Scale       =       0.3333333333333333 [-]
	 SCS Opposite-Spin Scale   =       1.2000000000000000 [-]
	 SCS Same-Spin Energy      =      -0.1293405255536214 [Eh]
	 SCS Opposite-Spin Energy  =      -1.5073070040225072 [Eh]
	 SCS Correlation Energy    =      -1.6366475295761287 [Eh]
	 SCS Total Energy          =    -348.3505879984528519 [Eh]
	-----------------------------------------------------------

  Dipole Moment: [D]
     X:     0.2702      Y:     0.0647      Z:     0.0601     Total:     0.2843

*** Psi4 exiting successfully. Buy a developer a beer!
