                               Psi4 1.3.2 release

  ==> Input File <==

--------------------------------------------------------------------------
#psi4
#
memory 32 gb

molecule  {
0 1
  C        1.6145290    -0.0000010     0.5621290
  C        2.4314966    -0.7938207    -0.4238598
  C        2.5582240     0.7522500    -0.3397120
  C        0.1480820    -0.0000010     0.2808970
  C       -0.5548080     1.2061540     0.1589450
  C       -0.5548100    -1.2061550     0.1589460
  C       -1.9306470     1.2078790    -0.0767010
  C       -1.9306490    -1.2078780    -0.0767020
  C       -2.6220200     0.0000010    -0.1960300
  H        1.8787490    -0.0000050     1.6191980
  H        2.1259860    -1.2531880    -1.2001610
  H        3.4001610    -1.2700850     0.1085340
  H        3.4001670     1.2700790     0.1085380
  H        2.1259890     1.2531940    -1.2001560
  H       -0.0142320     2.1466170     0.2491570
  H       -0.0142360    -2.1466190     0.2491580
  H       -2.4630520     2.1516370    -0.1717350
  H       -2.4630540    -2.1516360    -0.1717360
  H       -3.6932210     0.0000030    -0.3831350
units angstrom
no_reorient  #important for SAPT in psi4, default
symmetry c1  #important for SAPT in psi4, default
}

set PROPERTIES_ORIGIN ["COM"]
properties('MP2/aug-cc-pvtz', properties = ['dipole'])
--------------------------------------------------------------------------

    Molecular point group: c1
  Charge       = 0
  Multiplicity = 1
  Basis Set: AUG-CC-PVTZ
    Blend: AUG-CC-PVTZ
  Basis Set: (AUG-CC-PVTZ AUX)
    Blend: AUG-CC-PVTZ-JKFIT

    Orbital Energies [Eh]
    ---------------------

    Doubly Occupied:

       1A    -11.240575     2A    -11.239134     3A    -11.234973
       4A    -11.234488     5A    -11.232197     6A    -11.231000
       7A    -11.230255     8A    -11.229511     9A    -11.228801
      10A     -1.164307    11A     -1.124599    12A     -1.010857
      13A     -1.010282    14A     -0.857570    15A     -0.843811
      16A     -0.814147    17A     -0.777418    18A     -0.701742
      19A     -0.656448    20A     -0.641113    21A     -0.621490
      22A     -0.611986    23A     -0.581994    24A     -0.542925
      25A     -0.518315    26A     -0.497396    27A     -0.493273
      28A     -0.482690    29A     -0.420965    30A     -0.411423
      31A     -0.333935    32A     -0.323315

  @DF-RHF Final Energy:  -346.68899780768936

   => Energetics <=

    Nuclear Repulsion Energy =            403.9317679764801028
    One-Electron Energy =               -1268.1556633803243130
    Two-Electron Energy =                 517.5348975961547922
    Total Energy =                       -346.6889978076893613
  Basis Set: (AUG-CC-PVTZ AUX)
    Blend: AUG-CC-PVTZ-RI
    Molecular point group: c1

    Geometry (in Angstrom), charge = 0, multiplicity = 1:

       Center              X                  Y                   Z               Mass
    ------------   -----------------  -----------------  -----------------  -----------------
         C            1.663398755100     0.004223854468     0.564022588953    12.000000000000
         C            2.480366355100    -0.789595845532    -0.421966211047    12.000000000000
         C            2.607093755100     0.756474854468    -0.337818411047    12.000000000000
         C            0.196951755100     0.004223854468     0.282790588953    12.000000000000
         C           -0.505938244900     1.210378854468     0.160838588953    12.000000000000
         C           -0.505940244900    -1.201930145532     0.160839588953    12.000000000000
         C           -1.881777244900     1.212103854468    -0.074807411047    12.000000000000
         C           -1.881779244900    -1.203653145532    -0.074808411047    12.000000000000
         C           -2.573150244900     0.004225854468    -0.194136411047    12.000000000000
         H            1.927618755100     0.004219854468     1.621091588953     1.007825032230
         H            2.174855755100    -1.248963145532    -1.198267411047     1.007825032230
         H            3.449030755100    -1.265860145532     0.110427588953     1.007825032230
         H            3.449036755100     1.274303854468     0.110431588953     1.007825032230
         H            2.174858755100     1.257418854468    -1.198262411047     1.007825032230
         H            0.034637755100     2.150841854468     0.251050588953     1.007825032230
         H            0.034633755100    -2.142394145532     0.251051588953     1.007825032230
         H           -2.414182244900     2.155861854468    -0.169841411047     1.007825032230
         H           -2.414184244900    -2.147411145532    -0.169842411047     1.007825032230
         H           -3.644351244900     0.004227854468    -0.381241411047     1.007825032230

  Basis Set: AUG-CC-PVTZ
    Blend: AUG-CC-PVTZ
  Basis Set: (AUG-CC-PVTZ AUX)
    Blend: AUG-CC-PVTZ-JKFIT
	 Reference Energy          =    -346.6889978076893613 [Eh]
	 Singles Energy            =      -0.0000000000000000 [Eh]
	 Same-Spin Energy          =      -0.3880666467816469 [Eh]
	 Opposite-Spin Energy      =      -1.2572365095822937 [Eh]
	 Correlation Energy        =      -1.6453031563639406 [Eh]
	 Total Energy              =    -348.3343009640532841 [Eh]

	 ================> DF-SCS-MP2 Energies <==================
	-----------------------------------------------------------
	 SCS Same-Spin Scale       =       0.3333333333333333 [-]
	 SCS Opposite-Spin Scale   =       1.2000000000000000 [-]
	 SCS Same-Spin Energy      =      -0.1293555489272156 [Eh]
	 SCS Opposite-Spin Energy  =      -1.5086838114987524 [Eh]
	 SCS Correlation Energy    =      -1.6380393604259680 [Eh]
	 SCS Total Energy          =    -348.3270371681153392 [Eh]
	-----------------------------------------------------------

  Dipole Moment: [D]
     X:     0.2106      Y:     0.0888      Z:     0.0749     Total:     0.2406

*** Psi4 exiting successfully. Buy a developer a beer!
