                               Psi4 1.3.2 release

  ==> Input File <==

--------------------------------------------------------------------------
#psi4
#
memory 32 gb

molecule  {
0 1
  C        1.6145290    -0.0000010     0.5621290
  C        2.5582230    -0.7522490    -0.3397160
  C        2.5582240     0.7522500    -0.3397120
  C        0.1532135    -0.0000009     0.2553468
  C       -0.5548080     1.2061540     0.1589450
  C       -0.5548100    -1.2061550     0.1589460
  C       -1.9306470     1.2078790    -0.0767010
  C       -1.9306490    -1.2078780    -0.0767020
  C       -2.6220200     0.0000010    -0.1960300
  H        1.8787490    -0.0000050     1.6191980
  H        2.1259860    -1.2531880    -1.2001610
  H        3.4001610    -1.2700850     0.1085340
  H        3.4001670     1.2700790     0.1085380
  H        2.1259890     1.2531940    -1.2001560
  H       -0.0142320     2.1466170     0.2491570
  H       -0.0142360    -2.1466190     0.2491580
  H       -2.4630520     2.1516370    -0.1717350
  H       -2.4630540    -2.1516360    -0.1717360
  H       -3.6932210     0.0000030    -0.3831350
units angstrom
no_reorient  #important for SAPT in psi4, default
symmetry c1  #important for SAPT in psi4, default
}

set PROPERTIES_ORIGIN ["COM"]
properties('MP2/aug-cc-pvtz', properties = ['dipole'])
--------------------------------------------------------------------------

    Molecular point group: c1
  Charge       = 0
  Multiplicity = 1
  Basis Set: AUG-CC-PVTZ
    Blend: AUG-CC-PVTZ
  Basis Set: (AUG-CC-PVTZ AUX)
    Blend: AUG-CC-PVTZ-JKFIT

    Orbital Energies [Eh]
    ---------------------

    Doubly Occupied:

       1A    -11.240011     2A    -11.235723     3A    -11.234710
       4A    -11.234399     5A    -11.232264     6A    -11.230901
       7A    -11.230809     8A    -11.226488     9A    -11.225833
      10A     -1.165186    11A     -1.128205    12A     -1.012548
      13A     -1.010072    14A     -0.855937    15A     -0.835009
      16A     -0.808894    17A     -0.774033    18A     -0.699649
      19A     -0.665063    20A     -0.635108    21A     -0.620847
      22A     -0.607836    23A     -0.581863    24A     -0.542119
      25A     -0.514310    26A     -0.500588    27A     -0.493091
      28A     -0.483993    29A     -0.427469    30A     -0.415351
      31A     -0.333686    32A     -0.323969

  @DF-RHF Final Energy:  -346.71972574239516

   => Energetics <=

    Nuclear Repulsion Energy =            403.4316918915004067
    One-Electron Energy =               -1267.2509062503067980
    Two-Electron Energy =                 517.0994886164112359
    Total Energy =                       -346.7197257423952124
  Basis Set: (AUG-CC-PVTZ AUX)
    Blend: AUG-CC-PVTZ-RI
    Molecular point group: c1

    Geometry (in Angstrom), charge = 0, multiplicity = 1:

       Center              X                  Y                   Z               Mass
    ------------   -----------------  -----------------  -----------------  -----------------
         C            1.649998363447    -0.000000984557     0.558067866571    12.000000000000
         C            2.593692363447    -0.752248984557    -0.343777133429    12.000000000000
         C            2.593693363447     0.752250015443    -0.343773133429    12.000000000000
         C            0.188682863447    -0.000000884557     0.251285666571    12.000000000000
         C           -0.519338636553     1.206154015443     0.154883866571    12.000000000000
         C           -0.519340636553    -1.206154984557     0.154884866571    12.000000000000
         C           -1.895177636553     1.207879015443    -0.080762133429    12.000000000000
         C           -1.895179636553    -1.207877984557    -0.080763133429    12.000000000000
         C           -2.586550636553     0.000001015443    -0.200091133429    12.000000000000
         H            1.914218363447    -0.000004984557     1.615136866571     1.007825032230
         H            2.161455363447    -1.253187984557    -1.204222133429     1.007825032230
         H            3.435630363447    -1.270084984557     0.104472866571     1.007825032230
         H            3.435636363447     1.270079015443     0.104476866571     1.007825032230
         H            2.161458363447     1.253194015443    -1.204217133429     1.007825032230
         H            0.021237363447     2.146617015443     0.245095866571     1.007825032230
         H            0.021233363447    -2.146618984557     0.245096866571     1.007825032230
         H           -2.427582636553     2.151637015443    -0.175796133429     1.007825032230
         H           -2.427584636553    -2.151635984557    -0.175797133429     1.007825032230
         H           -3.657751636553     0.000003015443    -0.387196133429     1.007825032230

  Basis Set: AUG-CC-PVTZ
    Blend: AUG-CC-PVTZ
  Basis Set: (AUG-CC-PVTZ AUX)
    Blend: AUG-CC-PVTZ-JKFIT
	 Reference Energy          =    -346.7197257423951555 [Eh]
	 Singles Energy            =      -0.0000000000000000 [Eh]
	 Same-Spin Energy          =      -0.3877221211171306 [Eh]
	 Opposite-Spin Energy      =      -1.2554502349857111 [Eh]
	 Correlation Energy        =      -1.6431723561028417 [Eh]
	 Total Energy              =    -348.3628980984980217 [Eh]

	 ================> DF-SCS-MP2 Energies <==================
	-----------------------------------------------------------
	 SCS Same-Spin Scale       =       0.3333333333333333 [-]
	 SCS Opposite-Spin Scale   =       1.2000000000000000 [-]
	 SCS Same-Spin Energy      =      -0.1292407070390435 [Eh]
	 SCS Opposite-Spin Energy  =      -1.5065402819828533 [Eh]
	 SCS Correlation Energy    =      -1.6357809890218968 [Eh]
	 SCS Total Energy          =    -348.3555067314170515 [Eh]
	-----------------------------------------------------------

  Dipole Moment: [D]
     X:     0.2673      Y:    -0.0000      Z:     0.0770     Total:     0.2782

*** Psi4 exiting successfully. Buy a developer a beer!
