                               Psi4 1.3.2 release

  ==> Input File <==

--------------------------------------------------------------------------
#psi4
#
memory 32 gb

molecule  {
0 1
  C        1.6145290    -0.0000010     0.5621290
  C        2.6370444    -0.7199238    -0.2780693
  C        2.5582240     0.7522500    -0.3397120
  C        0.1480820    -0.0000010     0.2808970
  C       -0.5548080     1.2061540     0.1589450
  C       -0.5548100    -1.2061550     0.1589460
  C       -1.9306470     1.2078790    -0.0767010
  C       -1.9306490    -1.2078780    -0.0767020
  C       -2.6220200     0.0000010    -0.1960300
  H        1.8787490    -0.0000050     1.6191980
  H        2.1259860    -1.2531880    -1.2001610
  H        3.4001610    -1.2700850     0.1085340
  H        3.4001670     1.2700790     0.1085380
  H        2.1259890     1.2531940    -1.2001560
  H       -0.0142320     2.1466170     0.2491570
  H       -0.0142360    -2.1466190     0.2491580
  H       -2.4630520     2.1516370    -0.1717350
  H       -2.4630540    -2.1516360    -0.1717360
  H       -3.6932210     0.0000030    -0.3831350
units angstrom
no_reorient  #important for SAPT in psi4, default
symmetry c1  #important for SAPT in psi4, default
}

set PROPERTIES_ORIGIN ["COM"]
properties('MP2/aug-cc-pvtz', properties = ['dipole'])
--------------------------------------------------------------------------

    Molecular point group: c1
  Charge       = 0
  Multiplicity = 1
  Basis Set: AUG-CC-PVTZ
    Blend: AUG-CC-PVTZ
  Basis Set: (AUG-CC-PVTZ AUX)
    Blend: AUG-CC-PVTZ-JKFIT

    Orbital Energies [Eh]
    ---------------------

    Doubly Occupied:

       1A    -11.241199     2A    -11.234922     3A    -11.234840
       4A    -11.234491     5A    -11.232394     6A    -11.231446
       7A    -11.230862     8A    -11.228294     9A    -11.226560
      10A     -1.166804    11A     -1.131290    12A     -1.014472
      13A     -1.010289    14A     -0.857908    15A     -0.834770
      16A     -0.810494    17A     -0.773856    18A     -0.697362
      19A     -0.671292    20A     -0.639595    21A     -0.621284
      22A     -0.606839    23A     -0.582113    24A     -0.540569
      25A     -0.508312    26A     -0.499091    27A     -0.492706
      28A     -0.483061    29A     -0.435620    30A     -0.409200
      31A     -0.333827    32A     -0.324500

  @DF-RHF Final Energy:  -346.70756820697471

   => Energetics <=

    Nuclear Repulsion Energy =            403.1046913741319599
    One-Electron Energy =               -1266.5439940415146793
    Two-Electron Energy =                 516.7317344604078926
    Total Energy =                       -346.7075682069747700
  Basis Set: (AUG-CC-PVTZ AUX)
    Blend: AUG-CC-PVTZ-RI
    Molecular point group: c1

    Geometry (in Angstrom), charge = 0, multiplicity = 1:

       Center              X                  Y                   Z               Mass
    ------------   -----------------  -----------------  -----------------  -----------------
         C            1.642509441503    -0.003286104373     0.549206261685    12.000000000000
         C            2.665024841503    -0.723208904373    -0.290992038315    12.000000000000
         C            2.586204441503     0.748964895627    -0.352634738315    12.000000000000
         C            0.176062441503    -0.003286104373     0.267974261685    12.000000000000
         C           -0.526827558497     1.202868895627     0.146022261685    12.000000000000
         C           -0.526829558497    -1.209440104373     0.146023261685    12.000000000000
         C           -1.902666558497     1.204593895627    -0.089623738315    12.000000000000
         C           -1.902668558497    -1.211163104373    -0.089624738315    12.000000000000
         C           -2.594039558497    -0.003284104373    -0.208952738315    12.000000000000
         H            1.906729441503    -0.003290104373     1.606275261685     1.007825032230
         H            2.153966441503    -1.256473104373    -1.213083738315     1.007825032230
         H            3.428141441503    -1.273370104373     0.095611261685     1.007825032230
         H            3.428147441503     1.266793895627     0.095615261685     1.007825032230
         H            2.153969441503     1.249908895627    -1.213078738315     1.007825032230
         H            0.013748441503     2.143331895627     0.236234261685     1.007825032230
         H            0.013744441503    -2.149904104373     0.236235261685     1.007825032230
         H           -2.435071558497     2.148351895627    -0.184657738315     1.007825032230
         H           -2.435073558497    -2.154921104373    -0.184658738315     1.007825032230
         H           -3.665240558497    -0.003282104373    -0.396057738315     1.007825032230

  Basis Set: AUG-CC-PVTZ
    Blend: AUG-CC-PVTZ
  Basis Set: (AUG-CC-PVTZ AUX)
    Blend: AUG-CC-PVTZ-JKFIT
	 Reference Energy          =    -346.7075682069747131 [Eh]
	 Singles Energy            =      -0.0000000000000000 [Eh]
	 Same-Spin Energy          =      -0.3878968673961699 [Eh]
	 Opposite-Spin Energy      =      -1.2558140948014984 [Eh]
	 Correlation Energy        =      -1.6437109621976682 [Eh]
	 Total Energy              =    -348.3512791691723578 [Eh]

	 ================> DF-SCS-MP2 Energies <==================
	-----------------------------------------------------------
	 SCS Same-Spin Scale       =       0.3333333333333333 [-]
	 SCS Opposite-Spin Scale   =       1.2000000000000000 [-]
	 SCS Same-Spin Energy      =      -0.1292989557987233 [Eh]
	 SCS Opposite-Spin Energy  =      -1.5069769137617981 [Eh]
	 SCS Correlation Energy    =      -1.6362758695605213 [Eh]
	 SCS Total Energy          =    -348.3438440765352198 [Eh]
	-----------------------------------------------------------

  Dipole Moment: [D]
     X:     0.2937      Y:    -0.0024      Z:     0.0852     Total:     0.3058

*** Psi4 exiting successfully. Buy a developer a beer!
