                               Psi4 1.3.2 release

  ==> Input File <==

--------------------------------------------------------------------------
#psi4
#
memory 32 gb

molecule  {
0 1
  C        1.6142543    -0.0260590     0.5623539
  C        2.5582230    -0.7522490    -0.3397160
  C        2.5582240     0.7522500    -0.3397120
  C        0.1480820    -0.0000010     0.2808970
  C       -0.5548080     1.2061540     0.1589450
  C       -0.5548100    -1.2061550     0.1589460
  C       -1.9306470     1.2078790    -0.0767010
  C       -1.9306490    -1.2078780    -0.0767020
  C       -2.6220200     0.0000010    -0.1960300
  H        1.8787490    -0.0000050     1.6191980
  H        2.1259860    -1.2531880    -1.2001610
  H        3.4001610    -1.2700850     0.1085340
  H        3.4001670     1.2700790     0.1085380
  H        2.1259890     1.2531940    -1.2001560
  H       -0.0142320     2.1466170     0.2491570
  H       -0.0142360    -2.1466190     0.2491580
  H       -2.4630520     2.1516370    -0.1717350
  H       -2.4630540    -2.1516360    -0.1717360
  H       -3.6932210     0.0000030    -0.3831350
units angstrom
no_reorient  #important for SAPT in psi4, default
symmetry c1  #important for SAPT in psi4, default
}

set PROPERTIES_ORIGIN ["COM"]
properties('MP2/aug-cc-pvtz', properties = ['dipole'])
--------------------------------------------------------------------------

    Molecular point group: c1
  Charge       = 0
  Multiplicity = 1
  Basis Set: AUG-CC-PVTZ
    Blend: AUG-CC-PVTZ
  Basis Set: (AUG-CC-PVTZ AUX)
    Blend: AUG-CC-PVTZ-JKFIT

    Orbital Energies [Eh]
    ---------------------

    Doubly Occupied:

       1A    -11.240066     2A    -11.235773     3A    -11.234731
       4A    -11.234322     5A    -11.232114     6A    -11.231044
       7A    -11.230374     8A    -11.227174     9A    -11.225872
      10A     -1.165007    11A     -1.128162    12A     -1.012795
      13A     -1.010063    14A     -0.856426    15A     -0.835007
      16A     -0.809093    17A     -0.774028    18A     -0.699317
      19A     -0.664654    20A     -0.635721    21A     -0.620902
      22A     -0.607965    23A     -0.581881    24A     -0.541737
      25A     -0.514481    26A     -0.500995    27A     -0.493164
      28A     -0.482781    29A     -0.430768    30A     -0.413022
      31A     -0.333698    32A     -0.323838

  @DF-RHF Final Energy:  -346.71967150466151

   => Energetics <=

    Nuclear Repulsion Energy =            403.3749707158289084
    One-Electron Energy =               -1267.1353312379137606
    Two-Electron Energy =                 517.0406890174233467
    Total Energy =                       -346.7196715046615054
  Basis Set: (AUG-CC-PVTZ AUX)
    Blend: AUG-CC-PVTZ-RI
    Molecular point group: c1

    Geometry (in Angstrom), charge = 0, multiplicity = 1:

       Center              X                  Y                   Z               Mass
    ------------   -----------------  -----------------  -----------------  -----------------
         C            1.650273082158    -0.023410764422     0.555673307025    12.000000000000
         C            2.594241782158    -0.749600764422    -0.346396592975    12.000000000000
         C            2.594242782158     0.754898235578    -0.346392592975    12.000000000000
         C            0.184100782158     0.002647235578     0.274216407025    12.000000000000
         C           -0.518789217842     1.208802235578     0.152264407025    12.000000000000
         C           -0.518791217842    -1.203506764422     0.152265407025    12.000000000000
         C           -1.894628217842     1.210527235578    -0.083381592975    12.000000000000
         C           -1.894630217842    -1.205229764422    -0.083382592975    12.000000000000
         C           -2.586001217842     0.002649235578    -0.202710592975    12.000000000000
         H            1.914767782158     0.002643235578     1.612517407025     1.007825032230
         H            2.162004782158    -1.250539764422    -1.206841592975     1.007825032230
         H            3.436179782158    -1.267436764422     0.101853407025     1.007825032230
         H            3.436185782158     1.272727235578     0.101857407025     1.007825032230
         H            2.162007782158     1.255842235578    -1.206836592975     1.007825032230
         H            0.021786782158     2.149265235578     0.242476407025     1.007825032230
         H            0.021782782158    -2.143970764422     0.242477407025     1.007825032230
         H           -2.427033217842     2.154285235578    -0.178415592975     1.007825032230
         H           -2.427035217842    -2.148987764422    -0.178416592975     1.007825032230
         H           -3.657202217842     0.002651235578    -0.389815592975     1.007825032230

  Basis Set: AUG-CC-PVTZ
    Blend: AUG-CC-PVTZ
  Basis Set: (AUG-CC-PVTZ AUX)
    Blend: AUG-CC-PVTZ-JKFIT
	 Reference Energy          =    -346.7196715046615054 [Eh]
	 Singles Energy            =      -0.0000000000000000 [Eh]
	 Same-Spin Energy          =      -0.3876834423083334 [Eh]
	 Opposite-Spin Energy      =      -1.2553920312663229 [Eh]
	 Correlation Energy        =      -1.6430754735746564 [Eh]
	 Total Energy              =    -348.3627469782361459 [Eh]

	 ================> DF-SCS-MP2 Energies <==================
	-----------------------------------------------------------
	 SCS Same-Spin Scale       =       0.3333333333333333 [-]
	 SCS Opposite-Spin Scale   =       1.2000000000000000 [-]
	 SCS Same-Spin Energy      =      -0.1292278141027778 [Eh]
	 SCS Opposite-Spin Energy  =      -1.5064704375195874 [Eh]
	 SCS Correlation Energy    =      -1.6356982516223653 [Eh]
	 SCS Total Energy          =    -348.3553697562838920 [Eh]
	-----------------------------------------------------------

  Dipole Moment: [D]
     X:     0.2811      Y:    -0.0166      Z:     0.0627     Total:     0.2885

*** Psi4 exiting successfully. Buy a developer a beer!
