                               Psi4 1.4a3.dev225

  ==> Input File <==

--------------------------------------------------------------------------
#psi4
#
memory 32 gb

molecule  {
0 1
  C        1.6145290    -0.0000010     0.5621290
  C        2.5582230    -0.7522490    -0.3397160
  C        2.5582240     0.7522500    -0.3397120
  C        0.1677241    -0.0000010     0.2846639
  C       -0.5548080     1.2061540     0.1589450
  C       -0.5548100    -1.2061550     0.1589460
  C       -1.9306470     1.2078790    -0.0767010
  C       -1.9306490    -1.2078780    -0.0767020
  C       -2.6220200     0.0000010    -0.1960300
  H        1.8787490    -0.0000050     1.6191980
  H        2.1259860    -1.2531880    -1.2001610
  H        3.4001610    -1.2700850     0.1085340
  H        3.4001670     1.2700790     0.1085380
  H        2.1259890     1.2531940    -1.2001560
  H       -0.0142320     2.1466170     0.2491570
  H       -0.0142360    -2.1466190     0.2491580
  H       -2.4630520     2.1516370    -0.1717350
  H       -2.4630540    -2.1516360    -0.1717360
  H       -3.6932210     0.0000030    -0.3831350
units angstrom
no_reorient  #important for SAPT in psi4, default
symmetry c1  #important for SAPT in psi4, default
}

set PROPERTIES_ORIGIN ["COM"]
properties('MP2/aug-cc-pvtz', properties = ['dipole'])
--------------------------------------------------------------------------

    Molecular point group: c1
  Charge       = 0
  Multiplicity = 1
  Basis Set: AUG-CC-PVTZ
    Blend: AUG-CC-PVTZ
  Basis Set: (AUG-CC-PVTZ AUX)
    Blend: AUG-CC-PVTZ-JKFIT

    Orbital Energies [Eh]
    ---------------------

    Doubly Occupied:

       1A    -11.241158     2A    -11.235155     3A    -11.234608
       4A    -11.234292     5A    -11.232294     6A    -11.231711
       7A    -11.231589     8A    -11.227364     9A    -11.226713
      10A     -1.165491    11A     -1.127670    12A     -1.012453
      13A     -1.008944    14A     -0.859756    15A     -0.834902
      16A     -0.808342    17A     -0.773646    18A     -0.699159
      19A     -0.665838    20A     -0.637200    21A     -0.619960
      22A     -0.607907    23A     -0.580460    24A     -0.542291
      25A     -0.514957    26A     -0.500066    27A     -0.491446
      28A     -0.486070    29A     -0.429666    30A     -0.414927
      31A     -0.333285    32A     -0.322017

  @DF-RHF Final Energy:  -346.71896669529758

   => Energetics <=

    Nuclear Repulsion Energy =            403.3109310155398930
    One-Electron Energy =               -1266.9971222235565165
    Two-Electron Energy =                 516.9672245127190990
    Total Energy =                       -346.7189666952975813
  Basis Set: (AUG-CC-PVTZ AUX)
    Blend: AUG-CC-PVTZ-RI
    Molecular point group: c1

    Geometry (in Angstrom), charge = 0, multiplicity = 1:

       Center              X                  Y                   Z               Mass
    ------------   -----------------  -----------------  -----------------  -----------------
         C            1.648523687125    -0.000000974394     0.555088442341    12.000000000000
         C            2.592217687125    -0.752248974394    -0.346756557659    12.000000000000
         C            2.592218687125     0.752250025606    -0.346752557659    12.000000000000
         C            0.201718787125    -0.000000974394     0.277623342341    12.000000000000
         C           -0.520813312875     1.206154025606     0.151904442341    12.000000000000
         C           -0.520815312875    -1.206154974394     0.151905442341    12.000000000000
         C           -1.896652312875     1.207879025606    -0.083741557659    12.000000000000
         C           -1.896654312875    -1.207877974394    -0.083742557659    12.000000000000
         C           -2.588025312875     0.000001025606    -0.203070557659    12.000000000000
         H            1.912743687125    -0.000004974394     1.612157442341     1.007825032230
         H            2.159980687125    -1.253187974394    -1.207201557659     1.007825032230
         H            3.434155687125    -1.270084974394     0.101493442341     1.007825032230
         H            3.434161687125     1.270079025606     0.101497442341     1.007825032230
         H            2.159983687125     1.253194025606    -1.207196557659     1.007825032230
         H            0.019762687125     2.146617025606     0.242116442341     1.007825032230
         H            0.019758687125    -2.146618974394     0.242117442341     1.007825032230
         H           -2.429057312875     2.151637025606    -0.178775557659     1.007825032230
         H           -2.429059312875    -2.151635974394    -0.178776557659     1.007825032230
         H           -3.659226312875     0.000003025606    -0.390175557659     1.007825032230

  Basis Set: AUG-CC-PVTZ
    Blend: AUG-CC-PVTZ
  Basis Set: (AUG-CC-PVTZ AUX)
    Blend: AUG-CC-PVTZ-JKFIT
	 Reference Energy          =    -346.7189666952975813 [Eh]
	 Singles Energy            =      -0.0000000000000000 [Eh]
	 Same-Spin Energy          =      -0.3879026598538984 [Eh]
	 Opposite-Spin Energy      =      -1.2557455849473889 [Eh]
	 Correlation Energy        =      -1.6436482448012872 [Eh]
	 Total Energy              =    -348.3626149400988652 [Eh]

	 ================> DF-SCS-MP2 Energies <==================
	-----------------------------------------------------------
	 SCS Same-Spin Scale       =       0.3333333333333333 [-]
	 SCS Opposite-Spin Scale   =       1.2000000000000000 [-]
	 SCS Same-Spin Energy      =      -0.1293008866179661 [Eh]
	 SCS Opposite-Spin Energy  =      -1.5068947019368666 [Eh]
	 SCS Correlation Energy    =      -1.6361955885548327 [Eh]
	 SCS Total Energy          =    -348.3551622838523940 [Eh]
	-----------------------------------------------------------

  Dipole Moment: [D]
     X:     0.3141      Y:    -0.0000      Z:     0.0630     Total:     0.3204

*** Psi4 exiting successfully. Buy a developer a beer!
