                               Psi4 1.3.2 release

  ==> Input File <==

--------------------------------------------------------------------------
#psi4
#
memory 32 gb

molecule  {
0 1
  C        1.6145290    -0.0000010     0.5621290
  C        2.5982329    -0.7365351    -0.3094236
  C        2.5582240     0.7522500    -0.3397120
  C        0.1480820    -0.0000010     0.2808970
  C       -0.5548080     1.2061540     0.1589450
  C       -0.5548100    -1.2061550     0.1589460
  C       -1.9306470     1.2078790    -0.0767010
  C       -1.9306490    -1.2078780    -0.0767020
  C       -2.6220200     0.0000010    -0.1960300
  H        1.8787490    -0.0000050     1.6191980
  H        2.1259860    -1.2531880    -1.2001610
  H        3.4001610    -1.2700850     0.1085340
  H        3.4001670     1.2700790     0.1085380
  H        2.1259890     1.2531940    -1.2001560
  H       -0.0142320     2.1466170     0.2491570
  H       -0.0142360    -2.1466190     0.2491580
  H       -2.4630520     2.1516370    -0.1717350
  H       -2.4630540    -2.1516360    -0.1717360
  H       -3.6932210     0.0000030    -0.3831350
units angstrom
no_reorient  #important for SAPT in psi4, default
symmetry c1  #important for SAPT in psi4, default
}

set PROPERTIES_ORIGIN ["COM"]
properties('MP2/aug-cc-pvtz', properties = ['dipole'])
--------------------------------------------------------------------------

    Molecular point group: c1
  Charge       = 0
  Multiplicity = 1
  Basis Set: AUG-CC-PVTZ
    Blend: AUG-CC-PVTZ
  Basis Set: (AUG-CC-PVTZ AUX)
    Blend: AUG-CC-PVTZ-JKFIT

    Orbital Energies [Eh]
    ---------------------

    Doubly Occupied:

       1A    -11.240555     2A    -11.235020     3A    -11.234751
       4A    -11.234417     5A    -11.232219     6A    -11.231038
       7A    -11.230743     8A    -11.227152     9A    -11.226193
      10A     -1.165774    11A     -1.129689    12A     -1.013587
      13A     -1.010144    14A     -0.856999    15A     -0.834436
      16A     -0.809264    17A     -0.773638    18A     -0.698262
      19A     -0.668000    20A     -0.637365    21A     -0.621051
      22A     -0.606886    23A     -0.581968    24A     -0.540830
      25A     -0.511023    26A     -0.501194    27A     -0.493017
      28A     -0.482966    29A     -0.432498    30A     -0.412643
      31A     -0.333734    32A     -0.324160

  @DF-RHF Final Energy:  -346.71683241231688

   => Energetics <=

    Nuclear Repulsion Energy =            403.2347172049135793
    One-Electron Energy =               -1266.8406641003493860
    Two-Electron Energy =                 516.8891144831189877
    Total Energy =                       -346.7168324123168759
  Basis Set: (AUG-CC-PVTZ AUX)
    Blend: AUG-CC-PVTZ-RI
    Molecular point group: c1

    Geometry (in Angstrom), charge = 0, multiplicity = 1:

       Center              X                  Y                   Z               Mass
    ------------   -----------------  -----------------  -----------------  -----------------
         C            1.646453758079    -0.001597939115     0.552392721503    12.000000000000
         C            2.630157658079    -0.738132039115    -0.319159878497    12.000000000000
         C            2.590148758079     0.750653060885    -0.349448278497    12.000000000000
         C            0.180006758079    -0.001597939115     0.271160721503    12.000000000000
         C           -0.522883241921     1.204557060885     0.149208721503    12.000000000000
         C           -0.522885241921    -1.207751939115     0.149209721503    12.000000000000
         C           -1.898722241921     1.206282060885    -0.086437278497    12.000000000000
         C           -1.898724241921    -1.209474939115    -0.086438278497    12.000000000000
         C           -2.590095241921    -0.001595939115    -0.205766278497    12.000000000000
         H            1.910673758079    -0.001601939115     1.609461721503     1.007825032230
         H            2.157910758079    -1.254784939115    -1.209897278497     1.007825032230
         H            3.432085758079    -1.271681939115     0.098797721503     1.007825032230
         H            3.432091758079     1.268482060885     0.098801721503     1.007825032230
         H            2.157913758079     1.251597060885    -1.209892278497     1.007825032230
         H            0.017692758079     2.145020060885     0.239420721503     1.007825032230
         H            0.017688758079    -2.148215939115     0.239421721503     1.007825032230
         H           -2.431127241921     2.150040060885    -0.181471278497     1.007825032230
         H           -2.431129241921    -2.153232939115    -0.181472278497     1.007825032230
         H           -3.661296241921    -0.001593939115    -0.392871278497     1.007825032230

  Basis Set: AUG-CC-PVTZ
    Blend: AUG-CC-PVTZ
  Basis Set: (AUG-CC-PVTZ AUX)
    Blend: AUG-CC-PVTZ-JKFIT
	 Reference Energy          =    -346.7168324123168759 [Eh]
	 Singles Energy            =      -0.0000000000000000 [Eh]
	 Same-Spin Energy          =      -0.3877309562871510 [Eh]
	 Opposite-Spin Energy      =      -1.2554136820346955 [Eh]
	 Correlation Energy        =      -1.6431446383218464 [Eh]
	 Total Energy              =    -348.3599770506387472 [Eh]

	 ================> DF-SCS-MP2 Energies <==================
	-----------------------------------------------------------
	 SCS Same-Spin Scale       =       0.3333333333333333 [-]
	 SCS Opposite-Spin Scale   =       1.2000000000000000 [-]
	 SCS Same-Spin Energy      =      -0.1292436520957170 [Eh]
	 SCS Opposite-Spin Energy  =      -1.5064964184416345 [Eh]
	 SCS Correlation Energy    =      -1.6357400705373515 [Eh]
	 SCS Total Energy          =    -348.3525724828542138 [Eh]
	-----------------------------------------------------------

  Dipole Moment: [D]
     X:     0.2906      Y:    -0.0069      Z:     0.0708     Total:     0.2992

*** Psi4 exiting successfully. Buy a developer a beer!
