                               Psi4 1.3.2 release

  ==> Input File <==

--------------------------------------------------------------------------
#psi4
#
memory 32 gb

molecule  {
0 1
  C        1.6145290    -0.0000010     0.5621290
  C        2.5582230    -0.7522490    -0.3397160
  C        2.5582240     0.7522500    -0.3397120
  C        0.1855121    -0.0000004     0.1291522
  C       -0.5548080     1.2061540     0.1589450
  C       -0.5548100    -1.2061550     0.1589460
  C       -1.9306470     1.2078790    -0.0767010
  C       -1.9306490    -1.2078780    -0.0767020
  C       -2.6220200     0.0000010    -0.1960300
  H        1.8787490    -0.0000050     1.6191980
  H        2.1259860    -1.2531880    -1.2001610
  H        3.4001610    -1.2700850     0.1085340
  H        3.4001670     1.2700790     0.1085380
  H        2.1259890     1.2531940    -1.2001560
  H       -0.0142320     2.1466170     0.2491570
  H       -0.0142360    -2.1466190     0.2491580
  H       -2.4630520     2.1516370    -0.1717350
  H       -2.4630540    -2.1516360    -0.1717360
  H       -3.6932210     0.0000030    -0.3831350
units angstrom
no_reorient  #important for SAPT in psi4, default
symmetry c1  #important for SAPT in psi4, default
}

set PROPERTIES_ORIGIN ["COM"]
properties('MP2/aug-cc-pvtz', properties = ['dipole'])
--------------------------------------------------------------------------

    Molecular point group: c1
  Charge       = 0
  Multiplicity = 1
  Basis Set: AUG-CC-PVTZ
    Blend: AUG-CC-PVTZ
  Basis Set: (AUG-CC-PVTZ AUX)
    Blend: AUG-CC-PVTZ-JKFIT

    Orbital Energies [Eh]
    ---------------------

    Doubly Occupied:

       1A    -11.241751     2A    -11.235987     3A    -11.235400
       4A    -11.234714     5A    -11.234136     6A    -11.233456
       7A    -11.233185     8A    -11.224591     9A    -11.223929
      10A     -1.165228    11A     -1.127794    12A     -1.010322
      13A     -1.009691    14A     -0.853995    15A     -0.834116
      16A     -0.807154    17A     -0.773349    18A     -0.700956
      19A     -0.667400    20A     -0.632012    21A     -0.619032
      22A     -0.606578    23A     -0.581371    24A     -0.543556
      25A     -0.513330    26A     -0.498104    27A     -0.491690
      28A     -0.488719    29A     -0.422334    30A     -0.414159
      31A     -0.332742    32A     -0.323956

  @DF-RHF Final Energy:  -346.70981906514959

   => Energetics <=

    Nuclear Repulsion Energy =            403.4140129936260450
    One-Electron Energy =               -1267.2181891209759215
    Two-Electron Energy =                 517.0943570622002881
    Total Energy =                       -346.7098190651495315
  Basis Set: (AUG-CC-PVTZ AUX)
    Blend: AUG-CC-PVTZ-RI
    Molecular point group: c1

    Geometry (in Angstrom), charge = 0, multiplicity = 1:

       Center              X                  Y                   Z               Mass
    ------------   -----------------  -----------------  -----------------  -----------------
         C            1.646715936761    -0.000001035371     0.570892711078    12.000000000000
         C            2.590409936761    -0.752249035371    -0.330952288922    12.000000000000
         C            2.590410936761     0.752249964629    -0.330948288922    12.000000000000
         C            0.217699036761    -0.000000435371     0.137915911078    12.000000000000
         C           -0.522621063239     1.206153964629     0.167708711078    12.000000000000
         C           -0.522623063239    -1.206155035371     0.167709711078    12.000000000000
         C           -1.898460063239     1.207878964629    -0.067937288922    12.000000000000
         C           -1.898462063239    -1.207878035371    -0.067938288922    12.000000000000
         C           -2.589833063239     0.000000964629    -0.187266288922    12.000000000000
         H            1.910935936761    -0.000005035371     1.627961711078     1.007825032230
         H            2.158172936761    -1.253188035371    -1.191397288922     1.007825032230
         H            3.432347936761    -1.270085035371     0.117297711078     1.007825032230
         H            3.432353936761     1.270078964629     0.117301711078     1.007825032230
         H            2.158175936761     1.253193964629    -1.191392288922     1.007825032230
         H            0.017954936761     2.146616964629     0.257920711078     1.007825032230
         H            0.017950936761    -2.146619035371     0.257921711078     1.007825032230
         H           -2.430865063239     2.151636964629    -0.162971288922     1.007825032230
         H           -2.430867063239    -2.151636035371    -0.162972288922     1.007825032230
         H           -3.661034063239     0.000002964629    -0.374371288922     1.007825032230

  Basis Set: AUG-CC-PVTZ
    Blend: AUG-CC-PVTZ
  Basis Set: (AUG-CC-PVTZ AUX)
    Blend: AUG-CC-PVTZ-JKFIT
	 Reference Energy          =    -346.7098190651495884 [Eh]
	 Singles Energy            =      -0.0000000000000000 [Eh]
	 Same-Spin Energy          =      -0.3884485498304736 [Eh]
	 Opposite-Spin Energy      =      -1.2571074725387685 [Eh]
	 Correlation Energy        =      -1.6455560223692420 [Eh]
	 Total Energy              =    -348.3553750875188371 [Eh]

	 ================> DF-SCS-MP2 Energies <==================
	-----------------------------------------------------------
	 SCS Same-Spin Scale       =       0.3333333333333333 [-]
	 SCS Opposite-Spin Scale   =       1.2000000000000000 [-]
	 SCS Same-Spin Energy      =      -0.1294828499434912 [Eh]
	 SCS Opposite-Spin Energy  =      -1.5085289670465223 [Eh]
	 SCS Correlation Energy    =      -1.6380118169900135 [Eh]
	 SCS Total Energy          =    -348.3478308821395899 [Eh]
	-----------------------------------------------------------

  Dipole Moment: [D]
     X:     0.1558      Y:    -0.0000      Z:     0.1464     Total:     0.2138

*** Psi4 exiting successfully. Buy a developer a beer!
