                               Psi4 1.3.2 release

  ==> Input File <==

--------------------------------------------------------------------------
#psi4
#
memory 32 gb

molecule  {
0 1
  C        1.6145290    -0.0000010     0.5621290
  C        2.4748040    -0.7809093    -0.3969690
  C        2.5582240     0.7522500    -0.3397120
  C        0.1480820    -0.0000010     0.2808970
  C       -0.5548080     1.2061540     0.1589450
  C       -0.5548100    -1.2061550     0.1589460
  C       -1.9306470     1.2078790    -0.0767010
  C       -1.9306490    -1.2078780    -0.0767020
  C       -2.6220200     0.0000010    -0.1960300
  H        1.8787490    -0.0000050     1.6191980
  H        2.1259860    -1.2531880    -1.2001610
  H        3.4001610    -1.2700850     0.1085340
  H        3.4001670     1.2700790     0.1085380
  H        2.1259890     1.2531940    -1.2001560
  H       -0.0142320     2.1466170     0.2491570
  H       -0.0142360    -2.1466190     0.2491580
  H       -2.4630520     2.1516370    -0.1717350
  H       -2.4630540    -2.1516360    -0.1717360
  H       -3.6932210     0.0000030    -0.3831350
units angstrom
no_reorient  #important for SAPT in psi4, default
symmetry c1  #important for SAPT in psi4, default
}

set PROPERTIES_ORIGIN ["COM"]
properties('MP2/aug-cc-pvtz', properties = ['dipole'])
--------------------------------------------------------------------------

    Molecular point group: c1
  Charge       = 0
  Multiplicity = 1
  Basis Set: AUG-CC-PVTZ
    Blend: AUG-CC-PVTZ
  Basis Set: (AUG-CC-PVTZ AUX)
    Blend: AUG-CC-PVTZ-JKFIT

    Orbital Energies [Eh]
    ---------------------

    Doubly Occupied:

       1A    -11.239453     2A    -11.238279     3A    -11.234783
       4A    -11.234390     5A    -11.232090     6A    -11.230822
       7A    -11.230303     8A    -11.228165     9A    -11.227338
      10A     -1.164299    11A     -1.125627    12A     -1.011392
      13A     -1.010128    14A     -0.856367    15A     -0.839576
      16A     -0.811844    17A     -0.776136    18A     -0.701129
      19A     -0.658801    20A     -0.637018    21A     -0.621021
      22A     -0.611489    23A     -0.581872    24A     -0.543026
      25A     -0.518046    26A     -0.498536    27A     -0.493331
      28A     -0.482726    29A     -0.420803    30A     -0.416664
      31A     -0.333784    32A     -0.323448

  @DF-RHF Final Energy:  -346.70647443322031

   => Energetics <=

    Nuclear Repulsion Energy =            403.7274242711343959
    One-Electron Energy =               -1267.8024230786388671
    Two-Electron Energy =                 517.3685243742842204
    Total Energy =                       -346.7064744332202508
  Basis Set: (AUG-CC-PVTZ AUX)
    Blend: AUG-CC-PVTZ-RI
    Molecular point group: c1

    Geometry (in Angstrom), charge = 0, multiplicity = 1:

       Center              X                  Y                   Z               Mass
    ------------   -----------------  -----------------  -----------------  -----------------
         C            1.658997531348     0.002911700879     0.561289743580    12.000000000000
         C            2.519272531348    -0.777996599121    -0.397808256420    12.000000000000
         C            2.602692531348     0.755162700879    -0.340551256420    12.000000000000
         C            0.192550531348     0.002911700879     0.280057743580    12.000000000000
         C           -0.510339468652     1.209066700879     0.158105743580    12.000000000000
         C           -0.510341468652    -1.203242299121     0.158106743580    12.000000000000
         C           -1.886178468652     1.210791700879    -0.077540256420    12.000000000000
         C           -1.886180468652    -1.204965299121    -0.077541256420    12.000000000000
         C           -2.577551468652     0.002913700879    -0.196869256420    12.000000000000
         H            1.923217531348     0.002907700879     1.618358743580     1.007825032230
         H            2.170454531348    -1.250275299121    -1.201000256420     1.007825032230
         H            3.444629531348    -1.267172299121     0.107694743580     1.007825032230
         H            3.444635531348     1.272991700879     0.107698743580     1.007825032230
         H            2.170457531348     1.256106700879    -1.200995256420     1.007825032230
         H            0.030236531348     2.149529700879     0.248317743580     1.007825032230
         H            0.030232531348    -2.143706299121     0.248318743580     1.007825032230
         H           -2.418583468652     2.154549700879    -0.172574256420     1.007825032230
         H           -2.418585468652    -2.148723299121    -0.172575256420     1.007825032230
         H           -3.648752468652     0.002915700879    -0.383974256420     1.007825032230

  Basis Set: AUG-CC-PVTZ
    Blend: AUG-CC-PVTZ
  Basis Set: (AUG-CC-PVTZ AUX)
    Blend: AUG-CC-PVTZ-JKFIT
	 Reference Energy          =    -346.7064744332203077 [Eh]
	 Singles Energy            =      -0.0000000000000000 [Eh]
	 Same-Spin Energy          =      -0.3878267699928886 [Eh]
	 Opposite-Spin Energy      =      -1.2562581040904668 [Eh]
	 Correlation Energy        =      -1.6440848740833554 [Eh]
	 Total Energy              =    -348.3505593073036835 [Eh]

	 ================> DF-SCS-MP2 Energies <==================
	-----------------------------------------------------------
	 SCS Same-Spin Scale       =       0.3333333333333333 [-]
	 SCS Opposite-Spin Scale   =       1.2000000000000000 [-]
	 SCS Same-Spin Energy      =      -0.1292755899976295 [Eh]
	 SCS Opposite-Spin Energy  =      -1.5075097249085601 [Eh]
	 SCS Correlation Energy    =      -1.6367853149061895 [Eh]
	 SCS Total Energy          =    -348.3432597481265134 [Eh]
	-----------------------------------------------------------

  Dipole Moment: [D]
     X:     0.2426      Y:     0.0482      Z:     0.0653     Total:     0.2558

*** Psi4 exiting successfully. Buy a developer a beer!
