                               Psi4 1.3.2 release

  ==> Input File <==

--------------------------------------------------------------------------
#psi4
#
memory 32 gb

molecule  {
0 1
  C        1.6145290    -0.0000010     0.5621290
  C        2.5783748    -0.7445054    -0.3247049
  C        2.5582240     0.7522500    -0.3397120
  C        0.1480820    -0.0000010     0.2808970
  C       -0.5548080     1.2061540     0.1589450
  C       -0.5548100    -1.2061550     0.1589460
  C       -1.9306470     1.2078790    -0.0767010
  C       -1.9306490    -1.2078780    -0.0767020
  C       -2.6220200     0.0000010    -0.1960300
  H        1.8787490    -0.0000050     1.6191980
  H        2.1259860    -1.2531880    -1.2001610
  H        3.4001610    -1.2700850     0.1085340
  H        3.4001670     1.2700790     0.1085380
  H        2.1259890     1.2531940    -1.2001560
  H       -0.0142320     2.1466170     0.2491570
  H       -0.0142360    -2.1466190     0.2491580
  H       -2.4630520     2.1516370    -0.1717350
  H       -2.4630540    -2.1516360    -0.1717360
  H       -3.6932210     0.0000030    -0.3831350
units angstrom
no_reorient  #important for SAPT in psi4, default
symmetry c1  #important for SAPT in psi4, default
}

set PROPERTIES_ORIGIN ["COM"]
properties('MP2/aug-cc-pvtz', properties = ['dipole'])
--------------------------------------------------------------------------

    Molecular point group: c1
  Charge       = 0
  Multiplicity = 1
  Basis Set: AUG-CC-PVTZ
    Blend: AUG-CC-PVTZ
  Basis Set: (AUG-CC-PVTZ AUX)
    Blend: AUG-CC-PVTZ-JKFIT

    Orbital Energies [Eh]
    ---------------------

    Doubly Occupied:

       1A    -11.240278     2A    -11.235280     3A    -11.234697
       4A    -11.234392     5A    -11.232155     6A    -11.230869
       7A    -11.230704     8A    -11.226882     9A    -11.226143
      10A     -1.165365    11A     -1.128927    12A     -1.013170
      13A     -1.010095    14A     -0.856652    15A     -0.834606
      16A     -0.809028    17A     -0.773763    18A     -0.698786
      19A     -0.666322    20A     -0.636452    21A     -0.620958
      22A     -0.607310    23A     -0.581914    24A     -0.541236
      25A     -0.512823    26A     -0.501256    27A     -0.493085
      28A     -0.482891    29A     -0.430559    30A     -0.414130
      31A     -0.333706    32A     -0.324009

  @DF-RHF Final Energy:  -346.71923330023498

   => Energetics <=

    Nuclear Repulsion Energy =            403.3054197278704009
    One-Electron Energy =               -1266.9924230412968882
    Two-Electron Energy =                 516.9677700131913980
    Total Energy =                       -346.7192333002350324
  Basis Set: (AUG-CC-PVTZ AUX)
    Blend: AUG-CC-PVTZ-RI
    Molecular point group: c1

    Geometry (in Angstrom), charge = 0, multiplicity = 1:

       Center              X                  Y                   Z               Mass
    ------------   -----------------  -----------------  -----------------  -----------------
         C            1.648471887577    -0.000787937275     0.553945722157    12.000000000000
         C            2.612317687577    -0.745292337275    -0.332888177843    12.000000000000
         C            2.592166887577     0.751463062725    -0.347895277843    12.000000000000
         C            0.182024887577    -0.000787937275     0.272713722157    12.000000000000
         C           -0.520865112423     1.205367062725     0.150761722157    12.000000000000
         C           -0.520867112423    -1.206941937275     0.150762722157    12.000000000000
         C           -1.896704112423     1.207092062725    -0.084884277843    12.000000000000
         C           -1.896706112423    -1.208664937275    -0.084885277843    12.000000000000
         C           -2.588077112423    -0.000785937275    -0.204213277843    12.000000000000
         H            1.912691887577    -0.000791937275     1.611014722157     1.007825032230
         H            2.159928887577    -1.253974937275    -1.208344277843     1.007825032230
         H            3.434103887577    -1.270871937275     0.100350722157     1.007825032230
         H            3.434109887577     1.269292062725     0.100354722157     1.007825032230
         H            2.159931887577     1.252407062725    -1.208339277843     1.007825032230
         H            0.019710887577     2.145830062725     0.240973722157     1.007825032230
         H            0.019706887577    -2.147405937275     0.240974722157     1.007825032230
         H           -2.429109112423     2.150850062725    -0.179918277843     1.007825032230
         H           -2.429111112423    -2.152422937275    -0.179919277843     1.007825032230
         H           -3.659278112423    -0.000783937275    -0.391318277843     1.007825032230

  Basis Set: AUG-CC-PVTZ
    Blend: AUG-CC-PVTZ
  Basis Set: (AUG-CC-PVTZ AUX)
    Blend: AUG-CC-PVTZ-JKFIT
	 Reference Energy          =    -346.7192333002349756 [Eh]
	 Singles Energy            =      -0.0000000000000000 [Eh]
	 Same-Spin Energy          =      -0.3876839501723833 [Eh]
	 Opposite-Spin Energy      =      -1.2553356448856732 [Eh]
	 Correlation Energy        =      -1.6430195950580564 [Eh]
	 Total Energy              =    -348.3622528952930111 [Eh]

	 ================> DF-SCS-MP2 Energies <==================
	-----------------------------------------------------------
	 SCS Same-Spin Scale       =       0.3333333333333333 [-]
	 SCS Opposite-Spin Scale   =       1.2000000000000000 [-]
	 SCS Same-Spin Energy      =      -0.1292279833907944 [Eh]
	 SCS Opposite-Spin Energy  =      -1.5064027738628079 [Eh]
	 SCS Correlation Energy    =      -1.6356307572536024 [Eh]
	 SCS Total Energy          =    -348.3548640574885553 [Eh]
	-----------------------------------------------------------

  Dipole Moment: [D]
     X:     0.2870      Y:    -0.0049      Z:     0.0660     Total:     0.2945

*** Psi4 exiting successfully. Buy a developer a beer!
