                               Psi4 1.3.2 release

  ==> Input File <==

--------------------------------------------------------------------------
#psi4
#
memory 32 gb

molecule  {
0 1
  C        1.6145290    -0.0000010     0.5621290
  C        2.5582230    -0.7522490    -0.3397160
  C        2.5582240     0.7522500    -0.3397120
  C       -0.0483386    -0.0000010     0.2432279
  C       -0.5548080     1.2061540     0.1589450
  C       -0.5548100    -1.2061550     0.1589460
  C       -1.9306470     1.2078790    -0.0767010
  C       -1.9306490    -1.2078780    -0.0767020
  C       -2.6220200     0.0000010    -0.1960300
  H        1.8787490    -0.0000050     1.6191980
  H        2.1259860    -1.2531880    -1.2001610
  H        3.4001610    -1.2700850     0.1085340
  H        3.4001670     1.2700790     0.1085380
  H        2.1259890     1.2531940    -1.2001560
  H       -0.0142320     2.1466170     0.2491570
  H       -0.0142360    -2.1466190     0.2491580
  H       -2.4630520     2.1516370    -0.1717350
  H       -2.4630540    -2.1516360    -0.1717360
  H       -3.6932210     0.0000030    -0.3831350
units angstrom
no_reorient  #important for SAPT in psi4, default
symmetry c1  #important for SAPT in psi4, default
}

set PROPERTIES_ORIGIN ["COM"]
properties('MP2/aug-cc-pvtz', properties = ['dipole'])
--------------------------------------------------------------------------

    Molecular point group: c1
  Charge       = 0
  Multiplicity = 1
  Basis Set: AUG-CC-PVTZ
    Blend: AUG-CC-PVTZ
  Basis Set: (AUG-CC-PVTZ AUX)
    Blend: AUG-CC-PVTZ-JKFIT

    Orbital Energies [Eh]
    ---------------------

    Doubly Occupied:

       1A    -11.236732     2A    -11.236621     3A    -11.235583
       4A    -11.232809     5A    -11.230665     6A    -11.223147
       7A    -11.222955     8A    -11.221594     9A    -11.220933
      10A     -1.175590    11A     -1.126446    12A     -1.025775
      13A     -1.015843    14A     -0.840545    15A     -0.829819
      16A     -0.812018    17A     -0.775742    18A     -0.703727
      19A     -0.654110    20A     -0.637921    21A     -0.627244
      22A     -0.603030    23A     -0.593677    24A     -0.539077
      25A     -0.517806    26A     -0.510680    27A     -0.508709
      28A     -0.443555    29A     -0.413096    30A     -0.405148
      31A     -0.339244    32A     -0.339191

  @DF-RHF Final Energy:  -346.67961698307238

   => Energetics <=

    Nuclear Repulsion Energy =            404.3741595706520684
    One-Electron Energy =               -1269.1094864403053180
    Two-Electron Energy =                 518.0557098865808712
    Total Energy =                       -346.6796169830723784
  Basis Set: (AUG-CC-PVTZ AUX)
    Blend: AUG-CC-PVTZ-RI
    Molecular point group: c1

    Geometry (in Angstrom), charge = 0, multiplicity = 1:

       Center              X                  Y                   Z               Mass
    ------------   -----------------  -----------------  -----------------  -----------------
         C            1.670481603955    -0.000000974394     0.559299480349    12.000000000000
         C            2.614175603955    -0.752248974394    -0.342545519651    12.000000000000
         C            2.614176603955     0.752250025606    -0.342541519651    12.000000000000
         C            0.007614003955    -0.000000974394     0.240398380349    12.000000000000
         C           -0.498855396045     1.206154025606     0.156115480349    12.000000000000
         C           -0.498857396045    -1.206154974394     0.156116480349    12.000000000000
         C           -1.874694396045     1.207879025606    -0.079530519651    12.000000000000
         C           -1.874696396045    -1.207877974394    -0.079531519651    12.000000000000
         C           -2.566067396045     0.000001025606    -0.198859519651    12.000000000000
         H            1.934701603955    -0.000004974394     1.616368480349     1.007825032230
         H            2.181938603955    -1.253187974394    -1.202990519651     1.007825032230
         H            3.456113603955    -1.270084974394     0.105704480349     1.007825032230
         H            3.456119603955     1.270079025606     0.105708480349     1.007825032230
         H            2.181941603955     1.253194025606    -1.202985519651     1.007825032230
         H            0.041720603955     2.146617025606     0.246327480349     1.007825032230
         H            0.041716603955    -2.146618974394     0.246328480349     1.007825032230
         H           -2.407099396045     2.151637025606    -0.174564519651     1.007825032230
         H           -2.407101396045    -2.151635974394    -0.174565519651     1.007825032230
         H           -3.637268396045     0.000003025606    -0.385964519651     1.007825032230

  Basis Set: AUG-CC-PVTZ
    Blend: AUG-CC-PVTZ
  Basis Set: (AUG-CC-PVTZ AUX)
    Blend: AUG-CC-PVTZ-JKFIT
	 Reference Energy          =    -346.6796169830723784 [Eh]
	 Singles Energy            =      -0.0000000000000000 [Eh]
	 Same-Spin Energy          =      -0.3878027208300865 [Eh]
	 Opposite-Spin Energy      =      -1.2556750840994733 [Eh]
	 Correlation Energy        =      -1.6434778049295597 [Eh]
	 Total Energy              =    -348.3230947880019244 [Eh]

	 ================> DF-SCS-MP2 Energies <==================
	-----------------------------------------------------------
	 SCS Same-Spin Scale       =       0.3333333333333333 [-]
	 SCS Opposite-Spin Scale   =       1.2000000000000000 [-]
	 SCS Same-Spin Energy      =      -0.1292675736100288 [Eh]
	 SCS Opposite-Spin Energy  =      -1.5068101009193680 [Eh]
	 SCS Correlation Energy    =      -1.6360776745293968 [Eh]
	 SCS Total Energy          =    -348.3156946576017958 [Eh]
	-----------------------------------------------------------

  Dipole Moment: [D]
     X:    -0.0466      Y:    -0.0000      Z:     0.0605     Total:     0.0764

*** Psi4 exiting successfully. Buy a developer a beer!
