                               Psi4 1.3.2 release

  ==> Input File <==

--------------------------------------------------------------------------
#psi4
#
memory 32 gb

molecule  {
0 1
  C        1.6145290    -0.0000010     0.5621290
  C        2.5582230    -0.7522490    -0.3397160
  C        2.5582240     0.7522500    -0.3397120
  C        0.1267186    -0.0000016     0.4357231
  C       -0.5548080     1.2061540     0.1589450
  C       -0.5548100    -1.2061550     0.1589460
  C       -1.9306470     1.2078790    -0.0767010
  C       -1.9306490    -1.2078780    -0.0767020
  C       -2.6220200     0.0000010    -0.1960300
  H        1.8787490    -0.0000050     1.6191980
  H        2.1259860    -1.2531880    -1.2001610
  H        3.4001610    -1.2700850     0.1085340
  H        3.4001670     1.2700790     0.1085380
  H        2.1259890     1.2531940    -1.2001560
  H       -0.0142320     2.1466170     0.2491570
  H       -0.0142360    -2.1466190     0.2491580
  H       -2.4630520     2.1516370    -0.1717350
  H       -2.4630540    -2.1516360    -0.1717360
  H       -3.6932210     0.0000030    -0.3831350
units angstrom
no_reorient  #important for SAPT in psi4, default
symmetry c1  #important for SAPT in psi4, default
}

set PROPERTIES_ORIGIN ["COM"]
properties('MP2/aug-cc-pvtz', properties = ['dipole'])
--------------------------------------------------------------------------

    Molecular point group: c1
  Charge       = 0
  Multiplicity = 1
  Basis Set: AUG-CC-PVTZ
    Blend: AUG-CC-PVTZ
  Basis Set: (AUG-CC-PVTZ AUX)
    Blend: AUG-CC-PVTZ-JKFIT

    Orbital Energies [Eh]
    ---------------------

    Doubly Occupied:

       1A    -11.242846     2A    -11.235183     3A    -11.234542
       4A    -11.234183     5A    -11.232922     6A    -11.232644
       7A    -11.232265     8A    -11.228469     9A    -11.227824
      10A     -1.162852    11A     -1.127495    12A     -1.012683
      13A     -1.009383    14A     -0.859439    15A     -0.833908
      16A     -0.808823    17A     -0.773027    18A     -0.697007
      19A     -0.662704    20A     -0.639811    21A     -0.618736
      22A     -0.608404    23A     -0.581318    24A     -0.538866
      25A     -0.515225    26A     -0.502192    27A     -0.491942
      28A     -0.474476    29A     -0.433652    30A     -0.415200
      31A     -0.332399    32A     -0.322515

  @DF-RHF Final Energy:  -346.71062614002875

   => Energetics <=

    Nuclear Repulsion Energy =            402.6813770653570828
    One-Electron Energy =               -1265.7381352076233725
    Two-Electron Energy =                 516.3461320022375958
    Total Energy =                       -346.7106261400286940
  Basis Set: (AUG-CC-PVTZ AUX)
    Blend: AUG-CC-PVTZ-RI
    Molecular point group: c1

    Geometry (in Angstrom), charge = 0, multiplicity = 1:

       Center              X                  Y                   Z               Mass
    ------------   -----------------  -----------------  -----------------  -----------------
         C            1.652690974484    -0.000000913418     0.539736670148    12.000000000000
         C            2.596384974484    -0.752248913418    -0.362108329852    12.000000000000
         C            2.596385974484     0.752250086582    -0.362104329852    12.000000000000
         C            0.164880574484    -0.000001513418     0.413330770148    12.000000000000
         C           -0.516646025516     1.206154086582     0.136552670148    12.000000000000
         C           -0.516648025516    -1.206154913418     0.136553670148    12.000000000000
         C           -1.892485025516     1.207879086582    -0.099093329852    12.000000000000
         C           -1.892487025516    -1.207877913418    -0.099094329852    12.000000000000
         C           -2.583858025516     0.000001086582    -0.218422329852    12.000000000000
         H            1.916910974484    -0.000004913418     1.596805670148     1.007825032230
         H            2.164147974484    -1.253187913418    -1.222553329852     1.007825032230
         H            3.438322974484    -1.270084913418     0.086141670148     1.007825032230
         H            3.438328974484     1.270079086582     0.086145670148     1.007825032230
         H            2.164150974484     1.253194086582    -1.222548329852     1.007825032230
         H            0.023929974484     2.146617086582     0.226764670148     1.007825032230
         H            0.023925974484    -2.146618913418     0.226765670148     1.007825032230
         H           -2.424890025516     2.151637086582    -0.194127329852     1.007825032230
         H           -2.424892025516    -2.151635913418    -0.194128329852     1.007825032230
         H           -3.655059025516     0.000003086582    -0.405527329852     1.007825032230

  Basis Set: AUG-CC-PVTZ
    Blend: AUG-CC-PVTZ
  Basis Set: (AUG-CC-PVTZ AUX)
    Blend: AUG-CC-PVTZ-JKFIT
	 Reference Energy          =    -346.7106261400287508 [Eh]
	 Singles Energy            =      -0.0000000000000000 [Eh]
	 Same-Spin Energy          =      -0.3879068841180280 [Eh]
	 Opposite-Spin Energy      =      -1.2562510438145604 [Eh]
	 Correlation Energy        =      -1.6441579279325884 [Eh]
	 Total Energy              =    -348.3547840679613614 [Eh]

	 ================> DF-SCS-MP2 Energies <==================
	-----------------------------------------------------------
	 SCS Same-Spin Scale       =       0.3333333333333333 [-]
	 SCS Opposite-Spin Scale   =       1.2000000000000000 [-]
	 SCS Same-Spin Energy      =      -0.1293022947060093 [Eh]
	 SCS Opposite-Spin Energy  =      -1.5075012525774725 [Eh]
	 SCS Correlation Energy    =      -1.6368035472834819 [Eh]
	 SCS Total Energy          =    -348.3474296873122285 [Eh]
	-----------------------------------------------------------

  Dipole Moment: [D]
     X:     0.3119      Y:    -0.0000      Z:    -0.0262     Total:     0.3130

*** Psi4 exiting successfully. Buy a developer a beer!
