                               Psi4 1.3.2 release

  ==> Input File <==

--------------------------------------------------------------------------
#psi4
#
memory 32 gb

molecule  {
0 1
  C        1.6145290    -0.0000010     0.5621290
  C        2.5582230    -0.7522490    -0.3397160
  C        2.5582240     0.7522500    -0.3397120
  C        0.3445026    -0.0000010     0.3185661
  C       -0.5548080     1.2061540     0.1589450
  C       -0.5548100    -1.2061550     0.1589460
  C       -1.9306470     1.2078790    -0.0767010
  C       -1.9306490    -1.2078780    -0.0767020
  C       -2.6220200     0.0000010    -0.1960300
  H        1.8787490    -0.0000050     1.6191980
  H        2.1259860    -1.2531880    -1.2001610
  H        3.4001610    -1.2700850     0.1085340
  H        3.4001670     1.2700790     0.1085380
  H        2.1259890     1.2531940    -1.2001560
  H       -0.0142320     2.1466170     0.2491570
  H       -0.0142360    -2.1466190     0.2491580
  H       -2.4630520     2.1516370    -0.1717350
  H       -2.4630540    -2.1516360    -0.1717360
  H       -3.6932210     0.0000030    -0.3831350
units angstrom
no_reorient  #important for SAPT in psi4, default
symmetry c1  #important for SAPT in psi4, default
}

set PROPERTIES_ORIGIN ["COM"]
properties('MP2/aug-cc-pvtz', properties = ['dipole'])
--------------------------------------------------------------------------

    Molecular point group: c1
  Charge       = 0
  Multiplicity = 1
  Basis Set: AUG-CC-PVTZ
    Blend: AUG-CC-PVTZ
  Basis Set: (AUG-CC-PVTZ AUX)
    Blend: AUG-CC-PVTZ-JKFIT

    Orbital Energies [Eh]
    ---------------------

    Doubly Occupied:

       1A    -11.251913     2A    -11.240874     3A    -11.240839
       4A    -11.233830     5A    -11.233802     6A    -11.233080
       7A    -11.232937     8A    -11.232128     9A    -11.227786
      10A     -1.182872    11A     -1.119593    12A     -1.012978
      13A     -1.000797    14A     -0.891463    15A     -0.837585
      16A     -0.799536    17A     -0.767958    18A     -0.702040
      19A     -0.675098    20A     -0.652336    21A     -0.614740
      22A     -0.603052    23A     -0.569283    24A     -0.551171
      25A     -0.520200    26A     -0.511536    27A     -0.486711
      28A     -0.484121    29A     -0.439918    30A     -0.397123
      31A     -0.330016    32A     -0.301927

  @DF-RHF Final Energy:  -346.65492473818659

   => Energetics <=

    Nuclear Repulsion Energy =            403.0443468407872274
    One-Electron Energy =               -1266.2400584491406335
    Two-Electron Energy =                 516.5407868701666985
    Total Energy =                       -346.6549247381866508
  Basis Set: (AUG-CC-PVTZ AUX)
    Blend: AUG-CC-PVTZ-RI
    Molecular point group: c1

    Geometry (in Angstrom), charge = 0, multiplicity = 1:

       Center              X                  Y                   Z               Mass
    ------------   -----------------  -----------------  -----------------  -----------------
         C            1.630558126200    -0.000000974394     0.551643045760    12.000000000000
         C            2.574252126200    -0.752248974394    -0.350201954240    12.000000000000
         C            2.574253126200     0.752250025606    -0.350197954240    12.000000000000
         C            0.360531726200    -0.000000974394     0.308080145760    12.000000000000
         C           -0.538778873800     1.206154025606     0.148459045760    12.000000000000
         C           -0.538780873800    -1.206154974394     0.148460045760    12.000000000000
         C           -1.914617873800     1.207879025606    -0.087186954240    12.000000000000
         C           -1.914619873800    -1.207877974394    -0.087187954240    12.000000000000
         C           -2.605990873800     0.000001025606    -0.206515954240    12.000000000000
         H            1.894778126200    -0.000004974394     1.608712045760     1.007825032230
         H            2.142015126200    -1.253187974394    -1.210646954240     1.007825032230
         H            3.416190126200    -1.270084974394     0.098048045760     1.007825032230
         H            3.416196126200     1.270079025606     0.098052045760     1.007825032230
         H            2.142018126200     1.253194025606    -1.210641954240     1.007825032230
         H            0.001797126200     2.146617025606     0.238671045760     1.007825032230
         H            0.001793126200    -2.146618974394     0.238672045760     1.007825032230
         H           -2.447022873800     2.151637025606    -0.182220954240     1.007825032230
         H           -2.447024873800    -2.151635974394    -0.182221954240     1.007825032230
         H           -3.677191873800     0.000003025606    -0.393620954240     1.007825032230

  Basis Set: AUG-CC-PVTZ
    Blend: AUG-CC-PVTZ
  Basis Set: (AUG-CC-PVTZ AUX)
    Blend: AUG-CC-PVTZ-JKFIT
	 Reference Energy          =    -346.6549247381865939 [Eh]
	 Singles Energy            =      -0.0000000000000000 [Eh]
	 Same-Spin Energy          =      -0.3924362463139049 [Eh]
	 Opposite-Spin Energy      =      -1.2632242167548440 [Eh]
	 Correlation Energy        =      -1.6556604630687488 [Eh]
	 Total Energy              =    -348.3105852012553214 [Eh]

	 ================> DF-SCS-MP2 Energies <==================
	-----------------------------------------------------------
	 SCS Same-Spin Scale       =       0.3333333333333333 [-]
	 SCS Opposite-Spin Scale   =       1.2000000000000000 [-]
	 SCS Same-Spin Energy      =      -0.1308120821046350 [Eh]
	 SCS Opposite-Spin Energy  =      -1.5158690601058127 [Eh]
	 SCS Correlation Energy    =      -1.6466811422104477 [Eh]
	 SCS Total Energy          =    -348.3016058803970623 [Eh]
	-----------------------------------------------------------

  Dipole Moment: [D]
     X:     0.6892      Y:    -0.0000      Z:     0.0678     Total:     0.6925

*** Psi4 exiting successfully. Buy a developer a beer!
