                               Psi4 1.3.2 release

  ==> Input File <==

--------------------------------------------------------------------------
#psi4
#
memory 32 gb

molecule  {
0 1
  C        1.6145290    -0.0000010     0.5621290
  C        2.5377838    -0.7597634    -0.3544524
  C        2.5582240     0.7522500    -0.3397120
  C        0.1480820    -0.0000010     0.2808970
  C       -0.5548080     1.2061540     0.1589450
  C       -0.5548100    -1.2061550     0.1589460
  C       -1.9306470     1.2078790    -0.0767010
  C       -1.9306490    -1.2078780    -0.0767020
  C       -2.6220200     0.0000010    -0.1960300
  H        1.8787490    -0.0000050     1.6191980
  H        2.1259860    -1.2531880    -1.2001610
  H        3.4001610    -1.2700850     0.1085340
  H        3.4001670     1.2700790     0.1085380
  H        2.1259890     1.2531940    -1.2001560
  H       -0.0142320     2.1466170     0.2491570
  H       -0.0142360    -2.1466190     0.2491580
  H       -2.4630520     2.1516370    -0.1717350
  H       -2.4630540    -2.1516360    -0.1717360
  H       -3.6932210     0.0000030    -0.3831350
units angstrom
no_reorient  #important for SAPT in psi4, default
symmetry c1  #important for SAPT in psi4, default
}

set PROPERTIES_ORIGIN ["COM"]
properties('MP2/aug-cc-pvtz', properties = ['dipole'])
--------------------------------------------------------------------------

    Molecular point group: c1
  Charge       = 0
  Multiplicity = 1
  Basis Set: AUG-CC-PVTZ
    Blend: AUG-CC-PVTZ
  Basis Set: (AUG-CC-PVTZ AUX)
    Blend: AUG-CC-PVTZ-JKFIT

    Orbital Energies [Eh]
    ---------------------

    Doubly Occupied:

       1A    -11.239819     2A    -11.236147     3A    -11.234660
       4A    -11.234361     5A    -11.232076     6A    -11.230716
       7A    -11.230553     8A    -11.226948     9A    -11.226270
      10A     -1.164747    11A     -1.127495    12A     -1.012393
      13A     -1.010051    14A     -0.856203    15A     -0.835687
      16A     -0.809399    17A     -0.774435    18A     -0.699830
      19A     -0.663078    20A     -0.635363    21A     -0.620838
      22A     -0.608880    23A     -0.581846    24A     -0.542226
      25A     -0.515834    26A     -0.500475    27A     -0.493194
      28A     -0.482780    29A     -0.426148    30A     -0.416595
      31A     -0.333690    32A     -0.323745

  @DF-RHF Final Energy:  -346.71924168487260

   => Energetics <=

    Nuclear Repulsion Energy =            403.4597924434359584
    One-Electron Energy =               -1267.3051008666568578
    Two-Electron Energy =                 517.1260667383482996
    Total Energy =                       -346.7192416848725998
  Basis Set: (AUG-CC-PVTZ AUX)
    Blend: AUG-CC-PVTZ-RI
    Molecular point group: c1

    Geometry (in Angstrom), charge = 0, multiplicity = 1:

       Center              X                  Y                   Z               Mass
    ------------   -----------------  -----------------  -----------------  -----------------
         C            1.652597050328     0.000762695458     0.556968886872    12.000000000000
         C            2.575851850328    -0.758999704542    -0.359612513128    12.000000000000
         C            2.596292050328     0.753013695458    -0.344872113128    12.000000000000
         C            0.186150050328     0.000762695458     0.275736886872    12.000000000000
         C           -0.516739949672     1.206917695458     0.153784886872    12.000000000000
         C           -0.516741949672    -1.205391304542     0.153785886872    12.000000000000
         C           -1.892578949672     1.208642695458    -0.081861113128    12.000000000000
         C           -1.892580949672    -1.207114304542    -0.081862113128    12.000000000000
         C           -2.583951949672     0.000764695458    -0.201190113128    12.000000000000
         H            1.916817050328     0.000758695458     1.614037886872     1.007825032230
         H            2.164054050328    -1.252424304542    -1.205321113128     1.007825032230
         H            3.438229050328    -1.269321304542     0.103373886872     1.007825032230
         H            3.438235050328     1.270842695458     0.103377886872     1.007825032230
         H            2.164057050328     1.253957695458    -1.205316113128     1.007825032230
         H            0.023836050328     2.147380695458     0.243996886872     1.007825032230
         H            0.023832050328    -2.145855304542     0.243997886872     1.007825032230
         H           -2.424983949672     2.152400695458    -0.176895113128     1.007825032230
         H           -2.424985949672    -2.150872304542    -0.176896113128     1.007825032230
         H           -3.655152949672     0.000766695458    -0.388295113128     1.007825032230

  Basis Set: AUG-CC-PVTZ
    Blend: AUG-CC-PVTZ
  Basis Set: (AUG-CC-PVTZ AUX)
    Blend: AUG-CC-PVTZ-JKFIT
	 Reference Energy          =    -346.7192416848725998 [Eh]
	 Singles Energy            =      -0.0000000000000000 [Eh]
	 Same-Spin Energy          =      -0.3876642933623127 [Eh]
	 Opposite-Spin Energy      =      -1.2554389246063038 [Eh]
	 Correlation Energy        =      -1.6431032179686165 [Eh]
	 Total Energy              =    -348.3623449028412438 [Eh]

	 ================> DF-SCS-MP2 Energies <==================
	-----------------------------------------------------------
	 SCS Same-Spin Scale       =       0.3333333333333333 [-]
	 SCS Opposite-Spin Scale   =       1.2000000000000000 [-]
	 SCS Same-Spin Energy      =      -0.1292214311207709 [Eh]
	 SCS Opposite-Spin Energy  =      -1.5065267095275645 [Eh]
	 SCS Correlation Energy    =      -1.6357481406483354 [Eh]
	 SCS Total Energy          =    -348.3549898255209314 [Eh]
	-----------------------------------------------------------

  Dipole Moment: [D]
     X:     0.2748      Y:     0.0078      Z:     0.0612     Total:     0.2816

*** Psi4 exiting successfully. Buy a developer a beer!
