                               Psi4 1.3.2 release

  ==> Input File <==

--------------------------------------------------------------------------
#psi4
#
memory 32 gb

molecule  {
0 1
  C        1.6145290    -0.0000010     0.5621290
  C        2.5170633    -0.7670464    -0.3689097
  C        2.5582240     0.7522500    -0.3397120
  C        0.1480820    -0.0000010     0.2808970
  C       -0.5548080     1.2061540     0.1589450
  C       -0.5548100    -1.2061550     0.1589460
  C       -1.9306470     1.2078790    -0.0767010
  C       -1.9306490    -1.2078780    -0.0767020
  C       -2.6220200     0.0000010    -0.1960300
  H        1.8787490    -0.0000050     1.6191980
  H        2.1259860    -1.2531880    -1.2001610
  H        3.4001610    -1.2700850     0.1085340
  H        3.4001670     1.2700790     0.1085380
  H        2.1259890     1.2531940    -1.2001560
  H       -0.0142320     2.1466170     0.2491570
  H       -0.0142360    -2.1466190     0.2491580
  H       -2.4630520     2.1516370    -0.1717350
  H       -2.4630540    -2.1516360    -0.1717360
  H       -3.6932210     0.0000030    -0.3831350
units angstrom
no_reorient  #important for SAPT in psi4, default
symmetry c1  #important for SAPT in psi4, default
}

set PROPERTIES_ORIGIN ["COM"]
properties('MP2/aug-cc-pvtz', properties = ['dipole'])
--------------------------------------------------------------------------

    Molecular point group: c1
  Charge       = 0
  Multiplicity = 1
  Basis Set: AUG-CC-PVTZ
    Blend: AUG-CC-PVTZ
  Basis Set: (AUG-CC-PVTZ AUX)
    Blend: AUG-CC-PVTZ-JKFIT

    Orbital Energies [Eh]
    ---------------------

    Doubly Occupied:

       1A    -11.239644     2A    -11.236754     3A    -11.234678
       4A    -11.234358     5A    -11.232062     6A    -11.230729
       7A    -11.230449     8A    -11.227233     9A    -11.226486
      10A     -1.164535    11A     -1.126833    12A     -1.012036
      13A     -1.010057    14A     -0.856123    15A     -0.836650
      16A     -0.809996    17A     -0.774938    18A     -0.700310
      19A     -0.661560    20A     -0.635373    21A     -0.620833
      22A     -0.609858    23A     -0.581836    24A     -0.542635
      25A     -0.516864    26A     -0.499870    27A     -0.493247
      28A     -0.482751    29A     -0.423821    30A     -0.417470
      31A     -0.333705    32A     -0.323633

  @DF-RHF Final Energy:  -346.71673623135621

   => Energetics <=

    Nuclear Repulsion Energy =            403.5439889640562114
    One-Electron Energy =               -1267.4667963074859927
    Two-Electron Energy =                 517.2060711120735732
    Total Energy =                       -346.7167362313562080
  Basis Set: (AUG-CC-PVTZ AUX)
    Blend: AUG-CC-PVTZ-RI
    Molecular point group: c1

    Geometry (in Angstrom), charge = 0, multiplicity = 1:

       Center              X                  Y                   Z               Mass
    ------------   -----------------  -----------------  -----------------  -----------------
         C            1.654702823401     0.001502848702     0.558438146448    12.000000000000
         C            2.557237123401    -0.765542551298    -0.372600553552    12.000000000000
         C            2.598397823401     0.753753848702    -0.343402853552    12.000000000000
         C            0.188255823401     0.001502848702     0.277206146448    12.000000000000
         C           -0.514634176599     1.207657848702     0.155254146448    12.000000000000
         C           -0.514636176599    -1.204651151298     0.155255146448    12.000000000000
         C           -1.890473176599     1.209382848702    -0.080391853552    12.000000000000
         C           -1.890475176599    -1.206374151298    -0.080392853552    12.000000000000
         C           -2.581846176599     0.001504848702    -0.199720853552    12.000000000000
         H            1.918922823401     0.001498848702     1.615507146448     1.007825032230
         H            2.166159823401    -1.251684151298    -1.203851853552     1.007825032230
         H            3.440334823401    -1.268581151298     0.104843146448     1.007825032230
         H            3.440340823401     1.271582848702     0.104847146448     1.007825032230
         H            2.166162823401     1.254697848702    -1.203846853552     1.007825032230
         H            0.025941823401     2.148120848702     0.245466146448     1.007825032230
         H            0.025937823401    -2.145115151298     0.245467146448     1.007825032230
         H           -2.422878176599     2.153140848702    -0.175425853552     1.007825032230
         H           -2.422880176599    -2.150132151298    -0.175426853552     1.007825032230
         H           -3.653047176599     0.001506848702    -0.386825853552     1.007825032230

  Basis Set: AUG-CC-PVTZ
    Blend: AUG-CC-PVTZ
  Basis Set: (AUG-CC-PVTZ AUX)
    Blend: AUG-CC-PVTZ-JKFIT
	 Reference Energy          =    -346.7167362313562080 [Eh]
	 Singles Energy            =      -0.0000000000000000 [Eh]
	 Same-Spin Energy          =      -0.3876925152021155 [Eh]
	 Opposite-Spin Energy      =      -1.2556235063951795 [Eh]
	 Correlation Energy        =      -1.6433160215972951 [Eh]
	 Total Energy              =    -348.3600522529534942 [Eh]

	 ================> DF-SCS-MP2 Energies <==================
	-----------------------------------------------------------
	 SCS Same-Spin Scale       =       0.3333333333333333 [-]
	 SCS Opposite-Spin Scale   =       1.2000000000000000 [-]
	 SCS Same-Spin Energy      =      -0.1292308384007052 [Eh]
	 SCS Opposite-Spin Energy  =      -1.5067482076742154 [Eh]
	 SCS Correlation Energy    =      -1.6359790460749206 [Eh]
	 SCS Total Energy          =    -348.3527152774311162 [Eh]
	-----------------------------------------------------------

  Dipole Moment: [D]
     X:     0.2660      Y:     0.0184      Z:     0.0611     Total:     0.2736

*** Psi4 exiting successfully. Buy a developer a beer!
