                               Psi4 1.3.2 release

  ==> Input File <==

--------------------------------------------------------------------------
#psi4
#
memory 32 gb

molecule  {
0 1
  C        1.6145290    -0.0000010     0.5621290
  C        2.5582230    -0.7522490    -0.3397160
  C        2.5582240     0.7522500    -0.3397120
  C        0.2462923    -0.0000010     0.2997316
  C       -0.5548080     1.2061540     0.1589450
  C       -0.5548100    -1.2061550     0.1589460
  C       -1.9306470     1.2078790    -0.0767010
  C       -1.9306490    -1.2078780    -0.0767020
  C       -2.6220200     0.0000010    -0.1960300
  H        1.8787490    -0.0000050     1.6191980
  H        2.1259860    -1.2531880    -1.2001610
  H        3.4001610    -1.2700850     0.1085340
  H        3.4001670     1.2700790     0.1085380
  H        2.1259890     1.2531940    -1.2001560
  H       -0.0142320     2.1466170     0.2491570
  H       -0.0142360    -2.1466190     0.2491580
  H       -2.4630520     2.1516370    -0.1717350
  H       -2.4630540    -2.1516360    -0.1717360
  H       -3.6932210     0.0000030    -0.3831350
units angstrom
no_reorient  #important for SAPT in psi4, default
symmetry c1  #important for SAPT in psi4, default
}

set PROPERTIES_ORIGIN ["COM"]
properties('MP2/aug-cc-pvtz', properties = ['dipole'])
--------------------------------------------------------------------------

    Molecular point group: c1
  Charge       = 0
  Multiplicity = 1
  Basis Set: AUG-CC-PVTZ
    Blend: AUG-CC-PVTZ
  Basis Set: (AUG-CC-PVTZ AUX)
    Blend: AUG-CC-PVTZ-JKFIT

    Orbital Energies [Eh]
    ---------------------

    Doubly Occupied:

       1A    -11.245945     2A    -11.236164     3A    -11.236119
       4A    -11.234150     5A    -11.233518     6A    -11.232480
       7A    -11.232436     8A    -11.229739     9A    -11.229144
      10A     -1.170351    11A     -1.124584    12A     -1.011610
      13A     -1.004990    14A     -0.874028    15A     -0.835287
      16A     -0.804835    17A     -0.771613    18A     -0.699331
      19A     -0.670465    20A     -0.643594    21A     -0.617091
      22A     -0.606579    23A     -0.575065    24A     -0.545317
      25A     -0.517027    26A     -0.503015    27A     -0.490629
      28A     -0.485905    29A     -0.434262    30A     -0.410283
      31A     -0.331796    32A     -0.313881

  @DF-RHF Final Energy:  -346.70340715205469

   => Energetics <=

    Nuclear Repulsion Energy =            403.1063570446632980
    One-Electron Energy =               -1266.5170642177647551
    Two-Electron Energy =                 516.7073000210467626
    Total Energy =                       -346.7034071520546377
  Basis Set: (AUG-CC-PVTZ AUX)
    Blend: AUG-CC-PVTZ-RI
    Molecular point group: c1

    Geometry (in Angstrom), charge = 0, multiplicity = 1:

       Center              X                  Y                   Z               Mass
    ------------   -----------------  -----------------  -----------------  -----------------
         C            1.640538995639    -0.000000974394     0.553557149326    12.000000000000
         C            2.584232995639    -0.752248974394    -0.348287850674    12.000000000000
         C            2.584233995639     0.752250025606    -0.348283850674    12.000000000000
         C            0.272302295639    -0.000000974394     0.291159749326    12.000000000000
         C           -0.528798004361     1.206154025606     0.150373149326    12.000000000000
         C           -0.528800004361    -1.206154974394     0.150374149326    12.000000000000
         C           -1.904637004361     1.207879025606    -0.085272850674    12.000000000000
         C           -1.904639004361    -1.207877974394    -0.085273850674    12.000000000000
         C           -2.596010004361     0.000001025606    -0.204601850674    12.000000000000
         H            1.904758995639    -0.000004974394     1.610626149326     1.007825032230
         H            2.151995995639    -1.253187974394    -1.208732850674     1.007825032230
         H            3.426170995639    -1.270084974394     0.099962149326     1.007825032230
         H            3.426176995639     1.270079025606     0.099966149326     1.007825032230
         H            2.151998995639     1.253194025606    -1.208727850674     1.007825032230
         H            0.011777995639     2.146617025606     0.240585149326     1.007825032230
         H            0.011773995639    -2.146618974394     0.240586149326     1.007825032230
         H           -2.437042004361     2.151637025606    -0.180306850674     1.007825032230
         H           -2.437044004361    -2.151635974394    -0.180307850674     1.007825032230
         H           -3.667211004361     0.000003025606    -0.391706850674     1.007825032230

  Basis Set: AUG-CC-PVTZ
    Blend: AUG-CC-PVTZ
  Basis Set: (AUG-CC-PVTZ AUX)
    Blend: AUG-CC-PVTZ-JKFIT
	 Reference Energy          =    -346.7034071520546945 [Eh]
	 Singles Energy            =      -0.0000000000000000 [Eh]
	 Same-Spin Energy          =      -0.3893734880398431 [Eh]
	 Opposite-Spin Energy      =      -1.2582028116867152 [Eh]
	 Correlation Energy        =      -1.6475762997265584 [Eh]
	 Total Energy              =    -348.3509834517812465 [Eh]

	 ================> DF-SCS-MP2 Energies <==================
	-----------------------------------------------------------
	 SCS Same-Spin Scale       =       0.3333333333333333 [-]
	 SCS Opposite-Spin Scale   =       1.2000000000000000 [-]
	 SCS Same-Spin Energy      =      -0.1297911626799477 [Eh]
	 SCS Opposite-Spin Energy  =      -1.5098433740240582 [Eh]
	 SCS Correlation Energy    =      -1.6396345367040059 [Eh]
	 SCS Total Energy          =    -348.3430416887587171 [Eh]
	-----------------------------------------------------------

  Dipole Moment: [D]
     X:     0.4574      Y:    -0.0000      Z:     0.0641     Total:     0.4619

*** Psi4 exiting successfully. Buy a developer a beer!
