                               Psi4 1.3.2 release

  ==> Input File <==

--------------------------------------------------------------------------
#psi4
#
memory 32 gb

molecule  {
0 1
  C        1.6061881    -0.1560713     0.5621919
  C        2.5582230    -0.7522490    -0.3397160
  C        2.5582240     0.7522500    -0.3397120
  C        0.1480820    -0.0000010     0.2808970
  C       -0.5548080     1.2061540     0.1589450
  C       -0.5548100    -1.2061550     0.1589460
  C       -1.9306470     1.2078790    -0.0767010
  C       -1.9306490    -1.2078780    -0.0767020
  C       -2.6220200     0.0000010    -0.1960300
  H        1.8787490    -0.0000050     1.6191980
  H        2.1259860    -1.2531880    -1.2001610
  H        3.4001610    -1.2700850     0.1085340
  H        3.4001670     1.2700790     0.1085380
  H        2.1259890     1.2531940    -1.2001560
  H       -0.0142320     2.1466170     0.2491570
  H       -0.0142360    -2.1466190     0.2491580
  H       -2.4630520     2.1516370    -0.1717350
  H       -2.4630540    -2.1516360    -0.1717360
  H       -3.6932210     0.0000030    -0.3831350
units angstrom
no_reorient  #important for SAPT in psi4, default
symmetry c1  #important for SAPT in psi4, default
}

set PROPERTIES_ORIGIN ["COM"]
properties('MP2/aug-cc-pvtz', properties = ['dipole'])
--------------------------------------------------------------------------

    Molecular point group: c1
  Charge       = 0
  Multiplicity = 1
  Basis Set: AUG-CC-PVTZ
    Blend: AUG-CC-PVTZ
  Basis Set: (AUG-CC-PVTZ AUX)
    Blend: AUG-CC-PVTZ-JKFIT

    Orbital Energies [Eh]
    ---------------------

    Doubly Occupied:

       1A    -11.241349     2A    -11.239813     3A    -11.235680
       4A    -11.233973     5A    -11.233068     6A    -11.232285
       7A    -11.230496     8A    -11.229107     9A    -11.223991
      10A     -1.165308    11A     -1.128002    12A     -1.013776
      13A     -1.010123    14A     -0.857514    15A     -0.835034
      16A     -0.810036    17A     -0.773100    18A     -0.699218
      19A     -0.664394    20A     -0.635193    21A     -0.621549
      22A     -0.606940    23A     -0.582202    24A     -0.540901
      25A     -0.514701    26A     -0.502214    27A     -0.493867
      28A     -0.480730    29A     -0.456405    30A     -0.385830
      31A     -0.334005    32A     -0.322512

  @DF-RHF Final Energy:  -346.70654578412922

   => Energetics <=

    Nuclear Repulsion Energy =            403.2752465121803880
    One-Electron Energy =               -1266.8969500859068376
    Two-Electron Energy =                 516.9151577895971741
    Total Energy =                       -346.7065457841292755
  Basis Set: (AUG-CC-PVTZ AUX)
    Blend: AUG-CC-PVTZ-RI
    Molecular point group: c1

    Geometry (in Angstrom), charge = 0, multiplicity = 1:

       Center              X                  Y                   Z               Mass
    ------------   -----------------  -----------------  -----------------  -----------------
         C            1.643026630077    -0.140210236524     0.555527770684    12.000000000000
         C            2.595061530077    -0.736387936524    -0.346380129316    12.000000000000
         C            2.595062530077     0.768111063476    -0.346376129316    12.000000000000
         C            0.184920530077     0.015860063476     0.274232870684    12.000000000000
         C           -0.517969469923     1.222015063476     0.152280870684    12.000000000000
         C           -0.517971469923    -1.190293936524     0.152281870684    12.000000000000
         C           -1.893808469923     1.223740063476    -0.083365129316    12.000000000000
         C           -1.893810469923    -1.192016936524    -0.083366129316    12.000000000000
         C           -2.585181469923     0.015862063476    -0.202694129316    12.000000000000
         H            1.915587530077     0.015856063476     1.612533870684     1.007825032230
         H            2.162824530077    -1.237326936524    -1.206825129316     1.007825032230
         H            3.436999530077    -1.254223936524     0.101869870684     1.007825032230
         H            3.437005530077     1.285940063476     0.101873870684     1.007825032230
         H            2.162827530077     1.269055063476    -1.206820129316     1.007825032230
         H            0.022606530077     2.162478063476     0.242492870684     1.007825032230
         H            0.022602530077    -2.130757936524     0.242493870684     1.007825032230
         H           -2.426213469923     2.167498063476    -0.178399129316     1.007825032230
         H           -2.426215469923    -2.135774936524    -0.178400129316     1.007825032230
         H           -3.656382469923     0.015864063476    -0.389799129316     1.007825032230

  Basis Set: AUG-CC-PVTZ
    Blend: AUG-CC-PVTZ
  Basis Set: (AUG-CC-PVTZ AUX)
    Blend: AUG-CC-PVTZ-JKFIT
	 Reference Energy          =    -346.7065457841292186 [Eh]
	 Singles Energy            =      -0.0000000000000000 [Eh]
	 Same-Spin Energy          =      -0.3884556501237096 [Eh]
	 Opposite-Spin Energy      =      -1.2570392901241827 [Eh]
	 Correlation Energy        =      -1.6454949402478922 [Eh]
	 Total Energy              =    -348.3520407243771047 [Eh]

	 ================> DF-SCS-MP2 Energies <==================
	-----------------------------------------------------------
	 SCS Same-Spin Scale       =       0.3333333333333333 [-]
	 SCS Opposite-Spin Scale   =       1.2000000000000000 [-]
	 SCS Same-Spin Energy      =      -0.1294852167079032 [Eh]
	 SCS Opposite-Spin Energy  =      -1.5084471481490191 [Eh]
	 SCS Correlation Energy    =      -1.6379323648569224 [Eh]
	 SCS Total Energy          =    -348.3444781489861271 [Eh]
	-----------------------------------------------------------

  Dipole Moment: [D]
     X:     0.2591      Y:    -0.0926      Z:     0.0548     Total:     0.2805

*** Psi4 exiting successfully. Buy a developer a beer!
