                               Psi4 1.3.2 release

  ==> Input File <==

--------------------------------------------------------------------------
#psi4
#
memory 32 gb

molecule  {
0 1
  C        1.6145290    -0.0000010     0.5621290
  C        2.5582230    -0.7522490    -0.3397160
  C        2.5582240     0.7522500    -0.3397120
  C        0.1712719    -0.0000006     0.1792879
  C       -0.5548080     1.2061540     0.1589450
  C       -0.5548100    -1.2061550     0.1589460
  C       -1.9306470     1.2078790    -0.0767010
  C       -1.9306490    -1.2078780    -0.0767020
  C       -2.6220200     0.0000010    -0.1960300
  H        1.8787490    -0.0000050     1.6191980
  H        2.1259860    -1.2531880    -1.2001610
  H        3.4001610    -1.2700850     0.1085340
  H        3.4001670     1.2700790     0.1085380
  H        2.1259890     1.2531940    -1.2001560
  H       -0.0142320     2.1466170     0.2491570
  H       -0.0142360    -2.1466190     0.2491580
  H       -2.4630520     2.1516370    -0.1717350
  H       -2.4630540    -2.1516360    -0.1717360
  H       -3.6932210     0.0000030    -0.3831350
units angstrom
no_reorient  #important for SAPT in psi4, default
symmetry c1  #important for SAPT in psi4, default
}

set PROPERTIES_ORIGIN ["COM"]
properties('MP2/aug-cc-pvtz', properties = ['dipole'])
--------------------------------------------------------------------------

    Molecular point group: c1
  Charge       = 0
  Multiplicity = 1
  Basis Set: AUG-CC-PVTZ
    Blend: AUG-CC-PVTZ
  Basis Set: (AUG-CC-PVTZ AUX)
    Blend: AUG-CC-PVTZ-JKFIT

    Orbital Energies [Eh]
    ---------------------

    Doubly Occupied:

       1A    -11.240705     2A    -11.235904     3A    -11.234932
       4A    -11.234456     5A    -11.233116     6A    -11.232177
       7A    -11.232061     8A    -11.225400     9A    -11.224741
      10A     -1.165355    11A     -1.128048    12A     -1.011442
      13A     -1.009917    14A     -0.854711    15A     -0.834638
      16A     -0.808013    17A     -0.773754    18A     -0.700509
      19A     -0.666383    20A     -0.633219    21A     -0.620062
      22A     -0.607183    23A     -0.581658    24A     -0.543086
      25A     -0.513752    26A     -0.499174    27A     -0.492489
      28A     -0.487085    29A     -0.424461    30A     -0.414780
      31A     -0.333294    32A     -0.324054

  @DF-RHF Final Energy:  -346.71545396155540

   => Energetics <=

    Nuclear Repulsion Energy =            403.4747888689271349
    One-Electron Energy =               -1267.3393765185658140
    Two-Electron Energy =                 517.1491336880833387
    Total Energy =                       -346.7154539615553404
  Basis Set: (AUG-CC-PVTZ AUX)
    Blend: AUG-CC-PVTZ-RI
    Molecular point group: c1

    Geometry (in Angstrom), charge = 0, multiplicity = 1:

       Center              X                  Y                   Z               Mass
    ------------   -----------------  -----------------  -----------------  -----------------
         C            1.648163133002    -0.000001015045     0.565797544115    12.000000000000
         C            2.591857133002    -0.752249015045    -0.336047455885    12.000000000000
         C            2.591858133002     0.752249984955    -0.336043455885    12.000000000000
         C            0.204906033002    -0.000000615045     0.182956444115    12.000000000000
         C           -0.521173866998     1.206153984955     0.162613544115    12.000000000000
         C           -0.521175866998    -1.206155015045     0.162614544115    12.000000000000
         C           -1.897012866998     1.207878984955    -0.073032455885    12.000000000000
         C           -1.897014866998    -1.207878015045    -0.073033455885    12.000000000000
         C           -2.588385866998     0.000000984955    -0.192361455885    12.000000000000
         H            1.912383133002    -0.000005015045     1.622866544115     1.007825032230
         H            2.159620133002    -1.253188015045    -1.196492455885     1.007825032230
         H            3.433795133002    -1.270085015045     0.112202544115     1.007825032230
         H            3.433801133002     1.270078984955     0.112206544115     1.007825032230
         H            2.159623133002     1.253193984955    -1.196487455885     1.007825032230
         H            0.019402133002     2.146616984955     0.252825544115     1.007825032230
         H            0.019398133002    -2.146619015045     0.252826544115     1.007825032230
         H           -2.429417866998     2.151636984955    -0.168066455885     1.007825032230
         H           -2.429419866998    -2.151636015045    -0.168067455885     1.007825032230
         H           -3.659586866998     0.000002984955    -0.379466455885     1.007825032230

  Basis Set: AUG-CC-PVTZ
    Blend: AUG-CC-PVTZ
  Basis Set: (AUG-CC-PVTZ AUX)
    Blend: AUG-CC-PVTZ-JKFIT
	 Reference Energy          =    -346.7154539615553972 [Eh]
	 Singles Energy            =      -0.0000000000000000 [Eh]
	 Same-Spin Energy          =      -0.3880732359064581 [Eh]
	 Opposite-Spin Energy      =      -1.2562052873007263 [Eh]
	 Correlation Energy        =      -1.6442785232071844 [Eh]
	 Total Energy              =    -348.3597324847625600 [Eh]

	 ================> DF-SCS-MP2 Energies <==================
	-----------------------------------------------------------
	 SCS Same-Spin Scale       =       0.3333333333333333 [-]
	 SCS Opposite-Spin Scale   =       1.2000000000000000 [-]
	 SCS Same-Spin Energy      =      -0.1293577453021527 [Eh]
	 SCS Opposite-Spin Energy  =      -1.5074463447608715 [Eh]
	 SCS Correlation Energy    =      -1.6368040900630241 [Eh]
	 SCS Total Energy          =    -348.3522580516184348 [Eh]
	-----------------------------------------------------------

  Dipole Moment: [D]
     X:     0.2082      Y:    -0.0000      Z:     0.1189     Total:     0.2398

*** Psi4 exiting successfully. Buy a developer a beer!
