                               Psi4 1.3.2 release

  ==> Input File <==

--------------------------------------------------------------------------
#psi4
#
memory 32 gb

molecule  {
0 1
  C        1.6145290    -0.0000010     0.5621290
  C        2.5582230    -0.7522490    -0.3397160
  C        2.5582240     0.7522500    -0.3397120
  C        0.1480820    -0.0000010     0.2808970
  C       -0.5548080     1.2061540     0.1589450
  C       -0.5548100    -1.2061550     0.1589460
  C       -1.9306470     1.2078790    -0.0767010
  C       -1.9306490    -1.2078780    -0.0767020
  C       -2.6220200     0.0000010    -0.1960300
  H        1.8787490    -0.0000050     1.6191980
  H        2.1259860    -1.2531880    -1.2001610
  H        3.4001610    -1.2700850     0.1085340
  H        3.4001670     1.2700790     0.1085380
  H        2.1259890     1.2531940    -1.2001560
  H       -0.0142320     2.1466170     0.2491570
  H       -0.0142360    -2.1466190     0.2491580
  H       -2.4630520     2.1516370    -0.1717350
  H       -2.4630540    -2.1516360    -0.1717360
  H       -3.6932210     0.0000030    -0.3831350
units angstrom
no_reorient  #important for SAPT in psi4, default
symmetry c1  #important for SAPT in psi4, default
}

set PROPERTIES_ORIGIN ["COM"]
properties('MP2/aug-cc-pvtz', properties = ['dipole'])
--------------------------------------------------------------------------

    Molecular point group: c1
  Charge       = 0
  Multiplicity = 1
  Basis Set: AUG-CC-PVTZ
    Blend: AUG-CC-PVTZ
  Basis Set: (AUG-CC-PVTZ AUX)
    Blend: AUG-CC-PVTZ-JKFIT

    Orbital Energies [Eh]
    ---------------------

    Doubly Occupied:

       1A    -11.240032     2A    -11.235655     3A    -11.234666
       4A    -11.234373     5A    -11.232107     6A    -11.230746
       7A    -11.230655     8A    -11.226819     9A    -11.226165
      10A     -1.165023    11A     -1.128195    12A     -1.012772
      13A     -1.010064    14A     -0.856384    15A     -0.835016
      16A     -0.809071    17A     -0.774035    18A     -0.699316
      19A     -0.664672    20A     -0.635757    21A     -0.620885
      22A     -0.607994    23A     -0.581873    24A     -0.541732
      25A     -0.514477    26A     -0.500966    27A     -0.493141
      28A     -0.482827    29A     -0.428425    30A     -0.415455
      31A     -0.333691    32A     -0.323870

  @DF-RHF Final Energy:  -346.72005628741181

   => Energetics <=

    Nuclear Repulsion Energy =            403.3803509229556425
    One-Electron Energy =               -1267.1470972592203452
    Two-Electron Energy =                 517.0466900488529518
    Total Energy =                       -346.7200562874118077
  Basis Set: (AUG-CC-PVTZ AUX)
    Blend: AUG-CC-PVTZ-RI
    Molecular point group: c1

    Geometry (in Angstrom), charge = 0, multiplicity = 1:

       Center              X                  Y                   Z               Mass
    ------------   -----------------  -----------------  -----------------  -----------------
         C            1.650519865077    -0.000000974394     0.555471263055    12.000000000000
         C            2.594213865077    -0.752248974394    -0.346373736945    12.000000000000
         C            2.594214865077     0.752250025606    -0.346369736945    12.000000000000
         C            0.184072865077    -0.000000974394     0.274239263055    12.000000000000
         C           -0.518817134923     1.206154025606     0.152287263055    12.000000000000
         C           -0.518819134923    -1.206154974394     0.152288263055    12.000000000000
         C           -1.894656134923     1.207879025606    -0.083358736945    12.000000000000
         C           -1.894658134923    -1.207877974394    -0.083359736945    12.000000000000
         C           -2.586029134923     0.000001025606    -0.202687736945    12.000000000000
         H            1.914739865077    -0.000004974394     1.612540263055     1.007825032230
         H            2.161976865077    -1.253187974394    -1.206818736945     1.007825032230
         H            3.436151865077    -1.270084974394     0.101876263055     1.007825032230
         H            3.436157865077     1.270079025606     0.101880263055     1.007825032230
         H            2.161979865077     1.253194025606    -1.206813736945     1.007825032230
         H            0.021758865077     2.146617025606     0.242499263055     1.007825032230
         H            0.021754865077    -2.146618974394     0.242500263055     1.007825032230
         H           -2.427061134923     2.151637025606    -0.178392736945     1.007825032230
         H           -2.427063134923    -2.151635974394    -0.178393736945     1.007825032230
         H           -3.657230134923     0.000003025606    -0.389792736945     1.007825032230

  Basis Set: AUG-CC-PVTZ
    Blend: AUG-CC-PVTZ
  Basis Set: (AUG-CC-PVTZ AUX)
    Blend: AUG-CC-PVTZ-JKFIT
	 Reference Energy          =    -346.7200562874118077 [Eh]
	 Singles Energy            =      -0.0000000000000000 [Eh]
	 Same-Spin Energy          =      -0.3876615737624979 [Eh]
	 Opposite-Spin Energy      =      -1.2553433243082242 [Eh]
	 Correlation Energy        =      -1.6430048980707221 [Eh]
	 Total Energy              =    -348.3630611854825361 [Eh]

	 ================> DF-SCS-MP2 Energies <==================
	-----------------------------------------------------------
	 SCS Same-Spin Scale       =       0.3333333333333333 [-]
	 SCS Opposite-Spin Scale   =       1.2000000000000000 [-]
	 SCS Same-Spin Energy      =      -0.1292205245874993 [Eh]
	 SCS Opposite-Spin Energy  =      -1.5064119891698688 [Eh]
	 SCS Correlation Energy    =      -1.6356325137573682 [Eh]
	 SCS Total Energy          =    -348.3556888011691512 [Eh]
	-----------------------------------------------------------

  Dipole Moment: [D]
     X:     0.2817      Y:    -0.0000      Z:     0.0628     Total:     0.2886

*** Psi4 exiting successfully. Buy a developer a beer!
