                               Psi4 1.3.2 release

  ==> Input File <==

--------------------------------------------------------------------------
#psi4
#
memory 32 gb

molecule  {
0 1
  I       -0.3160279    -0.1907143    -0.1179604
  C        1.8175370     0.0000000    -0.0000040
  H        2.1557050    -0.8788840    -0.5436110
  H        2.1557050     0.9102360    -0.4893080
  H        2.1557110    -0.0313520     1.0329400
units angstrom
no_reorient  #important for SAPT in psi4, default
symmetry c1  #important for SAPT in psi4, default
}

set PROPERTIES_ORIGIN ["COM"]

basis mybas {
    assign aug-cc-pvtz
    assign I aug-cc-pvtz-pp
}
properties('MP2/mybas', properties = ['dipole'])
--------------------------------------------------------------------------

    Molecular point group: c1
  Charge       = 0
  Multiplicity = 1
  Basis Set: MYBAS
    Blend: AUG-CC-PVTZ + AUG-CC-PVTZ-PP
  Basis Set: (MYBAS AUX)
    Blend: AUG-CC-PVTZ-JKFIT + DEF2-QZVPP-JKFIT

    Orbital Energies [Eh]
    ---------------------

    Doubly Occupied:

       1A    -11.282791     2A     -7.713865     3A     -5.545508
       4A     -5.536002     5A     -5.535939     6A     -2.274871
       7A     -2.270221     8A     -2.270176     9A     -2.259651
      10A     -2.259649    11A     -0.999084    12A     -0.839465
      13A     -0.603990    14A     -0.602778    15A     -0.462289
      16A     -0.362175    17A     -0.360783

  @DF-RHF Final Energy:  -334.29020780885207

   => Energetics <=

    Nuclear Repulsion Energy =             61.4212219391644183
    One-Electron Energy =                -689.0643851429817914
    Two-Electron Energy =                 293.3529553949653064
    Total Energy =                       -334.2902078088520739
  Basis Set: (MYBAS AUX)
    Blend: AUG-CC-PVTZ-RI + DEF2-QZVPP-RI
    Molecular point group: c1

    Geometry (in Angstrom), charge = 0, multiplicity = 1:

       Center              X                  Y                   Z               Mass
    ------------   -----------------  -----------------  -----------------  -----------------
         I           -0.233047883914    -0.020187648714    -0.012486253297   126.904471900000
         C            1.900517016086     0.170526651286     0.105470146703    12.000000000000
         H            2.238685016086    -0.708357348714    -0.438136853297     1.007825032230
         H            2.238685016086     1.080762651286    -0.383833853297     1.007825032230
         H            2.238691016086     0.139174651286     1.138414146703     1.007825032230

  Basis Set: MYBAS
    Blend: AUG-CC-PVTZ + AUG-CC-PVTZ-PP
  Basis Set: (MYBAS AUX)
    Blend: AUG-CC-PVTZ-JKFIT + DEF2-QZVPP-JKFIT
	 Reference Energy          =    -334.2902078088520739 [Eh]
	 Singles Energy            =      -0.0000000000000000 [Eh]
	 Same-Spin Energy          =      -0.1147151431253426 [Eh]
	 Opposite-Spin Energy      =      -0.3382942912246941 [Eh]
	 Correlation Energy        =      -0.4530094343500367 [Eh]
	 Total Energy              =    -334.7432172432021389 [Eh]

	 ================> DF-SCS-MP2 Energies <==================
	-----------------------------------------------------------
	 SCS Same-Spin Scale       =       0.3333333333333333 [-]
	 SCS Opposite-Spin Scale   =       1.2000000000000000 [-]
	 SCS Same-Spin Energy      =      -0.0382383810417809 [Eh]
	 SCS Opposite-Spin Energy  =      -0.4059531494696328 [Eh]
	 SCS Correlation Energy    =      -0.4441915305114137 [Eh]
	 SCS Total Energy          =    -334.7343993393635060 [Eh]
	-----------------------------------------------------------

  Dipole Moment: [D]
     X:     1.6495      Y:     0.1025      Z:     0.0634     Total:     1.6539

*** Psi4 exiting successfully. Buy a developer a beer!
