                               Psi4 1.3.2 release

  ==> Input File <==

--------------------------------------------------------------------------
#psi4
#
memory 32 gb

molecule  {
0 1
  I       -0.3225540     0.1272721     0.0787202
  C        1.8175370     0.0000000    -0.0000040
  H        2.1557050    -0.8788840    -0.5436110
  H        2.1557050     0.9102360    -0.4893080
  H        2.1557110    -0.0313520     1.0329400
units angstrom
no_reorient  #important for SAPT in psi4, default
symmetry c1  #important for SAPT in psi4, default
}

set PROPERTIES_ORIGIN ["COM"]

basis mybas {
    assign aug-cc-pvtz
    assign I aug-cc-pvtz-pp
}
properties('MP2/mybas', properties = ['dipole'])
--------------------------------------------------------------------------

    Molecular point group: c1
  Charge       = 0
  Multiplicity = 1
  Basis Set: MYBAS
    Blend: AUG-CC-PVTZ + AUG-CC-PVTZ-PP
  Basis Set: (MYBAS AUX)
    Blend: AUG-CC-PVTZ-JKFIT + DEF2-QZVPP-JKFIT

    Orbital Energies [Eh]
    ---------------------

    Doubly Occupied:

       1A    -11.282845     2A     -7.713782     3A     -5.545415
       4A     -5.535914     5A     -5.535875     6A     -2.274777
       7A     -2.270124     8A     -2.270092     9A     -2.259580
      10A     -2.259579    11A     -0.998933    12A     -0.839476
      13A     -0.603579    14A     -0.603029    15A     -0.462586
      16A     -0.361842    17A     -0.361162

  @DF-RHF Final Energy:  -334.29088911482893

   => Energetics <=

    Nuclear Repulsion Energy =             61.4099810300776667
    One-Electron Energy =                -689.0445585799564014
    Two-Electron Energy =                 293.3436884350497849
    Total Energy =                       -334.2908891148289285
  Basis Set: (MYBAS AUX)
    Blend: AUG-CC-PVTZ-RI + DEF2-QZVPP-RI
    Molecular point group: c1

    Geometry (in Angstrom), charge = 0, multiplicity = 1:

       Center              X                  Y                   Z               Mass
    ------------   -----------------  -----------------  -----------------  -----------------
         I           -0.233738690079     0.013472112190     0.008332945167   126.904471900000
         C            1.906352309921    -0.113799987810    -0.070391254833    12.000000000000
         H            2.244520309921    -0.992683987810    -0.613998254833     1.007825032230
         H            2.244520309921     0.796436012190    -0.559695254833     1.007825032230
         H            2.244526309921    -0.145151987810     0.962552745167     1.007825032230

  Basis Set: MYBAS
    Blend: AUG-CC-PVTZ + AUG-CC-PVTZ-PP
  Basis Set: (MYBAS AUX)
    Blend: AUG-CC-PVTZ-JKFIT + DEF2-QZVPP-JKFIT
	 Reference Energy          =    -334.2908891148289285 [Eh]
	 Singles Energy            =      -0.0000000000000000 [Eh]
	 Same-Spin Energy          =      -0.1146834913458470 [Eh]
	 Opposite-Spin Energy      =      -0.3382329830614781 [Eh]
	 Correlation Energy        =      -0.4529164744073252 [Eh]
	 Total Energy              =    -334.7438055892362740 [Eh]

	 ================> DF-SCS-MP2 Energies <==================
	-----------------------------------------------------------
	 SCS Same-Spin Scale       =       0.3333333333333333 [-]
	 SCS Opposite-Spin Scale   =       1.2000000000000000 [-]
	 SCS Same-Spin Energy      =      -0.0382278304486157 [Eh]
	 SCS Opposite-Spin Energy  =      -0.4058795796737737 [Eh]
	 SCS Correlation Energy    =      -0.4441074101223894 [Eh]
	 SCS Total Energy          =    -334.7349965249513275 [Eh]
	-----------------------------------------------------------

  Dipole Moment: [D]
     X:     1.6537      Y:    -0.0684      Z:    -0.0423     Total:     1.6557

*** Psi4 exiting successfully. Buy a developer a beer!
