                               Psi4 1.3.2 release

  ==> Input File <==

--------------------------------------------------------------------------
#psi4
#
memory 32 gb

molecule  {
0 1
  I       -0.3264731     0.0636748     0.0393841
  C        1.8175370     0.0000000    -0.0000040
  H        2.1557050    -0.8788840    -0.5436110
  H        2.1557050     0.9102360    -0.4893080
  H        2.1557110    -0.0313520     1.0329400
units angstrom
no_reorient  #important for SAPT in psi4, default
symmetry c1  #important for SAPT in psi4, default
}

set PROPERTIES_ORIGIN ["COM"]

basis mybas {
    assign aug-cc-pvtz
    assign I aug-cc-pvtz-pp
}
properties('MP2/mybas', properties = ['dipole'])
--------------------------------------------------------------------------

    Molecular point group: c1
  Charge       = 0
  Multiplicity = 1
  Basis Set: MYBAS
    Blend: AUG-CC-PVTZ + AUG-CC-PVTZ-PP
  Basis Set: (MYBAS AUX)
    Blend: AUG-CC-PVTZ-JKFIT + DEF2-QZVPP-JKFIT

    Orbital Energies [Eh]
    ---------------------

    Doubly Occupied:

       1A    -11.282870     2A     -7.713740     3A     -5.545366
       4A     -5.535866     5A     -5.535846     6A     -2.274728
       7A     -2.270069     8A     -2.270053     9A     -2.259544
      10A     -2.259544    11A     -0.998850    12A     -0.839486
      13A     -0.603401    14A     -0.603105    15A     -0.462770
      16A     -0.361699    17A     -0.361335

  @DF-RHF Final Energy:  -334.29128562176186

   => Energetics <=

    Nuclear Repulsion Energy =             61.4035550683010953
    One-Electron Energy =                -689.0331333394804005
    Two-Electron Energy =                 293.3382926494174399
    Total Energy =                       -334.2912856217618582
  Basis Set: (MYBAS AUX)
    Blend: AUG-CC-PVTZ-RI + DEF2-QZVPP-RI
    Molecular point group: c1

    Geometry (in Angstrom), charge = 0, multiplicity = 1:

       Center              X                  Y                   Z               Mass
    ------------   -----------------  -----------------  -----------------  -----------------
         I           -0.234153537912     0.006740157892     0.004169107591   126.904471900000
         C            1.909856562088    -0.056934642108    -0.035218992409    12.000000000000
         H            2.248024562088    -0.935818642108    -0.578825992409     1.007825032230
         H            2.248024562088     0.853301357892    -0.524522992409     1.007825032230
         H            2.248030562088    -0.088286642108     0.997725007591     1.007825032230

  Basis Set: MYBAS
    Blend: AUG-CC-PVTZ + AUG-CC-PVTZ-PP
  Basis Set: (MYBAS AUX)
    Blend: AUG-CC-PVTZ-JKFIT + DEF2-QZVPP-JKFIT
	 Reference Energy          =    -334.2912856217618582 [Eh]
	 Singles Energy            =      -0.0000000000000000 [Eh]
	 Same-Spin Energy          =      -0.1146659029088639 [Eh]
	 Opposite-Spin Energy      =      -0.3381978396668252 [Eh]
	 Correlation Energy        =      -0.4528637425756891 [Eh]
	 Total Energy              =    -334.7441493643375452 [Eh]

	 ================> DF-SCS-MP2 Energies <==================
	-----------------------------------------------------------
	 SCS Same-Spin Scale       =       0.3333333333333333 [-]
	 SCS Opposite-Spin Scale   =       1.2000000000000000 [-]
	 SCS Same-Spin Energy      =      -0.0382219676362880 [Eh]
	 SCS Opposite-Spin Energy  =      -0.4058374076001902 [Eh]
	 SCS Correlation Energy    =      -0.4440593752364782 [Eh]
	 SCS Total Energy          =    -334.7353449969983217 [Eh]
	-----------------------------------------------------------

  Dipole Moment: [D]
     X:     1.6559      Y:    -0.0342      Z:    -0.0212     Total:     1.6564

*** Psi4 exiting successfully. Buy a developer a beer!
