                               Psi4 1.4a3.dev225

  ==> Input File <==

--------------------------------------------------------------------------
#psi4
#
memory 32 gb

molecule  {
0 1
  I       -0.3277800     0.0000000     0.0000000
  C        1.7975370     0.0000000    -0.0000040
  H        2.1557050    -0.8788840    -0.5436110
  H        2.1557050     0.9102360    -0.4893080
  H        2.1557110    -0.0313520     1.0329400
units angstrom
no_reorient  #important for SAPT in psi4, default
symmetry c1  #important for SAPT in psi4, default
}

set PROPERTIES_ORIGIN ["COM"]
properties('MP2/aug-cc-pvtz', properties = ['dipole'])
--------------------------------------------------------------------------

    Molecular point group: c1
  Charge       = 0
  Multiplicity = 1
  Basis Set: AUG-CC-PVTZ
    Blend: AUG-CC-PVTZ
  Basis Set: (AUG-CC-PVTZ AUX)
    Blend: AUG-CC-PVTZ-JKFIT + DEF2-UNIVERSAL-JKFIT

    Orbital Energies [Eh]
    ---------------------

    Doubly Occupied:

       1A    -11.282414     2A     -7.714647     3A     -5.546334
       4A     -5.536756     5A     -5.536756     6A     -2.275819
       7A     -2.271022     8A     -2.271022     9A     -2.260436
      10A     -2.260436    11A     -0.999204    12A     -0.839066
      13A     -0.598953    14A     -0.598945    15A     -0.467758
      16A     -0.361765    17A     -0.361765

  @DF-RHF Final Energy:  -334.29081728329334

   => Energetics <=

    Nuclear Repulsion Energy =             61.6984393853379132
    One-Electron Energy =                -689.6123167594355436
    Two-Electron Energy =                 293.6230600908043016
    Total Energy =                       -334.2908172832933360
  Basis Set: (AUG-CC-PVTZ AUX)
    Blend: AUG-CC-PVTZ-RI + DEF2-QZVPP-RI
    Molecular point group: c1

    Geometry (in Angstrom), charge = 0, multiplicity = 1:

       Center              X                  Y                   Z               Mass
    ------------   -----------------  -----------------  -----------------  -----------------
         I           -0.232600878094    -0.000000000000     0.000000189080   126.904471900000
         C            1.892716121906    -0.000000000000    -0.000003810920    12.000000000000
         H            2.250884121906    -0.878884000000    -0.543610810920     1.007825032230
         H            2.250884121906     0.910236000000    -0.489307810920     1.007825032230
         H            2.250890121906    -0.031352000000     1.032940189080     1.007825032230

  Basis Set: AUG-CC-PVTZ
    Blend: AUG-CC-PVTZ
  Basis Set: (AUG-CC-PVTZ AUX)
    Blend: AUG-CC-PVTZ-JKFIT + DEF2-UNIVERSAL-JKFIT
	 Reference Energy          =    -334.2908172832933360 [Eh]
	 Singles Energy            =      -0.0000000000000000 [Eh]
	 Same-Spin Energy          =      -0.1148463979512223 [Eh]
	 Opposite-Spin Energy      =      -0.3384330900688544 [Eh]
	 Correlation Energy        =      -0.4532794880200767 [Eh]
	 Total Energy              =    -334.7440967713134228 [Eh]

	 ================> DF-SCS-MP2 Energies <==================
	-----------------------------------------------------------
	 SCS Same-Spin Scale       =       0.3333333333333333 [-]
	 SCS Opposite-Spin Scale   =       1.2000000000000000 [-]
	 SCS Same-Spin Energy      =      -0.0382821326504074 [Eh]
	 SCS Opposite-Spin Energy  =      -0.4061197080826253 [Eh]
	 SCS Correlation Energy    =      -0.4444018407330327 [Eh]
	 SCS Total Energy          =    -334.7352191240263437 [Eh]
	-----------------------------------------------------------

  Dipole Moment: [D]
     X:     1.6221      Y:    -0.0000      Z:     0.0000     Total:     1.6221

*** Psi4 exiting successfully. Buy a developer a beer!
