                               Psi4 1.3.2 release

  ==> Input File <==

--------------------------------------------------------------------------
#psi4
#
memory 32 gb

molecule  {
0 1
  I       -0.3274533    -0.0318423    -0.0196950
  C        1.8175370     0.0000000    -0.0000040
  H        2.1557050    -0.8788840    -0.5436110
  H        2.1557050     0.9102360    -0.4893080
  H        2.1557110    -0.0313520     1.0329400
units angstrom
no_reorient  #important for SAPT in psi4, default
symmetry c1  #important for SAPT in psi4, default
}

set PROPERTIES_ORIGIN ["COM"]

basis mybas {
    assign aug-cc-pvtz
    assign I aug-cc-pvtz-pp
}
properties('MP2/mybas', properties = ['dipole'])
--------------------------------------------------------------------------

    Molecular point group: c1
  Charge       = 0
  Multiplicity = 1
  Basis Set: MYBAS
    Blend: AUG-CC-PVTZ + AUG-CC-PVTZ-PP
  Basis Set: (MYBAS AUX)
    Blend: AUG-CC-PVTZ-JKFIT + DEF2-QZVPP-JKFIT

    Orbital Energies [Eh]
    ---------------------

    Doubly Occupied:

       1A    -11.282876     2A     -7.713729     3A     -5.545354
       4A     -5.535852     5A     -5.535841     6A     -2.274716
       7A     -2.270053     8A     -2.270045     9A     -2.259535
      10A     -2.259535    11A     -0.998829    12A     -0.839489
      13A     -0.603327    14A     -0.603155    15A     -0.462816
      16A     -0.361621    17A     -0.361421

  @DF-RHF Final Energy:  -334.29138496218559

   => Energetics <=

    Nuclear Repulsion Energy =             61.4019419124128518
    One-Electron Energy =                -689.0302663567831587
    Two-Electron Energy =                 293.3369394821846754
    Total Energy =                       -334.2913849621855888
  Basis Set: (MYBAS AUX)
    Blend: AUG-CC-PVTZ-RI + DEF2-QZVPP-RI
    Molecular point group: c1

    Geometry (in Angstrom), charge = 0, multiplicity = 1:

       Center              X                  Y                   Z               Mass
    ------------   -----------------  -----------------  -----------------  -----------------
         I           -0.234257294858    -0.003370597625    -0.002084582442   126.904471900000
         C            1.910733005142     0.028471702375     0.017606417558    12.000000000000
         H            2.248901005142    -0.850412297625    -0.526000582442     1.007825032230
         H            2.248901005142     0.938707702375    -0.471697582442     1.007825032230
         H            2.248907005142    -0.002880297625     1.050550417558     1.007825032230

  Basis Set: MYBAS
    Blend: AUG-CC-PVTZ + AUG-CC-PVTZ-PP
  Basis Set: (MYBAS AUX)
    Blend: AUG-CC-PVTZ-JKFIT + DEF2-QZVPP-JKFIT
	 Reference Energy          =    -334.2913849621855888 [Eh]
	 Singles Energy            =      -0.0000000000000000 [Eh]
	 Same-Spin Energy          =      -0.1146614739010492 [Eh]
	 Opposite-Spin Energy      =      -0.3381890199826858 [Eh]
	 Correlation Energy        =      -0.4528504938837350 [Eh]
	 Total Energy              =    -334.7442354560693047 [Eh]

	 ================> DF-SCS-MP2 Energies <==================
	-----------------------------------------------------------
	 SCS Same-Spin Scale       =       0.3333333333333333 [-]
	 SCS Opposite-Spin Scale   =       1.2000000000000000 [-]
	 SCS Same-Spin Energy      =      -0.0382204913003497 [Eh]
	 SCS Opposite-Spin Energy  =      -0.4058268239792229 [Eh]
	 SCS Correlation Energy    =      -0.4440473152795726 [Eh]
	 SCS Total Energy          =    -334.7354322774651791 [Eh]
	-----------------------------------------------------------

  Dipole Moment: [D]
     X:     1.6565      Y:     0.0171      Z:     0.0106     Total:     1.6566

*** Psi4 exiting successfully. Buy a developer a beer!
