                               Psi4 1.3.2 release

  ==> Input File <==

--------------------------------------------------------------------------
#psi4
#
memory 32 gb

molecule  {
0 1
  I       -0.3277800     0.0000000     0.0000000
  C        1.9175370     0.0000000    -0.0000042
  H        2.1557050    -0.8788840    -0.5436110
  H        2.1557050     0.9102360    -0.4893080
  H        2.1557110    -0.0313520     1.0329400
units angstrom
no_reorient  #important for SAPT in psi4, default
symmetry c1  #important for SAPT in psi4, default
}

set PROPERTIES_ORIGIN ["COM"]

basis mybas {
    assign aug-cc-pvtz
    assign I aug-cc-pvtz-pp
}
properties('MP2/mybas', properties = ['dipole'])
--------------------------------------------------------------------------

    Molecular point group: c1
  Charge       = 0
  Multiplicity = 1
  Basis Set: MYBAS
    Blend: AUG-CC-PVTZ + AUG-CC-PVTZ-PP
  Basis Set: (MYBAS AUX)
    Blend: AUG-CC-PVTZ-JKFIT + DEF2-QZVPP-JKFIT

    Orbital Energies [Eh]
    ---------------------

    Doubly Occupied:

       1A    -11.287755     2A     -7.708765     3A     -5.540089
       4A     -5.530939     5A     -5.530939     6A     -2.268958
       7A     -2.264832     8A     -2.264832     9A     -2.254705
      10A     -2.254705    11A     -0.999627    12A     -0.840015
      13A     -0.624476    14A     -0.624469    15A     -0.438794
      16A     -0.359484    17A     -0.359484

  @DF-RHF Final Energy:  -334.28824392996324

   => Energetics <=

    Nuclear Repulsion Energy =             59.9751792338622636
    One-Electron Energy =                -686.2211110185901362
    Two-Electron Energy =                 291.9576878547646288
    Total Energy =                       -334.2882439299632438
  Basis Set: (MYBAS AUX)
    Blend: AUG-CC-PVTZ-RI + DEF2-QZVPP-RI
    Molecular point group: c1

    Geometry (in Angstrom), charge = 0, multiplicity = 1:

       Center              X                  Y                   Z               Mass
    ------------   -----------------  -----------------  -----------------  -----------------
         I           -0.242746871398    -0.000000000000     0.000000205990   126.904471900000
         C            2.002570128602    -0.000000000000    -0.000003994010    12.000000000000
         H            2.240738128602    -0.878884000000    -0.543610794010     1.007825032230
         H            2.240738128602     0.910236000000    -0.489307794010     1.007825032230
         H            2.240744128602    -0.031352000000     1.032940205990     1.007825032230

  Basis Set: MYBAS
    Blend: AUG-CC-PVTZ + AUG-CC-PVTZ-PP
  Basis Set: (MYBAS AUX)
    Blend: AUG-CC-PVTZ-JKFIT + DEF2-QZVPP-JKFIT
	 Reference Energy          =    -334.2882439299632438 [Eh]
	 Singles Energy            =      -0.0000000000000000 [Eh]
	 Same-Spin Energy          =      -0.1139027073548486 [Eh]
	 Opposite-Spin Energy      =      -0.3372051001068795 [Eh]
	 Correlation Energy        =      -0.4511078074617282 [Eh]
	 Total Energy              =    -334.7393517374249541 [Eh]

	 ================> DF-SCS-MP2 Energies <==================
	-----------------------------------------------------------
	 SCS Same-Spin Scale       =       0.3333333333333333 [-]
	 SCS Opposite-Spin Scale   =       1.2000000000000000 [-]
	 SCS Same-Spin Energy      =      -0.0379675691182829 [Eh]
	 SCS Opposite-Spin Energy  =      -0.4046461201282555 [Eh]
	 SCS Correlation Energy    =      -0.4426136892465383 [Eh]
	 SCS Total Energy          =    -334.7308576192097576 [Eh]
	-----------------------------------------------------------

  Dipole Moment: [D]
     X:     1.8342      Y:    -0.0000      Z:     0.0000     Total:     1.8342

*** Psi4 exiting successfully. Buy a developer a beer!
