                               Psi4 1.3.2 release

  ==> Input File <==

--------------------------------------------------------------------------
#psi4
#
memory 32 gb

molecule  {
0 1
  I       -0.3160275     0.1907143     0.1179604
  C        1.8175370     0.0000000    -0.0000040
  H        2.1557050    -0.8788840    -0.5436110
  H        2.1557050     0.9102360    -0.4893080
  H        2.1557110    -0.0313520     1.0329400
units angstrom
no_reorient  #important for SAPT in psi4, default
symmetry c1  #important for SAPT in psi4, default
}

set PROPERTIES_ORIGIN ["COM"]

basis mybas {
    assign aug-cc-pvtz
    assign I aug-cc-pvtz-pp
}
properties('MP2/mybas', properties = ['dipole'])
--------------------------------------------------------------------------

    Molecular point group: c1
  Charge       = 0
  Multiplicity = 1
  Basis Set: MYBAS
    Blend: AUG-CC-PVTZ + AUG-CC-PVTZ-PP
  Basis Set: (MYBAS AUX)
    Blend: AUG-CC-PVTZ-JKFIT + DEF2-QZVPP-JKFIT

    Orbital Energies [Eh]
    ---------------------

    Doubly Occupied:

       1A    -11.282804     2A     -7.713851     3A     -5.545495
       4A     -5.535987     5A     -5.535928     6A     -2.274858
       7A     -2.270210     8A     -2.270161     9A     -2.259638
      10A     -2.259636    11A     -0.999071    12A     -0.839459
      13A     -0.603769    14A     -0.603007    15A     -0.462280
      16A     -0.361953    17A     -0.361001

  @DF-RHF Final Energy:  -334.29023066444000

   => Energetics <=

    Nuclear Repulsion Energy =             61.4206149378271533
    One-Electron Energy =                -689.0634782989159248
    Two-Electron Energy =                 293.3526326966487545
    Total Energy =                       -334.2902306644400028
  Basis Set: (MYBAS AUX)
    Blend: AUG-CC-PVTZ-RI + DEF2-QZVPP-RI
    Molecular point group: c1

    Geometry (in Angstrom), charge = 0, multiplicity = 1:

       Center              X                  Y                   Z               Mass
    ------------   -----------------  -----------------  -----------------  -----------------
         I           -0.233047841572     0.020187648714     0.012486631456   126.904471900000
         C            1.900516658428    -0.170526651286    -0.105477768544    12.000000000000
         H            2.238684658428    -1.049410651286    -0.649084768544     1.007825032230
         H            2.238684658428     0.739709348714    -0.594781768544     1.007825032230
         H            2.238690658428    -0.201878651286     0.927466231456     1.007825032230

  Basis Set: MYBAS
    Blend: AUG-CC-PVTZ + AUG-CC-PVTZ-PP
  Basis Set: (MYBAS AUX)
    Blend: AUG-CC-PVTZ-JKFIT + DEF2-QZVPP-JKFIT
	 Reference Energy          =    -334.2902306644400028 [Eh]
	 Singles Energy            =      -0.0000000000000000 [Eh]
	 Same-Spin Energy          =      -0.1147124416061416 [Eh]
	 Opposite-Spin Energy      =      -0.3382911782845926 [Eh]
	 Correlation Energy        =      -0.4530036198907342 [Eh]
	 Total Energy              =    -334.7432342843307538 [Eh]

	 ================> DF-SCS-MP2 Energies <==================
	-----------------------------------------------------------
	 SCS Same-Spin Scale       =       0.3333333333333333 [-]
	 SCS Opposite-Spin Scale   =       1.2000000000000000 [-]
	 SCS Same-Spin Energy      =      -0.0382374805353805 [Eh]
	 SCS Opposite-Spin Energy  =      -0.4059494139415111 [Eh]
	 SCS Correlation Energy    =      -0.4441868944768917 [Eh]
	 SCS Total Energy          =    -334.7344175589169026 [Eh]
	-----------------------------------------------------------

  Dipole Moment: [D]
     X:     1.6501      Y:    -0.1024      Z:    -0.0633     Total:     1.6544

*** Psi4 exiting successfully. Buy a developer a beer!
