                               Psi4 1.3.2 release

  ==> Input File <==

--------------------------------------------------------------------------
#psi4
#
memory 32 gb

molecule  {
0 1
  I       -0.3277800     0.0000000     0.0000000
  C        1.6175370     0.0000000    -0.0000036
  H        2.1557050    -0.8788840    -0.5436110
  H        2.1557050     0.9102360    -0.4893080
  H        2.1557110    -0.0313520     1.0329400
units angstrom
no_reorient  #important for SAPT in psi4, default
symmetry c1  #important for SAPT in psi4, default
}

set PROPERTIES_ORIGIN ["COM"]

basis mybas {
    assign aug-cc-pvtz
    assign I aug-cc-pvtz-pp
}
properties('MP2/mybas', properties = ['dipole'])
--------------------------------------------------------------------------

    Molecular point group: c1
  Charge       = 0
  Multiplicity = 1
  Basis Set: MYBAS
    Blend: AUG-CC-PVTZ + AUG-CC-PVTZ-PP
  Basis Set: (MYBAS AUX)
    Blend: AUG-CC-PVTZ-JKFIT + DEF2-QZVPP-JKFIT

    Orbital Energies [Eh]
    ---------------------

    Doubly Occupied:

       1A    -11.285933     2A     -7.721703     3A     -5.554067
       4A     -5.543789     5A     -5.543789     6A     -2.285196
       7A     -2.278712     8A     -2.278712     9A     -2.267527
      10A     -2.267527    11A     -1.013712    12A     -0.829302
      13A     -0.563880    14A     -0.563874    15A     -0.510937
      16A     -0.360355    17A     -0.360354

  @DF-RHF Final Energy:  -334.25918093623932

   => Energetics <=

    Nuclear Repulsion Energy =             64.6203865273589457
    One-Electron Energy =                -695.3003967819731770
    Two-Electron Energy =                 296.4208293183748992
    Total Energy =                       -334.2591809362393178
  Basis Set: (MYBAS AUX)
    Blend: AUG-CC-PVTZ-RI + DEF2-QZVPP-RI
    Molecular point group: c1

    Geometry (in Angstrom), charge = 0, multiplicity = 1:

       Center              X                  Y                   Z               Mass
    ------------   -----------------  -----------------  -----------------  -----------------
         I           -0.217381888136    -0.000000000000     0.000000155260   126.904471900000
         C            1.727935111864    -0.000000000000    -0.000003444740    12.000000000000
         H            2.266103111864    -0.878884000000    -0.543610844740     1.007825032230
         H            2.266103111864     0.910236000000    -0.489307844740     1.007825032230
         H            2.266109111864    -0.031352000000     1.032940155260     1.007825032230

  Basis Set: MYBAS
    Blend: AUG-CC-PVTZ + AUG-CC-PVTZ-PP
  Basis Set: (MYBAS AUX)
    Blend: AUG-CC-PVTZ-JKFIT + DEF2-QZVPP-JKFIT
	 Reference Energy          =    -334.2591809362393178 [Eh]
	 Singles Energy            =      -0.0000000000000000 [Eh]
	 Same-Spin Energy          =      -0.1172969032749494 [Eh]
	 Opposite-Spin Energy      =      -0.3417456657901973 [Eh]
	 Correlation Energy        =      -0.4590425690651468 [Eh]
	 Total Energy              =    -334.7182235053044792 [Eh]

	 ================> DF-SCS-MP2 Energies <==================
	-----------------------------------------------------------
	 SCS Same-Spin Scale       =       0.3333333333333333 [-]
	 SCS Opposite-Spin Scale   =       1.2000000000000000 [-]
	 SCS Same-Spin Energy      =      -0.0390989677583165 [Eh]
	 SCS Opposite-Spin Energy  =      -0.4100947989482368 [Eh]
	 SCS Correlation Energy    =      -0.4491937667065533 [Eh]
	 SCS Total Energy          =    -334.7083747029458891 [Eh]
	-----------------------------------------------------------

  Dipole Moment: [D]
     X:     1.3554      Y:    -0.0000      Z:     0.0000     Total:     1.3554

*** Psi4 exiting successfully. Buy a developer a beer!
