                               Psi4 1.4a3.dev225

  ==> Input File <==

--------------------------------------------------------------------------
#psi4
#
memory 32 gb

molecule  {
0 1
  I       -0.3277800     0.0000000     0.0000000
  C        1.7675370     0.0000000    -0.0000039
  H        2.1557050    -0.8788840    -0.5436110
  H        2.1557050     0.9102360    -0.4893080
  H        2.1557110    -0.0313520     1.0329400
units angstrom
no_reorient  #important for SAPT in psi4, default
symmetry c1  #important for SAPT in psi4, default
}

set PROPERTIES_ORIGIN ["COM"]
properties('MP2/aug-cc-pvtz', properties = ['dipole'])
--------------------------------------------------------------------------

    Molecular point group: c1
  Charge       = 0
  Multiplicity = 1
  Basis Set: AUG-CC-PVTZ
    Blend: AUG-CC-PVTZ
  Basis Set: (AUG-CC-PVTZ AUX)
    Blend: AUG-CC-PVTZ-JKFIT + DEF2-UNIVERSAL-JKFIT

    Orbital Energies [Eh]
    ---------------------

    Doubly Occupied:

       1A    -11.282049     2A     -7.715975     3A     -5.547760
       4A     -5.538075     5A     -5.538075     6A     -2.277447
       7A     -2.272438     8A     -2.272438     9A     -2.261747
      10A     -2.261747    11A     -1.000187    12A     -0.838200
      13A     -0.592587    14A     -0.592580    15A     -0.475164
      16A     -0.362002    17A     -0.362001

  @DF-RHF Final Energy:  -334.28898520027491

   => Energetics <=

    Nuclear Repulsion Energy =             62.1527993758592032
    One-Electron Energy =                -690.5026269572879301
    Two-Electron Energy =                 294.0608423811538046
    Total Energy =                       -334.2889852002749080
  Basis Set: (AUG-CC-PVTZ AUX)
    Blend: AUG-CC-PVTZ-RI + DEF2-QZVPP-RI
    Molecular point group: c1

    Geometry (in Angstrom), charge = 0, multiplicity = 1:

       Center              X                  Y                   Z               Mass
    ------------   -----------------  -----------------  -----------------  -----------------
         I           -0.230064379767    -0.000000000000     0.000000180625   126.904471900000
         C            1.865252620233    -0.000000000000    -0.000003719375    12.000000000000
         H            2.253420620233    -0.878884000000    -0.543610819375     1.007825032230
         H            2.253420620233     0.910236000000    -0.489307819375     1.007825032230
         H            2.253426620233    -0.031352000000     1.032940180625     1.007825032230

  Basis Set: AUG-CC-PVTZ
    Blend: AUG-CC-PVTZ
  Basis Set: (AUG-CC-PVTZ AUX)
    Blend: AUG-CC-PVTZ-JKFIT + DEF2-UNIVERSAL-JKFIT
	 Reference Energy          =    -334.2889852002749080 [Eh]
	 Singles Energy            =      -0.0000000000000000 [Eh]
	 Same-Spin Energy          =      -0.1151526962412535 [Eh]
	 Opposite-Spin Energy      =      -0.3388408960527970 [Eh]
	 Correlation Energy        =      -0.4539935922940506 [Eh]
	 Total Energy              =    -334.7429787925689766 [Eh]

	 ================> DF-SCS-MP2 Energies <==================
	-----------------------------------------------------------
	 SCS Same-Spin Scale       =       0.3333333333333333 [-]
	 SCS Opposite-Spin Scale   =       1.2000000000000000 [-]
	 SCS Same-Spin Energy      =      -0.0383842320804178 [Eh]
	 SCS Opposite-Spin Energy  =      -0.4066090752633564 [Eh]
	 SCS Correlation Energy    =      -0.4449933073437742 [Eh]
	 SCS Total Energy          =    -334.7339785076187013 [Eh]
	-----------------------------------------------------------

  Dipole Moment: [D]
     X:     1.5717      Y:    -0.0000      Z:     0.0000     Total:     1.5717

*** Psi4 exiting successfully. Buy a developer a beer!
