                               Psi4 1.3.2 release

  ==> Input File <==

--------------------------------------------------------------------------
#psi4
#
memory 32 gb

molecule  {
0 1
  I       -0.3277800     0.0000000     0.0000000
  C        1.7175370     0.0000000    -0.0000038
  H        2.1557050    -0.8788840    -0.5436110
  H        2.1557050     0.9102360    -0.4893080
  H        2.1557110    -0.0313520     1.0329400
units angstrom
no_reorient  #important for SAPT in psi4, default
symmetry c1  #important for SAPT in psi4, default
}

set PROPERTIES_ORIGIN ["COM"]

basis mybas {
    assign aug-cc-pvtz
    assign I aug-cc-pvtz-pp
}
properties('MP2/mybas', properties = ['dipole'])
--------------------------------------------------------------------------

    Molecular point group: c1
  Charge       = 0
  Multiplicity = 1
  Basis Set: MYBAS
    Blend: AUG-CC-PVTZ + AUG-CC-PVTZ-PP
  Basis Set: (MYBAS AUX)
    Blend: AUG-CC-PVTZ-JKFIT + DEF2-QZVPP-JKFIT

    Orbital Energies [Eh]
    ---------------------

    Doubly Occupied:

       1A    -11.282314     2A     -7.718042     3A     -5.550000
       4A     -5.540132     5A     -5.540132     6A     -2.280080
       7A     -2.274666     8A     -2.274666     9A     -2.263806
      10A     -2.263806    11A     -1.003021    12A     -0.836105
      13A     -0.582304    14A     -0.582297    15A     -0.487436
      16A     -0.362016    17A     -0.362016

  @DF-RHF Final Energy:  -334.28316378832108

   => Energetics <=

    Nuclear Repulsion Energy =             62.9362304570747924
    One-Electron Energy =                -692.0331044991055478
    Two-Electron Energy =                 294.8137102537097007
    Total Energy =                       -334.2831637883210760
  Basis Set: (MYBAS AUX)
    Blend: AUG-CC-PVTZ-RI + DEF2-QZVPP-RI
    Molecular point group: c1

    Geometry (in Angstrom), charge = 0, multiplicity = 1:

       Center              X                  Y                   Z               Mass
    ------------   -----------------  -----------------  -----------------  -----------------
         I           -0.225836882557    -0.000000000000     0.000000172170   126.904471900000
         C            1.819480117443    -0.000000000000    -0.000003627830    12.000000000000
         H            2.257648117443    -0.878884000000    -0.543610827830     1.007825032230
         H            2.257648117443     0.910236000000    -0.489307827830     1.007825032230
         H            2.257654117443    -0.031352000000     1.032940172170     1.007825032230

  Basis Set: MYBAS
    Blend: AUG-CC-PVTZ + AUG-CC-PVTZ-PP
  Basis Set: (MYBAS AUX)
    Blend: AUG-CC-PVTZ-JKFIT + DEF2-QZVPP-JKFIT
	 Reference Energy          =    -334.2831637883210760 [Eh]
	 Singles Energy            =      -0.0000000000000000 [Eh]
	 Same-Spin Energy          =      -0.1157438604138630 [Eh]
	 Opposite-Spin Energy      =      -0.3396328952800420 [Eh]
	 Correlation Energy        =      -0.4553767556939050 [Eh]
	 Total Energy              =    -334.7385405440149952 [Eh]

	 ================> DF-SCS-MP2 Energies <==================
	-----------------------------------------------------------
	 SCS Same-Spin Scale       =       0.3333333333333333 [-]
	 SCS Opposite-Spin Scale   =       1.2000000000000000 [-]
	 SCS Same-Spin Energy      =      -0.0385812868046210 [Eh]
	 SCS Opposite-Spin Energy  =      -0.4075594743360504 [Eh]
	 SCS Correlation Energy    =      -0.4461407611406714 [Eh]
	 SCS Total Energy          =    -334.7293045494617445 [Eh]
	-----------------------------------------------------------

  Dipole Moment: [D]
     X:     1.4929      Y:    -0.0000      Z:     0.0000     Total:     1.4929

*** Psi4 exiting successfully. Buy a developer a beer!
