                               Psi4 1.4a3.dev225

  ==> Input File <==

--------------------------------------------------------------------------
#psi4
#
memory 32 gb

molecule  {
0 1
  I       -0.3277800     0.0000000     0.0000000
  C        1.8375370     0.0000000    -0.0000040
  H        2.1557050    -0.8788840    -0.5436110
  H        2.1557050     0.9102360    -0.4893080
  H        2.1557110    -0.0313520     1.0329400
units angstrom
no_reorient  #important for SAPT in psi4, default
symmetry c1  #important for SAPT in psi4, default
}

set PROPERTIES_ORIGIN ["COM"]
properties('MP2/aug-cc-pvtz', properties = ['dipole'])
--------------------------------------------------------------------------

    Molecular point group: c1
  Charge       = 0
  Multiplicity = 1
  Basis Set: AUG-CC-PVTZ
    Blend: AUG-CC-PVTZ
  Basis Set: (AUG-CC-PVTZ AUX)
    Blend: AUG-CC-PVTZ-JKFIT + DEF2-UNIVERSAL-JKFIT

    Orbital Energies [Eh]
    ---------------------

    Doubly Occupied:

       1A    -11.283518     2A     -7.712778     3A     -5.544340
       4A     -5.534904     5A     -5.534904     6A     -2.273588
       7A     -2.269043     8A     -2.269043     9A     -2.258604
      10A     -2.258604    11A     -0.998641    12A     -0.839797
      13A     -0.607541    14A     -0.607534    15A     -0.457927
      16A     -0.361218    17A     -0.361217

  @DF-RHF Final Energy:  -334.29156273590155

   => Energetics <=

    Nuclear Repulsion Energy =             61.1086874392198141
    One-Electron Energy =                -688.4540945273085981
    Two-Electron Energy =                 293.0538443521872409
    Total Energy =                       -334.2915627359015502
  Basis Set: (AUG-CC-PVTZ AUX)
    Blend: AUG-CC-PVTZ-RI + DEF2-QZVPP-RI
    Molecular point group: c1

    Geometry (in Angstrom), charge = 0, multiplicity = 1:

       Center              X                  Y                   Z               Mass
    ------------   -----------------  -----------------  -----------------  -----------------
         I           -0.235982875862    -0.000000000000     0.000000189080   126.904471900000
         C            1.929334124138    -0.000000000000    -0.000003810920    12.000000000000
         H            2.247502124138    -0.878884000000    -0.543610810920     1.007825032230
         H            2.247502124138     0.910236000000    -0.489307810920     1.007825032230
         H            2.247508124138    -0.031352000000     1.032940189080     1.007825032230

  Basis Set: AUG-CC-PVTZ
    Blend: AUG-CC-PVTZ
  Basis Set: (AUG-CC-PVTZ AUX)
    Blend: AUG-CC-PVTZ-JKFIT + DEF2-UNIVERSAL-JKFIT
	 Reference Energy          =    -334.2915627359015502 [Eh]
	 Singles Energy            =      -0.0000000000000000 [Eh]
	 Same-Spin Energy          =      -0.1144864934130763 [Eh]
	 Opposite-Spin Energy      =      -0.3379572981917664 [Eh]
	 Correlation Energy        =      -0.4524437916048427 [Eh]
	 Total Energy              =    -334.7440065275063716 [Eh]

	 ================> DF-SCS-MP2 Energies <==================
	-----------------------------------------------------------
	 SCS Same-Spin Scale       =       0.3333333333333333 [-]
	 SCS Opposite-Spin Scale   =       1.2000000000000000 [-]
	 SCS Same-Spin Energy      =      -0.0381621644710254 [Eh]
	 SCS Opposite-Spin Energy  =      -0.4055487578301197 [Eh]
	 SCS Correlation Energy    =      -0.4437109223011451 [Eh]
	 SCS Total Energy          =    -334.7352736582026864 [Eh]
	-----------------------------------------------------------

  Dipole Moment: [D]
     X:     1.6919      Y:    -0.0000      Z:     0.0000     Total:     1.6919

*** Psi4 exiting successfully. Buy a developer a beer!
