                               Psi4 1.4a3.dev225

  ==> Input File <==

--------------------------------------------------------------------------
#psi4
#
memory 32 gb

molecule  {
0 1
  I       -0.3277800     0.0000000     0.0000000
  C        1.8675370     0.0000000    -0.0000041
  H        2.1557050    -0.8788840    -0.5436110
  H        2.1557050     0.9102360    -0.4893080
  H        2.1557110    -0.0313520     1.0329400
units angstrom
no_reorient  #important for SAPT in psi4, default
symmetry c1  #important for SAPT in psi4, default
}

set PROPERTIES_ORIGIN ["COM"]
properties('MP2/aug-cc-pvtz', properties = ['dipole'])
--------------------------------------------------------------------------

    Molecular point group: c1
  Charge       = 0
  Multiplicity = 1
  Basis Set: AUG-CC-PVTZ
    Blend: AUG-CC-PVTZ
  Basis Set: (AUG-CC-PVTZ AUX)
    Blend: AUG-CC-PVTZ-JKFIT + DEF2-UNIVERSAL-JKFIT

    Orbital Energies [Eh]
    ---------------------

    Doubly Occupied:

       1A    -11.284799     2A     -7.711310     3A     -5.542781
       4A     -5.533452     5A     -5.533452     6A     -2.271873
       7A     -2.267498     8A     -2.267498     9A     -2.257173
      10A     -2.257173    11A     -0.998716    12A     -0.840057
      13A     -0.613975    14A     -0.613967    15A     -0.450643
      16A     -0.360656    17A     -0.360656

  @DF-RHF Final Energy:  -334.29099717582648

   => Energetics <=

    Nuclear Repulsion Energy =             60.6770733229522747
    One-Electron Energy =                -687.6047837716407685
    Two-Electron Energy =                 292.6367132728619822
    Total Energy =                       -334.2909971758264760
  Basis Set: (AUG-CC-PVTZ AUX)
    Blend: AUG-CC-PVTZ-RI + DEF2-QZVPP-RI
    Molecular point group: c1

    Geometry (in Angstrom), charge = 0, multiplicity = 1:

       Center              X                  Y                   Z               Mass
    ------------   -----------------  -----------------  -----------------  -----------------
         I           -0.238519374188    -0.000000000000     0.000000197535   126.904471900000
         C            1.956797625812    -0.000000000000    -0.000003902465    12.000000000000
         H            2.244965625812    -0.878884000000    -0.543610802465     1.007825032230
         H            2.244965625812     0.910236000000    -0.489307802465     1.007825032230
         H            2.244971625812    -0.031352000000     1.032940197535     1.007825032230

  Basis Set: AUG-CC-PVTZ
    Blend: AUG-CC-PVTZ
  Basis Set: (AUG-CC-PVTZ AUX)
    Blend: AUG-CC-PVTZ-JKFIT + DEF2-UNIVERSAL-JKFIT
	 Reference Energy          =    -334.2909971758264760 [Eh]
	 Singles Energy            =      -0.0000000000000000 [Eh]
	 Same-Spin Energy          =      -0.1142483121963595 [Eh]
	 Opposite-Spin Energy      =      -0.3376459387466114 [Eh]
	 Correlation Energy        =      -0.4518942509429710 [Eh]
	 Total Energy              =    -334.7428914267694608 [Eh]

	 ================> DF-SCS-MP2 Energies <==================
	-----------------------------------------------------------
	 SCS Same-Spin Scale       =       0.3333333333333333 [-]
	 SCS Opposite-Spin Scale   =       1.2000000000000000 [-]
	 SCS Same-Spin Energy      =      -0.0380827707321198 [Eh]
	 SCS Opposite-Spin Energy  =      -0.4051751264959337 [Eh]
	 SCS Correlation Energy    =      -0.4432578972280535 [Eh]
	 SCS Total Energy          =    -334.7342550730545554 [Eh]
	-----------------------------------------------------------

  Dipole Moment: [D]
     X:     1.7455      Y:    -0.0000      Z:     0.0000     Total:     1.7455

*** Psi4 exiting successfully. Buy a developer a beer!
