                               Psi4 1.3.2 release

  ==> Input File <==

--------------------------------------------------------------------------
#psi4
#
memory 32 gb

molecule  {
0 1
  I       -0.3277800     0.0000000     0.0000000
  C        2.0175370     0.0000000    -0.0000044
  H        2.1557050    -0.8788840    -0.5436110
  H        2.1557050     0.9102360    -0.4893080
  H        2.1557110    -0.0313520     1.0329400
units angstrom
no_reorient  #important for SAPT in psi4, default
symmetry c1  #important for SAPT in psi4, default
}

set PROPERTIES_ORIGIN ["COM"]

basis mybas {
    assign aug-cc-pvtz
    assign I aug-cc-pvtz-pp
}
properties('MP2/mybas', properties = ['dipole'])
--------------------------------------------------------------------------

    Molecular point group: c1
  Charge       = 0
  Multiplicity = 1
  Basis Set: MYBAS
    Blend: AUG-CC-PVTZ + AUG-CC-PVTZ-PP
  Basis Set: (MYBAS AUX)
    Blend: AUG-CC-PVTZ-JKFIT + DEF2-QZVPP-JKFIT

    Orbital Energies [Eh]
    ---------------------

    Doubly Occupied:

       1A    -11.296303     2A     -7.703553     3A     -5.534605
       4A     -5.525802     5A     -5.525802     6A     -2.263135
       7A     -2.259407     8A     -2.259407     9A     -2.249679
      10A     -2.249679    11A     -1.003405    12A     -0.838618
      13A     -0.643440    14A     -0.643432    15A     -0.416781
      16A     -0.356575    17A     -0.356575

  @DF-RHF Final Energy:  -334.27769058045027

   => Energetics <=

    Nuclear Repulsion Energy =             58.6219860450369836
    One-Electron Energy =                -683.5469586287115362
    Two-Electron Energy =                 290.6472820032242339
    Total Energy =                       -334.2776905804502690
  Basis Set: (MYBAS AUX)
    Blend: AUG-CC-PVTZ-RI + DEF2-QZVPP-RI
    Molecular point group: c1

    Geometry (in Angstrom), charge = 0, multiplicity = 1:

       Center              X                  Y                   Z               Mass
    ------------   -----------------  -----------------  -----------------  -----------------
         I           -0.251201865819    -0.000000000000     0.000000222900   126.904471900000
         C            2.094115134181    -0.000000000000    -0.000004177100    12.000000000000
         H            2.232283134181    -0.878884000000    -0.543610777100     1.007825032230
         H            2.232283134181     0.910236000000    -0.489307777100     1.007825032230
         H            2.232289134181    -0.031352000000     1.032940222900     1.007825032230

  Basis Set: MYBAS
    Blend: AUG-CC-PVTZ + AUG-CC-PVTZ-PP
  Basis Set: (MYBAS AUX)
    Blend: AUG-CC-PVTZ-JKFIT + DEF2-QZVPP-JKFIT
	 Reference Energy          =    -334.2776905804502690 [Eh]
	 Singles Energy            =      -0.0000000000000000 [Eh]
	 Same-Spin Energy          =      -0.1133726606441412 [Eh]
	 Opposite-Spin Energy      =      -0.3366201942276629 [Eh]
	 Correlation Energy        =      -0.4499928548718041 [Eh]
	 Total Energy              =    -334.7276834353220920 [Eh]

	 ================> DF-SCS-MP2 Energies <==================
	-----------------------------------------------------------
	 SCS Same-Spin Scale       =       0.3333333333333333 [-]
	 SCS Opposite-Spin Scale   =       1.2000000000000000 [-]
	 SCS Same-Spin Energy      =      -0.0377908868813804 [Eh]
	 SCS Opposite-Spin Energy  =      -0.4039442330731954 [Eh]
	 SCS Correlation Energy    =      -0.4417351199545758 [Eh]
	 SCS Total Energy          =    -334.7194257004048268 [Eh]
	-----------------------------------------------------------

  Dipole Moment: [D]
     X:     1.9894      Y:    -0.0000      Z:     0.0000     Total:     1.9894

*** Psi4 exiting successfully. Buy a developer a beer!
