                               Psi4 1.3.2 release

  ==> Input File <==

--------------------------------------------------------------------------
#psi4
#
memory 32 gb

molecule  {
0 1
  I       -0.3264732    -0.0636748    -0.0393841
  C        1.8175370     0.0000000    -0.0000040
  H        2.1557050    -0.8788840    -0.5436110
  H        2.1557050     0.9102360    -0.4893080
  H        2.1557110    -0.0313520     1.0329400
units angstrom
no_reorient  #important for SAPT in psi4, default
symmetry c1  #important for SAPT in psi4, default
}

set PROPERTIES_ORIGIN ["COM"]

basis mybas {
    assign aug-cc-pvtz
    assign I aug-cc-pvtz-pp
}
properties('MP2/mybas', properties = ['dipole'])
--------------------------------------------------------------------------

    Molecular point group: c1
  Charge       = 0
  Multiplicity = 1
  Basis Set: MYBAS
    Blend: AUG-CC-PVTZ + AUG-CC-PVTZ-PP
  Basis Set: (MYBAS AUX)
    Blend: AUG-CC-PVTZ-JKFIT + DEF2-QZVPP-JKFIT

    Orbital Energies [Eh]
    ---------------------

    Doubly Occupied:

       1A    -11.282870     2A     -7.713740     3A     -5.545367
       4A     -5.535867     5A     -5.535846     6A     -2.274729
       7A     -2.270070     8A     -2.270054     9A     -2.259545
      10A     -2.259544    11A     -0.998850    12A     -0.839486
      13A     -0.603430    14A     -0.603077    15A     -0.462770
      16A     -0.361723    17A     -0.361311

  @DF-RHF Final Energy:  -334.29128477727767

   => Energetics <=

    Nuclear Repulsion Energy =             61.4035771404128354
    One-Electron Energy =                -689.0331660568691632
    Two-Electron Energy =                 293.3383041391786605
    Total Energy =                       -334.2912847772776672
  Basis Set: (MYBAS AUX)
    Blend: AUG-CC-PVTZ-RI + DEF2-QZVPP-RI
    Molecular point group: c1

    Geometry (in Angstrom), charge = 0, multiplicity = 1:

       Center              X                  Y                   Z               Mass
    ------------   -----------------  -----------------  -----------------  -----------------
         I           -0.234153548497    -0.006740157892    -0.004168729432   126.904471900000
         C            1.909856651503     0.056934642108     0.035211370568    12.000000000000
         H            2.248024651503    -0.821949357892    -0.508395629432     1.007825032230
         H            2.248024651503     0.967170642108    -0.454092629432     1.007825032230
         H            2.248030651503     0.025582642108     1.068155370568     1.007825032230

  Basis Set: MYBAS
    Blend: AUG-CC-PVTZ + AUG-CC-PVTZ-PP
  Basis Set: (MYBAS AUX)
    Blend: AUG-CC-PVTZ-JKFIT + DEF2-QZVPP-JKFIT
	 Reference Energy          =    -334.2912847772776672 [Eh]
	 Singles Energy            =      -0.0000000000000000 [Eh]
	 Same-Spin Energy          =      -0.1146660020150498 [Eh]
	 Opposite-Spin Energy      =      -0.3381979538712165 [Eh]
	 Correlation Energy        =      -0.4528639558862663 [Eh]
	 Total Energy              =    -334.7441487331639109 [Eh]

	 ================> DF-SCS-MP2 Energies <==================
	-----------------------------------------------------------
	 SCS Same-Spin Scale       =       0.3333333333333333 [-]
	 SCS Opposite-Spin Scale   =       1.2000000000000000 [-]
	 SCS Same-Spin Energy      =      -0.0382220006716833 [Eh]
	 SCS Opposite-Spin Energy  =      -0.4058375446454598 [Eh]
	 SCS Correlation Energy    =      -0.4440595453171431 [Eh]
	 SCS Total Energy          =    -334.7353443225948126 [Eh]
	-----------------------------------------------------------

  Dipole Moment: [D]
     X:     1.6559      Y:     0.0343      Z:     0.0212     Total:     1.6564

*** Psi4 exiting successfully. Buy a developer a beer!
