                               Psi4 1.3.2 release

  ==> Input File <==

--------------------------------------------------------------------------
#psi4
#
memory 32 gb

molecule  {
0 1
  I       -0.3225543    -0.1272721    -0.0787202
  C        1.8175370     0.0000000    -0.0000040
  H        2.1557050    -0.8788840    -0.5436110
  H        2.1557050     0.9102360    -0.4893080
  H        2.1557110    -0.0313520     1.0329400
units angstrom
no_reorient  #important for SAPT in psi4, default
symmetry c1  #important for SAPT in psi4, default
}

set PROPERTIES_ORIGIN ["COM"]

basis mybas {
    assign aug-cc-pvtz
    assign I aug-cc-pvtz-pp
}
properties('MP2/mybas', properties = ['dipole'])
--------------------------------------------------------------------------

    Molecular point group: c1
  Charge       = 0
  Multiplicity = 1
  Basis Set: MYBAS
    Blend: AUG-CC-PVTZ + AUG-CC-PVTZ-PP
  Basis Set: (MYBAS AUX)
    Blend: AUG-CC-PVTZ-JKFIT + DEF2-QZVPP-JKFIT

    Orbital Energies [Eh]
    ---------------------

    Doubly Occupied:

       1A    -11.282841     2A     -7.713786     3A     -5.545419
       4A     -5.535919     5A     -5.535878     6A     -2.274781
       7A     -2.270128     8A     -2.270097     9A     -2.259584
      10A     -2.259582    11A     -0.998937    12A     -0.839478
      13A     -0.603680    14A     -0.602925    15A     -0.462589
      16A     -0.361940    17A     -0.361065

  @DF-RHF Final Energy:  -334.29088235281660

   => Energetics <=

    Nuclear Repulsion Energy =             61.4101585170217987
    One-Electron Energy =                -689.0448226392373954
    Two-Electron Energy =                 293.3437817693989587
    Total Energy =                       -334.2908823528165954
  Basis Set: (MYBAS AUX)
    Blend: AUG-CC-PVTZ-RI + DEF2-QZVPP-RI
    Molecular point group: c1

    Geometry (in Angstrom), charge = 0, multiplicity = 1:

       Center              X                  Y                   Z               Mass
    ------------   -----------------  -----------------  -----------------  -----------------
         I           -0.233738721835    -0.013472112190    -0.008332567008   126.904471900000
         C            1.906352578165     0.113799987810     0.070383632992    12.000000000000
         H            2.244520578165    -0.765084012190    -0.473223367008     1.007825032230
         H            2.244520578165     1.024035987810    -0.418920367008     1.007825032230
         H            2.244526578165     0.082447987810     1.103327632992     1.007825032230

  Basis Set: MYBAS
    Blend: AUG-CC-PVTZ + AUG-CC-PVTZ-PP
  Basis Set: (MYBAS AUX)
    Blend: AUG-CC-PVTZ-JKFIT + DEF2-QZVPP-JKFIT
	 Reference Energy          =    -334.2908823528165954 [Eh]
	 Singles Energy            =      -0.0000000000000000 [Eh]
	 Same-Spin Energy          =      -0.1146842904713678 [Eh]
	 Opposite-Spin Energy      =      -0.3382339046203423 [Eh]
	 Correlation Energy        =      -0.4529181950917101 [Eh]
	 Total Energy              =    -334.7438005479082790 [Eh]

	 ================> DF-SCS-MP2 Energies <==================
	-----------------------------------------------------------
	 SCS Same-Spin Scale       =       0.3333333333333333 [-]
	 SCS Opposite-Spin Scale   =       1.2000000000000000 [-]
	 SCS Same-Spin Energy      =      -0.0382280968237893 [Eh]
	 SCS Opposite-Spin Energy  =      -0.4058806855444108 [Eh]
	 SCS Correlation Energy    =      -0.4441087823682000 [Eh]
	 SCS Total Energy          =    -334.7349911351847709 [Eh]
	-----------------------------------------------------------

  Dipole Moment: [D]
     X:     1.6535      Y:     0.0685      Z:     0.0424     Total:     1.6555

*** Psi4 exiting successfully. Buy a developer a beer!
