                               Psi4 1.3.2 release

  ==> Input File <==

--------------------------------------------------------------------------
#psi4
#
memory 32 gb

molecule  {
0 1
  I       -0.3277800     0.0000000     0.0000000
  C        1.8175370     0.0000000    -0.0000040
  H        2.1557050    -0.8788840    -0.5436110
  H        2.1557050     0.9102360    -0.4893080
  H        2.1557110    -0.0313520     1.0329400
units angstrom
no_reorient  #important for SAPT in psi4, default
symmetry c1  #important for SAPT in psi4, default
}

set PROPERTIES_ORIGIN ["COM"]
basis mybas {
    assign aug-cc-pvtz
    assign I aug-cc-pvtz-pp
}
properties('MP2/mybas', properties = ['dipole'])
--------------------------------------------------------------------------

    Molecular point group: c1
  Charge       = 0
  Multiplicity = 1
  Basis Set: MYBAS
    Blend: AUG-CC-PVTZ + AUG-CC-PVTZ-PP
  Basis Set: (MYBAS AUX)
    Blend: AUG-CC-PVTZ-JKFIT + DEF2-QZVPP-JKFIT

    Orbital Energies [Eh]
    ---------------------

    Doubly Occupied:

       1A    -11.282879     2A     -7.713726     3A     -5.545350
       4A     -5.535843     5A     -5.535843     6A     -2.274712
       7A     -2.270045     8A     -2.270045     9A     -2.259532
      10A     -2.259532    11A     -0.998822    12A     -0.839489
      13A     -0.603240    14A     -0.603233    15A     -0.462831
      16A     -0.361522    17A     -0.361522

  @DF-RHF Final Energy:  -334.29141828215660

   => Energetics <=

    Nuclear Repulsion Energy =             61.4013992221944349
    One-Electron Energy =                -689.0293035516538112
    Two-Electron Energy =                 293.3364860473027989
    Total Energy =                       -334.2914182821565987
  Basis Set: (MYBAS AUX)
    Blend: AUG-CC-PVTZ-RI + DEF2-QZVPP-RI
    Molecular point group: c1

    Geometry (in Angstrom), charge = 0, multiplicity = 1:

       Center              X                  Y                   Z               Mass
    ------------   -----------------  -----------------  -----------------  -----------------
         I           -0.234291876978    -0.000000000000     0.000000189080   126.904471900000
         C            1.911025123022    -0.000000000000    -0.000003810920    12.000000000000
         H            2.249193123022    -0.878884000000    -0.543610810920     1.007825032230
         H            2.249193123022     0.910236000000    -0.489307810920     1.007825032230
         H            2.249199123022    -0.031352000000     1.032940189080     1.007825032230

  Basis Set: MYBAS
    Blend: AUG-CC-PVTZ + AUG-CC-PVTZ-PP
  Basis Set: (MYBAS AUX)
    Blend: AUG-CC-PVTZ-JKFIT + DEF2-QZVPP-JKFIT
	 Reference Energy          =    -334.2914182821565987 [Eh]
	 Singles Energy            =      -0.0000000000000000 [Eh]
	 Same-Spin Energy          =      -0.1146599732937230 [Eh]
	 Opposite-Spin Energy      =      -0.3381860522714923 [Eh]
	 Correlation Energy        =      -0.4528460255652154 [Eh]
	 Total Energy              =    -334.7442643077218349 [Eh]

	 ================> DF-SCS-MP2 Energies <==================
	-----------------------------------------------------------
	 SCS Same-Spin Scale       =       0.3333333333333333 [-]
	 SCS Opposite-Spin Scale   =       1.2000000000000000 [-]
	 SCS Same-Spin Energy      =      -0.0382199910979077 [Eh]
	 SCS Opposite-Spin Energy  =      -0.4058232627257908 [Eh]
	 SCS Correlation Energy    =      -0.4440432538236985 [Eh]
	 SCS Total Energy          =    -334.7354615359802779 [Eh]
	-----------------------------------------------------------

  Dipole Moment: [D]
     X:     1.6567      Y:    -0.0000      Z:     0.0000     Total:     1.6567

*** Psi4 exiting successfully. Buy a developer a beer!
