                               Psi4 1.3.2 release

  ==> Input File <==

--------------------------------------------------------------------------
#psi4
#
memory 32 gb

molecule  {
1 1
  N       -0.4820890    -0.2204400     0.0611380
  C        0.3649188    -1.1288952    -0.3893111
  C        0.0352210     1.1635170    -0.2825800
  C        1.9231090    -1.0498370     0.0125270
  C        1.4559810     1.4024730     0.2057820
  C       -1.8126550    -0.4655410    -0.6371030
  C        2.4161490     0.3504860    -0.3416810
  C       -0.6569180    -0.3697370     1.5418350
  C       -2.9537840     0.4422600    -0.2148440
  H        0.4401460    -1.2024090    -1.5488290
  H        0.0974590    -2.2384020    -0.1488000
  H       -0.6659240     1.8829090     0.1439630
  H       -0.0118010     1.2353730    -1.3742740
  H        2.5349810    -1.8144250    -0.4785470
  H        2.0170420    -1.2344280     1.0876600
  H        1.4907670     1.4297660     1.3002730
  H        1.7427260     2.4044990    -0.1312730
  H       -1.6076080    -0.3598680    -1.7054840
  H       -2.0575360    -1.5131640    -0.4404110
  H        3.4221240     0.5100020     0.0566650
  H        2.4871430     0.4507070    -1.4320070
  H        0.3126810    -0.3486860     2.0312100
  H       -1.2698770     0.4499320     1.9127640
  H       -1.1475680    -1.3248790     1.7354010
  H       -3.8251770     0.1584960    -0.8113200
  H       -3.2293180     0.3182590     0.8332870
  H       -2.7570620     1.4961540    -0.4168730
units angstrom
no_reorient  #important for SAPT in psi4, default
symmetry c1  #important for SAPT in psi4, default
}

set PROPERTIES_ORIGIN ["COM"]
properties('MP2/aug-cc-pvtz', properties = ['dipole'])
--------------------------------------------------------------------------

    Molecular point group: c1
  Charge       = 1
  Multiplicity = 1
  Basis Set: AUG-CC-PVTZ
    Blend: AUG-CC-PVTZ
  Basis Set: (AUG-CC-PVTZ AUX)
    Blend: AUG-CC-PVTZ-JKFIT

    Orbital Energies [Eh]
    ---------------------

    Doubly Occupied:

       1A    -15.849370     2A    -11.446137     3A    -11.442943
       4A    -11.440548     5A    -11.434590     6A    -11.380158
       7A    -11.379735     8A    -11.377417     9A    -11.362884
      10A     -1.534198    11A     -1.248566    12A     -1.206683
      13A     -1.186987    14A     -1.156507    15A     -1.057706
      16A     -1.035339    17A     -0.995973    18A     -0.924051
      19A     -0.877843    20A     -0.849657    21A     -0.828160
      22A     -0.801551    23A     -0.776105    24A     -0.755771
      25A     -0.740978    26A     -0.729600    27A     -0.723271
      28A     -0.711824    29A     -0.685732    30A     -0.679649
      31A     -0.675756    32A     -0.665402    33A     -0.648882
      34A     -0.619011    35A     -0.608754    36A     -0.587194

  @DF-RHF Final Energy:  -367.75662717361973

   => Energetics <=

    Nuclear Repulsion Energy =            529.6581784382740352
    One-Electron Energy =               -1533.9797459966721362
    Two-Electron Energy =                 636.5649403847783105
    Total Energy =                       -367.7566271736197905
  Basis Set: (AUG-CC-PVTZ AUX)
    Blend: AUG-CC-PVTZ-RI
    Molecular point group: c1

    Geometry (in Angstrom), charge = 1, multiplicity = 1:

       Center              X                  Y                   Z               Mass
    ------------   -----------------  -----------------  -----------------  -----------------
         N           -0.485763554739    -0.230991059656     0.059500593833    14.003074004430
         C            0.361244245261    -1.139446259656    -0.390948506167    12.000000000000
         C            0.031546445261     1.152965940344    -0.284217406167    12.000000000000
         C            1.919434445261    -1.060388059656     0.010889593833    12.000000000000
         C            1.452306445261     1.391921940344     0.204144593833    12.000000000000
         C           -1.816329554739    -0.476092059656    -0.638740406167    12.000000000000
         C            2.412474445261     0.339934940344    -0.343318406167    12.000000000000
         C           -0.660592554739    -0.380288059656     1.540197593833    12.000000000000
         C           -2.957458554739     0.431708940344    -0.216481406167    12.000000000000
         H            0.436471445261    -1.212960059656    -1.550466406167     1.007825032230
         H            0.093784445261    -2.248953059656    -0.150437406167     1.007825032230
         H           -0.669598554739     1.872357940344     0.142325593833     1.007825032230
         H           -0.015475554739     1.224821940344    -1.375911406167     1.007825032230
         H            2.531306445261    -1.824976059656    -0.480184406167     1.007825032230
         H            2.013367445261    -1.244979059656     1.086022593833     1.007825032230
         H            1.487092445261     1.419214940344     1.298635593833     1.007825032230
         H            1.739051445261     2.393947940344    -0.132910406167     1.007825032230
         H           -1.611282554739    -0.370419059656    -1.707121406167     1.007825032230
         H           -2.061210554739    -1.523715059656    -0.442048406167     1.007825032230
         H            3.418449445261     0.499450940344     0.055027593833     1.007825032230
         H            2.483468445261     0.440155940344    -1.433644406167     1.007825032230
         H            0.309006445261    -0.359237059656     2.029572593833     1.007825032230
         H           -1.273551554739     0.439380940344     1.911126593833     1.007825032230
         H           -1.151242554739    -1.335430059656     1.733763593833     1.007825032230
         H           -3.828851554739     0.147944940344    -0.812957406167     1.007825032230
         H           -3.232992554739     0.307707940344     0.831649593833     1.007825032230
         H           -2.760736554739     1.485602940344    -0.418510406167     1.007825032230

  Basis Set: AUG-CC-PVTZ
    Blend: AUG-CC-PVTZ
  Basis Set: (AUG-CC-PVTZ AUX)
    Blend: AUG-CC-PVTZ-JKFIT
	 Reference Energy          =    -367.7566271736197336 [Eh]
	 Singles Energy            =      -0.0000000000000000 [Eh]
	 Same-Spin Energy          =      -0.3960667374994619 [Eh]
	 Opposite-Spin Energy      =      -1.4115423179990645 [Eh]
	 Correlation Energy        =      -1.8076090554985265 [Eh]
	 Total Energy              =    -369.5642362291182508 [Eh]

	 ================> DF-SCS-MP2 Energies <==================
	-----------------------------------------------------------
	 SCS Same-Spin Scale       =       0.3333333333333333 [-]
	 SCS Opposite-Spin Scale   =       1.2000000000000000 [-]
	 SCS Same-Spin Energy      =      -0.1320222458331539 [Eh]
	 SCS Opposite-Spin Energy  =      -1.6938507815988773 [Eh]
	 SCS Correlation Energy    =      -1.8258730274320312 [Eh]
	 SCS Total Energy          =    -369.5825002010517437 [Eh]
	-----------------------------------------------------------

  Dipole Moment: [D]
     X:    -1.7174      Y:    -0.3522      Z:     0.3175     Total:     1.7816

*** Psi4 exiting successfully. Buy a developer a beer!
