                               Psi4 1.3.2 release

  ==> Input File <==

--------------------------------------------------------------------------
#psi4
#
memory 32 gb

molecule  {
1 1
  N       -0.4820890    -0.2204400     0.0611380
  C        0.4613952    -1.3042897    -0.4380734
  C        0.0352210     1.1635170    -0.2825800
  C        1.9231090    -1.0498370     0.0125270
  C        1.4559810     1.4024730     0.2057820
  C       -1.8126550    -0.4655410    -0.6371030
  C        2.4161490     0.3504860    -0.3416810
  C       -0.6569180    -0.3697370     1.5418350
  C       -2.9537840     0.4422600    -0.2148440
  H        0.4401460    -1.2024090    -1.5488290
  H        0.0974590    -2.2384020    -0.1488000
  H       -0.6659240     1.8829090     0.1439630
  H       -0.0118010     1.2353730    -1.3742740
  H        2.5349810    -1.8144250    -0.4785470
  H        2.0170420    -1.2344280     1.0876600
  H        1.4907670     1.4297660     1.3002730
  H        1.7427260     2.4044990    -0.1312730
  H       -1.6076080    -0.3598680    -1.7054840
  H       -2.0575360    -1.5131640    -0.4404110
  H        3.4221240     0.5100020     0.0566650
  H        2.4871430     0.4507070    -1.4320070
  H        0.3126810    -0.3486860     2.0312100
  H       -1.2698770     0.4499320     1.9127640
  H       -1.1475680    -1.3248790     1.7354010
  H       -3.8251770     0.1584960    -0.8113200
  H       -3.2293180     0.3182590     0.8332870
  H       -2.7570620     1.4961540    -0.4168730
units angstrom
no_reorient  #important for SAPT in psi4, default
symmetry c1  #important for SAPT in psi4, default
}

set PROPERTIES_ORIGIN ["COM"]
properties('MP2/aug-cc-pvtz', properties = ['dipole'])
--------------------------------------------------------------------------

    Molecular point group: c1
  Charge       = 1
  Multiplicity = 1
  Basis Set: AUG-CC-PVTZ
    Blend: AUG-CC-PVTZ
  Basis Set: (AUG-CC-PVTZ AUX)
    Blend: AUG-CC-PVTZ-JKFIT

    Orbital Energies [Eh]
    ---------------------

    Doubly Occupied:

       1A    -15.843256     2A    -11.441307     3A    -11.438188
       4A    -11.437572     5A    -11.434334     6A    -11.379269
       7A    -11.377885     8A    -11.374038     9A    -11.366901
      10A     -1.483316    11A     -1.247549    12A     -1.199673
      13A     -1.188058    14A     -1.140577    15A     -1.057467
      16A     -1.033019    17A     -0.985510    18A     -0.924485
      19A     -0.869107    20A     -0.837443    21A     -0.818381
      22A     -0.804719    23A     -0.770318    24A     -0.757611
      25A     -0.742586    26A     -0.723274    27A     -0.719540
      28A     -0.708853    29A     -0.694515    30A     -0.678220
      31A     -0.671550    32A     -0.661733    33A     -0.661051
      34A     -0.619094    35A     -0.615590    36A     -0.610501

  @DF-RHF Final Energy:  -367.79432764922751

   => Energetics <=

    Nuclear Repulsion Energy =            525.7130296364933884
    One-Electron Energy =               -1526.3817338562314490
    Two-Electron Energy =                 632.8743765705105488
    Total Energy =                       -367.7943276492275118
  Basis Set: (AUG-CC-PVTZ AUX)
    Blend: AUG-CC-PVTZ-RI
    Molecular point group: c1

    Geometry (in Angstrom), charge = 1, multiplicity = 1:

       Center              X                  Y                   Z               Mass
    ------------   -----------------  -----------------  -----------------  -----------------
         N           -0.494798058745    -0.214566293466     0.064066925026    14.003074004430
         C            0.448686141255    -1.298415993466    -0.435144474974    12.000000000000
         C            0.022511941255     1.169390706534    -0.279651074974    12.000000000000
         C            1.910399941255    -1.043963293466     0.015455925026    12.000000000000
         C            1.443271941255     1.408346706534     0.208710925026    12.000000000000
         C           -1.825364058745    -0.459667293466    -0.634174074974    12.000000000000
         C            2.403439941255     0.356359706534    -0.338752074974    12.000000000000
         C           -0.669627058745    -0.363863293466     1.544763925026    12.000000000000
         C           -2.966493058745     0.448133706534    -0.211915074974    12.000000000000
         H            0.427436941255    -1.196535293466    -1.545900074974     1.007825032230
         H            0.084749941255    -2.232528293466    -0.145871074974     1.007825032230
         H           -0.678633058745     1.888782706534     0.146891925026     1.007825032230
         H           -0.024510058745     1.241246706534    -1.371345074974     1.007825032230
         H            2.522271941255    -1.808551293466    -0.475618074974     1.007825032230
         H            2.004332941255    -1.228554293466     1.090588925026     1.007825032230
         H            1.478057941255     1.435639706534     1.303201925026     1.007825032230
         H            1.730016941255     2.410372706534    -0.128344074974     1.007825032230
         H           -1.620317058745    -0.353994293466    -1.702555074974     1.007825032230
         H           -2.070245058745    -1.507290293466    -0.437482074974     1.007825032230
         H            3.409414941255     0.515875706534     0.059593925026     1.007825032230
         H            2.474433941255     0.456580706534    -1.429078074974     1.007825032230
         H            0.299971941255    -0.342812293466     2.034138925026     1.007825032230
         H           -1.282586058745     0.455805706534     1.915692925026     1.007825032230
         H           -1.160277058745    -1.319005293466     1.738329925026     1.007825032230
         H           -3.837886058745     0.164369706534    -0.808391074974     1.007825032230
         H           -3.242027058745     0.324132706534     0.836215925026     1.007825032230
         H           -2.769771058745     1.502027706534    -0.413944074974     1.007825032230

  Basis Set: AUG-CC-PVTZ
    Blend: AUG-CC-PVTZ
  Basis Set: (AUG-CC-PVTZ AUX)
    Blend: AUG-CC-PVTZ-JKFIT
	 Reference Energy          =    -367.7943276492275118 [Eh]
	 Singles Energy            =      -0.0000000000000000 [Eh]
	 Same-Spin Energy          =      -0.3935079934432472 [Eh]
	 Opposite-Spin Energy      =      -1.4091428299791482 [Eh]
	 Correlation Energy        =      -1.8026508234223955 [Eh]
	 Total Energy              =    -369.5969784726498801 [Eh]

	 ================> DF-SCS-MP2 Energies <==================
	-----------------------------------------------------------
	 SCS Same-Spin Scale       =       0.3333333333333333 [-]
	 SCS Opposite-Spin Scale   =       1.2000000000000000 [-]
	 SCS Same-Spin Energy      =      -0.1311693311477490 [Eh]
	 SCS Opposite-Spin Energy  =      -1.6909713959749777 [Eh]
	 SCS Correlation Energy    =      -1.8221407271227268 [Eh]
	 SCS Total Energy          =    -369.6164683763502126 [Eh]
	-----------------------------------------------------------

  Dipole Moment: [D]
     X:    -1.4927      Y:    -0.5418      Z:     0.2149     Total:     1.6025

*** Psi4 exiting successfully. Buy a developer a beer!
