                               Psi4 1.3.2 release

  ==> Input File <==

--------------------------------------------------------------------------
#psi4
#
memory 32 gb

molecule  {
1 1
  N       -0.4820890    -0.2204400     0.0611380
  C        0.6213512    -1.4039308    -0.5256849
  C        0.0352210     1.1635170    -0.2825800
  C        1.9231090    -1.0498370     0.0125270
  C        1.4559810     1.4024730     0.2057820
  C       -1.8126550    -0.4655410    -0.6371030
  C        2.4161490     0.3504860    -0.3416810
  C       -0.6569180    -0.3697370     1.5418350
  C       -2.9537840     0.4422600    -0.2148440
  H        0.4401460    -1.2024090    -1.5488290
  H        0.0974590    -2.2384020    -0.1488000
  H       -0.6659240     1.8829090     0.1439630
  H       -0.0118010     1.2353730    -1.3742740
  H        2.5349810    -1.8144250    -0.4785470
  H        2.0170420    -1.2344280     1.0876600
  H        1.4907670     1.4297660     1.3002730
  H        1.7427260     2.4044990    -0.1312730
  H       -1.6076080    -0.3598680    -1.7054840
  H       -2.0575360    -1.5131640    -0.4404110
  H        3.4221240     0.5100020     0.0566650
  H        2.4871430     0.4507070    -1.4320070
  H        0.3126810    -0.3486860     2.0312100
  H       -1.2698770     0.4499320     1.9127640
  H       -1.1475680    -1.3248790     1.7354010
  H       -3.8251770     0.1584960    -0.8113200
  H       -3.2293180     0.3182590     0.8332870
  H       -2.7570620     1.4961540    -0.4168730
units angstrom
no_reorient  #important for SAPT in psi4, default
symmetry c1  #important for SAPT in psi4, default
}

set PROPERTIES_ORIGIN ["COM"]
properties('MP2/aug-cc-pvtz', properties = ['dipole'])
--------------------------------------------------------------------------

    Molecular point group: c1
  Charge       = 1
  Multiplicity = 1
  Basis Set: AUG-CC-PVTZ
    Blend: AUG-CC-PVTZ
  Basis Set: (AUG-CC-PVTZ AUX)
    Blend: AUG-CC-PVTZ-JKFIT

    Orbital Energies [Eh]
    ---------------------

    Doubly Occupied:

       1A    -15.822458     2A    -11.455120     3A    -11.434487
       4A    -11.430220     5A    -11.426429     6A    -11.382394
       7A    -11.376085     8A    -11.371889     9A    -11.368848
      10A     -1.449150    11A     -1.258551    12A     -1.205162
      13A     -1.180470    14A     -1.129236    15A     -1.058366
      16A     -1.029768    17A     -0.975057    18A     -0.929690
      19A     -0.855602    20A     -0.833026    21A     -0.814768
      22A     -0.806020    23A     -0.772278    24A     -0.760031
      25A     -0.742439    26A     -0.718640    27A     -0.714375
      28A     -0.707511    29A     -0.704528    30A     -0.673255
      31A     -0.667249    32A     -0.659385    33A     -0.652974
      34A     -0.627459    35A     -0.621342    36A     -0.593390

  @DF-RHF Final Energy:  -367.77218629011423

   => Energetics <=

    Nuclear Repulsion Energy =            522.9674232097853519
    One-Electron Energy =               -1521.0639176212644088
    Two-Electron Energy =                 630.3243081213648793
    Total Energy =                       -367.7721862901141776
  Basis Set: (AUG-CC-PVTZ AUX)
    Blend: AUG-CC-PVTZ-RI
    Molecular point group: c1

    Geometry (in Angstrom), charge = 1, multiplicity = 1:

       Center              X                  Y                   Z               Mass
    ------------   -----------------  -----------------  -----------------  -----------------
         N           -0.509777091158    -0.205235432062     0.072271278087    14.003074004430
         C            0.593663108842    -1.388726232062    -0.514551621913    12.000000000000
         C            0.007532908842     1.178721567938    -0.271446721913    12.000000000000
         C            1.895420908842    -1.034632432062     0.023660278087    12.000000000000
         C            1.428292908842     1.417677567938     0.216915278087    12.000000000000
         C           -1.840343091158    -0.450336432062    -0.625969721913    12.000000000000
         C            2.388460908842     0.365690567938    -0.330547721913    12.000000000000
         C           -0.684606091158    -0.354532432062     1.552968278087    12.000000000000
         C           -2.981472091158     0.457464567938    -0.203710721913    12.000000000000
         H            0.412457908842    -1.187204432062    -1.537695721913     1.007825032230
         H            0.069770908842    -2.223197432062    -0.137666721913     1.007825032230
         H           -0.693612091158     1.898113567938     0.155096278087     1.007825032230
         H           -0.039489091158     1.250577567938    -1.363140721913     1.007825032230
         H            2.507292908842    -1.799220432062    -0.467413721913     1.007825032230
         H            1.989353908842    -1.219223432062     1.098793278087     1.007825032230
         H            1.463078908842     1.444970567938     1.311406278087     1.007825032230
         H            1.715037908842     2.419703567938    -0.120139721913     1.007825032230
         H           -1.635296091158    -0.344663432062    -1.694350721913     1.007825032230
         H           -2.085224091158    -1.497959432062    -0.429277721913     1.007825032230
         H            3.394435908842     0.525206567938     0.067798278087     1.007825032230
         H            2.459454908842     0.465911567938    -1.420873721913     1.007825032230
         H            0.284992908842    -0.333481432062     2.042343278087     1.007825032230
         H           -1.297565091158     0.465136567938     1.923897278087     1.007825032230
         H           -1.175256091158    -1.309674432062     1.746534278087     1.007825032230
         H           -3.852865091158     0.173700567938    -0.800186721913     1.007825032230
         H           -3.257006091158     0.333463567938     0.844420278087     1.007825032230
         H           -2.784750091158     1.511358567938    -0.405739721913     1.007825032230

  Basis Set: AUG-CC-PVTZ
    Blend: AUG-CC-PVTZ
  Basis Set: (AUG-CC-PVTZ AUX)
    Blend: AUG-CC-PVTZ-JKFIT
	 Reference Energy          =    -367.7721862901142345 [Eh]
	 Singles Energy            =      -0.0000000000000000 [Eh]
	 Same-Spin Energy          =      -0.3943537938997984 [Eh]
	 Opposite-Spin Energy      =      -1.4113386480079444 [Eh]
	 Correlation Energy        =      -1.8056924419077429 [Eh]
	 Total Energy              =    -369.5778787320219863 [Eh]

	 ================> DF-SCS-MP2 Energies <==================
	-----------------------------------------------------------
	 SCS Same-Spin Scale       =       0.3333333333333333 [-]
	 SCS Opposite-Spin Scale   =       1.2000000000000000 [-]
	 SCS Same-Spin Energy      =      -0.1314512646332661 [Eh]
	 SCS Opposite-Spin Energy  =      -1.6936063776095331 [Eh]
	 SCS Correlation Energy    =      -1.8250576422427993 [Eh]
	 SCS Total Energy          =    -369.5972439323570597 [Eh]
	-----------------------------------------------------------

  Dipole Moment: [D]
     X:    -1.0629      Y:    -0.8193      Z:     0.0844     Total:     1.3447

*** Psi4 exiting successfully. Buy a developer a beer!
