                               Psi4 1.3.2 release

  ==> Input File <==

--------------------------------------------------------------------------
#psi4
#
memory 32 gb

molecule  {
1 1
  N       -0.4820890    -0.2204400     0.0611380
  C        0.4285058    -1.3408460    -0.4180406
  C        0.0352210     1.1635170    -0.2825800
  C        1.9231090    -1.0498370     0.0125270
  C        1.4559810     1.4024730     0.2057820
  C       -1.8126550    -0.4655410    -0.6371030
  C        2.4161490     0.3504860    -0.3416810
  C       -0.6569180    -0.3697370     1.5418350
  C       -2.9537840     0.4422600    -0.2148440
  H        0.4401460    -1.2024090    -1.5488290
  H        0.0974590    -2.2384020    -0.1488000
  H       -0.6659240     1.8829090     0.1439630
  H       -0.0118010     1.2353730    -1.3742740
  H        2.5349810    -1.8144250    -0.4785470
  H        2.0170420    -1.2344280     1.0876600
  H        1.4907670     1.4297660     1.3002730
  H        1.7427260     2.4044990    -0.1312730
  H       -1.6076080    -0.3598680    -1.7054840
  H       -2.0575360    -1.5131640    -0.4404110
  H        3.4221240     0.5100020     0.0566650
  H        2.4871430     0.4507070    -1.4320070
  H        0.3126810    -0.3486860     2.0312100
  H       -1.2698770     0.4499320     1.9127640
  H       -1.1475680    -1.3248790     1.7354010
  H       -3.8251770     0.1584960    -0.8113200
  H       -3.2293180     0.3182590     0.8332870
  H       -2.7570620     1.4961540    -0.4168730
units angstrom
no_reorient  #important for SAPT in psi4, default
symmetry c1  #important for SAPT in psi4, default
}

set PROPERTIES_ORIGIN ["COM"]
properties('MP2/aug-cc-pvtz', properties = ['dipole'])
--------------------------------------------------------------------------

    Molecular point group: c1
  Charge       = 1
  Multiplicity = 1
  Basis Set: AUG-CC-PVTZ
    Blend: AUG-CC-PVTZ
  Basis Set: (AUG-CC-PVTZ AUX)
    Blend: AUG-CC-PVTZ-JKFIT

    Orbital Energies [Eh]
    ---------------------

    Doubly Occupied:

       1A    -15.843663     2A    -11.441006     3A    -11.439134
       4A    -11.437078     5A    -11.434203     6A    -11.380748
       7A    -11.378018     8A    -11.373678     9A    -11.367605
      10A     -1.483408    11A     -1.245410    12A     -1.199673
      13A     -1.187421    14A     -1.140075    15A     -1.057161
      16A     -1.036625    17A     -0.984945    18A     -0.923600
      19A     -0.872563    20A     -0.836099    21A     -0.822260
      22A     -0.803919    23A     -0.769657    24A     -0.762195
      25A     -0.741513    26A     -0.723585    27A     -0.719185
      28A     -0.711397    29A     -0.691089    30A     -0.676781
      31A     -0.671525    32A     -0.661179    33A     -0.657818
      34A     -0.621886    35A     -0.615001    36A     -0.606080

  @DF-RHF Final Energy:  -367.78354962973100

   => Energetics <=

    Nuclear Repulsion Energy =            525.3243721069636649
    One-Electron Energy =               -1525.5814794238233389
    Two-Electron Energy =                 632.4735576871287321
    Total Energy =                       -367.7835496297309419
  Basis Set: (AUG-CC-PVTZ AUX)
    Blend: AUG-CC-PVTZ-RI
    Molecular point group: c1

    Geometry (in Angstrom), charge = 1, multiplicity = 1:

       Center              X                  Y                   Z               Mass
    ------------   -----------------  -----------------  -----------------  -----------------
         N           -0.491718140588    -0.211142989541     0.062190959382    14.003074004430
         C            0.418876659412    -1.331548989541    -0.416987640618    12.000000000000
         C            0.025591859412     1.172814010459    -0.281527040618    12.000000000000
         C            1.913479859412    -1.040539989541     0.013579959382    12.000000000000
         C            1.446351859412     1.411770010459     0.206834959382    12.000000000000
         C           -1.822284140588    -0.456243989541    -0.636050040618    12.000000000000
         C            2.406519859412     0.359783010459    -0.340628040618    12.000000000000
         C           -0.666547140588    -0.360439989541     1.542887959382    12.000000000000
         C           -2.963413140588     0.451557010459    -0.213791040618    12.000000000000
         H            0.430516859412    -1.193111989541    -1.547776040618     1.007825032230
         H            0.087829859412    -2.229104989541    -0.147747040618     1.007825032230
         H           -0.675553140588     1.892206010459     0.145015959382     1.007825032230
         H           -0.021430140588     1.244670010459    -1.373221040618     1.007825032230
         H            2.525351859412    -1.805127989541    -0.477494040618     1.007825032230
         H            2.007412859412    -1.225130989541     1.088712959382     1.007825032230
         H            1.481137859412     1.439063010459     1.301325959382     1.007825032230
         H            1.733096859412     2.413796010459    -0.130220040618     1.007825032230
         H           -1.617237140588    -0.350570989541    -1.704431040618     1.007825032230
         H           -2.067165140588    -1.503866989541    -0.439358040618     1.007825032230
         H            3.412494859412     0.519299010459     0.057717959382     1.007825032230
         H            2.477513859412     0.460004010459    -1.430954040618     1.007825032230
         H            0.303051859412    -0.339388989541     2.032262959382     1.007825032230
         H           -1.279506140588     0.459229010459     1.913816959382     1.007825032230
         H           -1.157197140588    -1.315581989541     1.736453959382     1.007825032230
         H           -3.834806140588     0.167793010459    -0.810267040618     1.007825032230
         H           -3.238947140588     0.327556010459     0.834339959382     1.007825032230
         H           -2.766691140588     1.505451010459    -0.415820040618     1.007825032230

  Basis Set: AUG-CC-PVTZ
    Blend: AUG-CC-PVTZ
  Basis Set: (AUG-CC-PVTZ AUX)
    Blend: AUG-CC-PVTZ-JKFIT
	 Reference Energy          =    -367.7835496297309987 [Eh]
	 Singles Energy            =      -0.0000000000000000 [Eh]
	 Same-Spin Energy          =      -0.3934539859876843 [Eh]
	 Opposite-Spin Energy      =      -1.4095094085592121 [Eh]
	 Correlation Energy        =      -1.8029633945468966 [Eh]
	 Total Energy              =    -369.5865130242779060 [Eh]

	 ================> DF-SCS-MP2 Energies <==================
	-----------------------------------------------------------
	 SCS Same-Spin Scale       =       0.3333333333333333 [-]
	 SCS Opposite-Spin Scale   =       1.2000000000000000 [-]
	 SCS Same-Spin Energy      =      -0.1311513286625614 [Eh]
	 SCS Opposite-Spin Energy  =      -1.6914112902710545 [Eh]
	 SCS Correlation Energy    =      -1.8225626189336159 [Eh]
	 SCS Total Energy          =    -369.6061122486646013 [Eh]
	-----------------------------------------------------------

  Dipole Moment: [D]
     X:    -1.4897      Y:    -0.5199      Z:     0.2197     Total:     1.5930

*** Psi4 exiting successfully. Buy a developer a beer!
