                               Psi4 1.3.2 release

  ==> Input File <==

--------------------------------------------------------------------------
#psi4
#
memory 32 gb

molecule  {
1 1
  N       -0.4820890    -0.2204400     0.0611380
  C        0.4931350    -1.2664130    -0.4574980
  C        0.0352210     1.1635170    -0.2825800
  C        1.9231090    -1.0498370     0.0125270
  C        1.4559810     1.4024730     0.2057820
  C       -1.8126550    -0.4655410    -0.6371030
  C        2.4161490     0.3504860    -0.3416810
  C       -0.6802528    -0.3896640     1.7394670
  C       -2.9537840     0.4422600    -0.2148440
  H        0.4401460    -1.2024090    -1.5488290
  H        0.0974590    -2.2384020    -0.1488000
  H       -0.6659240     1.8829090     0.1439630
  H       -0.0118010     1.2353730    -1.3742740
  H        2.5349810    -1.8144250    -0.4785470
  H        2.0170420    -1.2344280     1.0876600
  H        1.4907670     1.4297660     1.3002730
  H        1.7427260     2.4044990    -0.1312730
  H       -1.6076080    -0.3598680    -1.7054840
  H       -2.0575360    -1.5131640    -0.4404110
  H        3.4221240     0.5100020     0.0566650
  H        2.4871430     0.4507070    -1.4320070
  H        0.3126810    -0.3486860     2.0312100
  H       -1.2698770     0.4499320     1.9127640
  H       -1.1475680    -1.3248790     1.7354010
  H       -3.8251770     0.1584960    -0.8113200
  H       -3.2293180     0.3182590     0.8332870
  H       -2.7570620     1.4961540    -0.4168730
units angstrom
no_reorient  #important for SAPT in psi4, default
symmetry c1  #important for SAPT in psi4, default
}

set PROPERTIES_ORIGIN ["COM"]
properties('MP2/aug-cc-pvtz', properties = ['dipole'])
--------------------------------------------------------------------------

    Molecular point group: c1
  Charge       = 1
  Multiplicity = 1
  Basis Set: AUG-CC-PVTZ
    Blend: AUG-CC-PVTZ
  Basis Set: (AUG-CC-PVTZ AUX)
    Blend: AUG-CC-PVTZ-JKFIT

    Orbital Energies [Eh]
    ---------------------

    Doubly Occupied:

       1A    -15.830702     2A    -11.447657     3A    -11.436561
       4A    -11.433332     5A    -11.432145     6A    -11.376067
       7A    -11.375768     8A    -11.372641     9A    -11.364329
      10A     -1.452071    11A     -1.244802    12A     -1.193875
      13A     -1.180643    14A     -1.148408    15A     -1.053612
      16A     -1.024214    17A     -0.981631    18A     -0.922249
      19A     -0.858987    20A     -0.834567    21A     -0.807986
      22A     -0.805534    23A     -0.765175    24A     -0.761798
      25A     -0.754871    26A     -0.742660    27A     -0.731184
      28A     -0.702224    29A     -0.682125    30A     -0.676983
      31A     -0.663136    32A     -0.661857    33A     -0.645901
      34A     -0.615113    35A     -0.611339    36A     -0.608763

  @DF-RHF Final Energy:  -367.77257494422321

   => Energetics <=

    Nuclear Repulsion Energy =            521.9783631697887358
    One-Electron Energy =               -1519.1000528867086814
    Two-Electron Energy =                 629.3491147726967938
    Total Energy =                       -367.7725749442231518
  Basis Set: (AUG-CC-PVTZ AUX)
    Blend: AUG-CC-PVTZ-RI
    Molecular point group: c1

    Geometry (in Angstrom), charge = 1, multiplicity = 1:

       Center              X                  Y                   Z               Mass
    ------------   -----------------  -----------------  -----------------  -----------------
         N           -0.495585142489    -0.216247187825     0.047378745645    14.003074004430
         C            0.479638857511    -1.262220187825    -0.471257254355    12.000000000000
         C            0.021724857511     1.167709812175    -0.296339254355    12.000000000000
         C            1.909612857511    -1.045644187825    -0.001232254355    12.000000000000
         C            1.442484857511     1.406665812175     0.192022745645    12.000000000000
         C           -1.826151142489    -0.461348187825    -0.650862254355    12.000000000000
         C            2.402652857511     0.354678812175    -0.355440254355    12.000000000000
         C           -0.693748942489    -0.385471187825     1.725707745645    12.000000000000
         C           -2.967280142489     0.446452812175    -0.228603254355    12.000000000000
         H            0.426649857511    -1.198216187825    -1.562588254355     1.007825032230
         H            0.083962857511    -2.234209187825    -0.162559254355     1.007825032230
         H           -0.679420142489     1.887101812175     0.130203745645     1.007825032230
         H           -0.025297142489     1.239565812175    -1.388033254355     1.007825032230
         H            2.521484857511    -1.810232187825    -0.492306254355     1.007825032230
         H            2.003545857511    -1.230235187825     1.073900745645     1.007825032230
         H            1.477270857511     1.433958812175     1.286513745645     1.007825032230
         H            1.729229857511     2.408691812175    -0.145032254355     1.007825032230
         H           -1.621104142489    -0.355675187825    -1.719243254355     1.007825032230
         H           -2.071032142489    -1.508971187825    -0.454170254355     1.007825032230
         H            3.408627857511     0.514194812175     0.042905745645     1.007825032230
         H            2.473646857511     0.454899812175    -1.445766254355     1.007825032230
         H            0.299184857511    -0.344493187825     2.017450745645     1.007825032230
         H           -1.283373142489     0.454124812175     1.899004745645     1.007825032230
         H           -1.161064142489    -1.320686187825     1.721641745645     1.007825032230
         H           -3.838673142489     0.162688812175    -0.825079254355     1.007825032230
         H           -3.242814142489     0.322451812175     0.819527745645     1.007825032230
         H           -2.770558142489     1.500346812175    -0.430632254355     1.007825032230

  Basis Set: AUG-CC-PVTZ
    Blend: AUG-CC-PVTZ
  Basis Set: (AUG-CC-PVTZ AUX)
    Blend: AUG-CC-PVTZ-JKFIT
	 Reference Energy          =    -367.7725749442232086 [Eh]
	 Singles Energy            =      -0.0000000000000000 [Eh]
	 Same-Spin Energy          =      -0.3932891190539460 [Eh]
	 Opposite-Spin Energy      =      -1.4109118083265324 [Eh]
	 Correlation Energy        =      -1.8042009273804784 [Eh]
	 Total Energy              =    -369.5767758716036724 [Eh]

	 ================> DF-SCS-MP2 Energies <==================
	-----------------------------------------------------------
	 SCS Same-Spin Scale       =       0.3333333333333333 [-]
	 SCS Opposite-Spin Scale   =       1.2000000000000000 [-]
	 SCS Same-Spin Energy      =      -0.1310963730179820 [Eh]
	 SCS Opposite-Spin Energy  =      -1.6930941699918389 [Eh]
	 SCS Correlation Energy    =      -1.8241905430098209 [Eh]
	 SCS Total Energy          =    -369.5967654872330286 [Eh]
	-----------------------------------------------------------

  Dipole Moment: [D]
     X:    -1.5483      Y:    -0.5905      Z:     0.4710     Total:     1.7227

*** Psi4 exiting successfully. Buy a developer a beer!
