                               Psi4 1.3.2 release

  ==> Input File <==

--------------------------------------------------------------------------
#psi4
#
memory 32 gb

molecule  {
1 1
  N       -0.4820890    -0.2204400     0.0611380
  C        0.5052868    -1.3174987    -0.3071770
  C        0.0352210     1.1635170    -0.2825800
  C        1.9231090    -1.0498370     0.0125270
  C        1.4559810     1.4024730     0.2057820
  C       -1.8126550    -0.4655410    -0.6371030
  C        2.4161490     0.3504860    -0.3416810
  C       -0.6569180    -0.3697370     1.5418350
  C       -2.9537840     0.4422600    -0.2148440
  H        0.4401460    -1.2024090    -1.5488290
  H        0.0974590    -2.2384020    -0.1488000
  H       -0.6659240     1.8829090     0.1439630
  H       -0.0118010     1.2353730    -1.3742740
  H        2.5349810    -1.8144250    -0.4785470
  H        2.0170420    -1.2344280     1.0876600
  H        1.4907670     1.4297660     1.3002730
  H        1.7427260     2.4044990    -0.1312730
  H       -1.6076080    -0.3598680    -1.7054840
  H       -2.0575360    -1.5131640    -0.4404110
  H        3.4221240     0.5100020     0.0566650
  H        2.4871430     0.4507070    -1.4320070
  H        0.3126810    -0.3486860     2.0312100
  H       -1.2698770     0.4499320     1.9127640
  H       -1.1475680    -1.3248790     1.7354010
  H       -3.8251770     0.1584960    -0.8113200
  H       -3.2293180     0.3182590     0.8332870
  H       -2.7570620     1.4961540    -0.4168730
units angstrom
no_reorient  #important for SAPT in psi4, default
symmetry c1  #important for SAPT in psi4, default
}

set PROPERTIES_ORIGIN ["COM"]
properties('MP2/aug-cc-pvtz', properties = ['dipole'])
--------------------------------------------------------------------------

    Molecular point group: c1
  Charge       = 1
  Multiplicity = 1
  Basis Set: AUG-CC-PVTZ
    Blend: AUG-CC-PVTZ
  Basis Set: (AUG-CC-PVTZ AUX)
    Blend: AUG-CC-PVTZ-JKFIT

    Orbital Energies [Eh]
    ---------------------

    Doubly Occupied:

       1A    -15.844813     2A    -11.444924     3A    -11.442637
       4A    -11.438933     5A    -11.433887     6A    -11.379079
       7A    -11.378203     8A    -11.375342     9A    -11.369190
      10A     -1.484897    11A     -1.253334    12A     -1.206791
      13A     -1.189784    14A     -1.137394    15A     -1.062126
      16A     -1.033849    17A     -0.989331    18A     -0.922377
      19A     -0.873968    20A     -0.832600    21A     -0.818775
      22A     -0.805962    23A     -0.770703    24A     -0.760164
      25A     -0.746739    26A     -0.728205    27A     -0.719766
      28A     -0.716140    29A     -0.687338    30A     -0.683805
      31A     -0.671642    32A     -0.661650    33A     -0.638913
      34A     -0.627289    35A     -0.615329    36A     -0.603917

  @DF-RHF Final Energy:  -367.76991900999280

   => Energetics <=

    Nuclear Repulsion Energy =            526.3155399577384514
    One-Electron Energy =               -1527.4713229767660323
    Two-Electron Energy =                 633.3858640090347762
    Total Energy =                       -367.7699190099928046
  Basis Set: (AUG-CC-PVTZ AUX)
    Blend: AUG-CC-PVTZ-RI
    Molecular point group: c1

    Geometry (in Angstrom), charge = 1, multiplicity = 1:

       Center              X                  Y                   Z               Mass
    ------------   -----------------  -----------------  -----------------  -----------------
         N           -0.498908274673    -0.213329340559     0.051809170278    14.003074004430
         C            0.488467525327    -1.310388040559    -0.316505829722    12.000000000000
         C            0.018401725327     1.170627659441    -0.291908829722    12.000000000000
         C            1.906289725327    -1.042726340559     0.003198170278    12.000000000000
         C            1.439161725327     1.409583659441     0.196453170278    12.000000000000
         C           -1.829474274673    -0.458430340559    -0.646431829722    12.000000000000
         C            2.399329725327     0.357596659441    -0.351009829722    12.000000000000
         C           -0.673737274673    -0.362626340559     1.532506170278    12.000000000000
         C           -2.970603274673     0.449370659441    -0.224172829722    12.000000000000
         H            0.423326725327    -1.195298340559    -1.558157829722     1.007825032230
         H            0.080639725327    -2.231291340559    -0.158128829722     1.007825032230
         H           -0.682743274673     1.890019659441     0.134634170278     1.007825032230
         H           -0.028620274673     1.242483659441    -1.383602829722     1.007825032230
         H            2.518161725327    -1.807314340559    -0.487875829722     1.007825032230
         H            2.000222725327    -1.227317340559     1.078331170278     1.007825032230
         H            1.473947725327     1.436876659441     1.290944170278     1.007825032230
         H            1.725906725327     2.411609659441    -0.140601829722     1.007825032230
         H           -1.624427274673    -0.352757340559    -1.714812829722     1.007825032230
         H           -2.074355274673    -1.506053340559    -0.449739829722     1.007825032230
         H            3.405304725327     0.517112659441     0.047336170278     1.007825032230
         H            2.470323725327     0.457817659441    -1.441335829722     1.007825032230
         H            0.295861725327    -0.341575340559     2.021881170278     1.007825032230
         H           -1.286696274673     0.457042659441     1.903435170278     1.007825032230
         H           -1.164387274673    -1.317768340559     1.726072170278     1.007825032230
         H           -3.841996274673     0.165606659441    -0.820648829722     1.007825032230
         H           -3.246137274673     0.325369659441     0.823958170278     1.007825032230
         H           -2.773881274673     1.503264659441    -0.426201829722     1.007825032230

  Basis Set: AUG-CC-PVTZ
    Blend: AUG-CC-PVTZ
  Basis Set: (AUG-CC-PVTZ AUX)
    Blend: AUG-CC-PVTZ-JKFIT
	 Reference Energy          =    -367.7699190099928046 [Eh]
	 Singles Energy            =      -0.0000000000000000 [Eh]
	 Same-Spin Energy          =      -0.3948275145671837 [Eh]
	 Opposite-Spin Energy      =      -1.4113935149456978 [Eh]
	 Correlation Energy        =      -1.8062210295128813 [Eh]
	 Total Energy              =    -369.5761400395056739 [Eh]

	 ================> DF-SCS-MP2 Energies <==================
	-----------------------------------------------------------
	 SCS Same-Spin Scale       =       0.3333333333333333 [-]
	 SCS Opposite-Spin Scale   =       1.2000000000000000 [-]
	 SCS Same-Spin Energy      =      -0.1316091715223945 [Eh]
	 SCS Opposite-Spin Energy  =      -1.6936722179348374 [Eh]
	 SCS Correlation Energy    =      -1.8252813894572320 [Eh]
	 SCS Total Energy          =    -369.5952003994500501 [Eh]
	-----------------------------------------------------------

  Dipole Moment: [D]
     X:    -1.4857      Y:    -0.5036      Z:     0.2583     Total:     1.5898

*** Psi4 exiting successfully. Buy a developer a beer!
