                               Psi4 1.3.2 release

  ==> Input File <==

--------------------------------------------------------------------------
#psi4
#
memory 32 gb

molecule  {
1 1
  N       -0.4820890    -0.2204400     0.0611380
  C        0.4983818    -1.2847452    -0.4079421
  C        0.0352210     1.1635170    -0.2825800
  C        1.9231090    -1.0498370     0.0125270
  C        1.4559810     1.4024730     0.2057820
  C       -1.8126550    -0.4655410    -0.6371030
  C        2.4161490     0.3504860    -0.3416810
  C       -0.6569180    -0.3697370     1.5418350
  C       -2.9537840     0.4422600    -0.2148440
  H        0.4401460    -1.2024090    -1.5488290
  H        0.0974590    -2.2384020    -0.1488000
  H       -0.6659240     1.8829090     0.1439630
  H       -0.0118010     1.2353730    -1.3742740
  H        2.5349810    -1.8144250    -0.4785470
  H        2.0170420    -1.2344280     1.0876600
  H        1.4907670     1.4297660     1.3002730
  H        1.7427260     2.4044990    -0.1312730
  H       -1.6076080    -0.3598680    -1.7054840
  H       -2.0575360    -1.5131640    -0.4404110
  H        3.4221240     0.5100020     0.0566650
  H        2.4871430     0.4507070    -1.4320070
  H        0.3126810    -0.3486860     2.0312100
  H       -1.2698770     0.4499320     1.9127640
  H       -1.1475680    -1.3248790     1.7354010
  H       -3.8251770     0.1584960    -0.8113200
  H       -3.2293180     0.3182590     0.8332870
  H       -2.7570620     1.4961540    -0.4168730
units angstrom
no_reorient  #important for SAPT in psi4, default
symmetry c1  #important for SAPT in psi4, default
}

set PROPERTIES_ORIGIN ["COM"]
properties('MP2/aug-cc-pvtz', properties = ['dipole'])
--------------------------------------------------------------------------

    Molecular point group: c1
  Charge       = 1
  Multiplicity = 1
  Basis Set: AUG-CC-PVTZ
    Blend: AUG-CC-PVTZ
  Basis Set: (AUG-CC-PVTZ AUX)
    Blend: AUG-CC-PVTZ-JKFIT

    Orbital Energies [Eh]
    ---------------------

    Doubly Occupied:

       1A    -15.843386     2A    -11.441951     3A    -11.440022
       4A    -11.437839     5A    -11.434075     6A    -11.378209
       7A    -11.377641     8A    -11.374709     9A    -11.367207
      10A     -1.483674    11A     -1.251253    12A     -1.202127
      13A     -1.188955    14A     -1.139698    15A     -1.059365
      16A     -1.030712    17A     -0.987169    18A     -0.923914
      19A     -0.868955    20A     -0.835852    21A     -0.816440
      22A     -0.805661    23A     -0.770965    24A     -0.756196
      25A     -0.744453    26A     -0.723621    27A     -0.719722
      28A     -0.709869    29A     -0.692297    30A     -0.681564
      31A     -0.671607    32A     -0.661348    33A     -0.656674
      34A     -0.619959    35A     -0.615687    36A     -0.613227

  @DF-RHF Final Energy:  -367.79376184175078

   => Energetics <=

    Nuclear Repulsion Energy =            526.1927285786941866
    One-Electron Energy =               -1527.3209669976226905
    Two-Electron Energy =                 633.3344765771777247
    Total Energy =                       -367.7937618417507792
  Basis Set: (AUG-CC-PVTZ AUX)
    Blend: AUG-CC-PVTZ-RI
    Molecular point group: c1

    Geometry (in Angstrom), charge = 1, multiplicity = 1:

       Center              X                  Y                   Z               Mass
    ------------   -----------------  -----------------  -----------------  -----------------
         N           -0.498261657986    -0.216396532400     0.061245288330    14.003074004430
         C            0.482209142014    -1.280701732400    -0.407834811670    12.000000000000
         C            0.019048342014     1.167560467600    -0.282472711670    12.000000000000
         C            1.906936342014    -1.045793532400     0.012634288330    12.000000000000
         C            1.439808342014     1.406516467600     0.205889288330    12.000000000000
         C           -1.828827657986    -0.461497532400    -0.636995711670    12.000000000000
         C            2.399976342014     0.354529467600    -0.341573711670    12.000000000000
         C           -0.673090657986    -0.365693532400     1.541942288330    12.000000000000
         C           -2.969956657986     0.446303467600    -0.214736711670    12.000000000000
         H            0.423973342014    -1.198365532400    -1.548721711670     1.007825032230
         H            0.081286342014    -2.234358532400    -0.148692711670     1.007825032230
         H           -0.682096657986     1.886952467600     0.144070288330     1.007825032230
         H           -0.027973657986     1.239416467600    -1.374166711670     1.007825032230
         H            2.518808342014    -1.810381532400    -0.478439711670     1.007825032230
         H            2.000869342014    -1.230384532400     1.087767288330     1.007825032230
         H            1.474594342014     1.433809467600     1.300380288330     1.007825032230
         H            1.726553342014     2.408542467600    -0.131165711670     1.007825032230
         H           -1.623780657986    -0.355824532400    -1.705376711670     1.007825032230
         H           -2.073708657986    -1.509120532400    -0.440303711670     1.007825032230
         H            3.405951342014     0.514045467600     0.056772288330     1.007825032230
         H            2.470970342014     0.454750467600    -1.431899711670     1.007825032230
         H            0.296508342014    -0.344642532400     2.031317288330     1.007825032230
         H           -1.286049657986     0.453975467600     1.912871288330     1.007825032230
         H           -1.163740657986    -1.320835532400     1.735508288330     1.007825032230
         H           -3.841349657986     0.162539467600    -0.811212711670     1.007825032230
         H           -3.245490657986     0.322302467600     0.833394288330     1.007825032230
         H           -2.773234657986     1.500197467600    -0.416765711670     1.007825032230

  Basis Set: AUG-CC-PVTZ
    Blend: AUG-CC-PVTZ
  Basis Set: (AUG-CC-PVTZ AUX)
    Blend: AUG-CC-PVTZ-JKFIT
	 Reference Energy          =    -367.7937618417507792 [Eh]
	 Singles Energy            =      -0.0000000000000000 [Eh]
	 Same-Spin Energy          =      -0.3939711218374937 [Eh]
	 Opposite-Spin Energy      =      -1.4095790192063939 [Eh]
	 Correlation Energy        =      -1.8035501410438877 [Eh]
	 Total Energy              =    -369.5973119827946789 [Eh]

	 ================> DF-SCS-MP2 Energies <==================
	-----------------------------------------------------------
	 SCS Same-Spin Scale       =       0.3333333333333333 [-]
	 SCS Opposite-Spin Scale   =       1.2000000000000000 [-]
	 SCS Same-Spin Energy      =      -0.1313237072791646 [Eh]
	 SCS Opposite-Spin Energy  =      -1.6914948230476727 [Eh]
	 SCS Correlation Energy    =      -1.8228185303268374 [Eh]
	 SCS Total Energy          =    -369.6165803720776353 [Eh]
	-----------------------------------------------------------

  Dipole Moment: [D]
     X:    -1.4892      Y:    -0.5411      Z:     0.2183     Total:     1.5994

*** Psi4 exiting successfully. Buy a developer a beer!
