                               Psi4 1.3.2 release

  ==> Input File <==

--------------------------------------------------------------------------
#psi4
#
memory 32 gb

molecule  {
1 1
  N       -0.4820890    -0.2204400     0.0611380
  C        0.4931350    -1.2664130    -0.4574980
  C        0.0352210     1.1635170    -0.2825800
  C        1.9231090    -1.0498370     0.0125270
  C        1.4559810     1.4024730     0.2057820
  C       -1.8555857    -0.4822578    -0.5413394
  C        2.4161490     0.3504860    -0.3416810
  C       -0.6569180    -0.3697370     1.5418350
  C       -2.9537840     0.4422600    -0.2148440
  H        0.4401460    -1.2024090    -1.5488290
  H        0.0974590    -2.2384020    -0.1488000
  H       -0.6659240     1.8829090     0.1439630
  H       -0.0118010     1.2353730    -1.3742740
  H        2.5349810    -1.8144250    -0.4785470
  H        2.0170420    -1.2344280     1.0876600
  H        1.4907670     1.4297660     1.3002730
  H        1.7427260     2.4044990    -0.1312730
  H       -1.6076080    -0.3598680    -1.7054840
  H       -2.0575360    -1.5131640    -0.4404110
  H        3.4221240     0.5100020     0.0566650
  H        2.4871430     0.4507070    -1.4320070
  H        0.3126810    -0.3486860     2.0312100
  H       -1.2698770     0.4499320     1.9127640
  H       -1.1475680    -1.3248790     1.7354010
  H       -3.8251770     0.1584960    -0.8113200
  H       -3.2293180     0.3182590     0.8332870
  H       -2.7570620     1.4961540    -0.4168730
units angstrom
no_reorient  #important for SAPT in psi4, default
symmetry c1  #important for SAPT in psi4, default
}

set PROPERTIES_ORIGIN ["COM"]
properties('MP2/aug-cc-pvtz', properties = ['dipole'])
--------------------------------------------------------------------------

    Molecular point group: c1
  Charge       = 1
  Multiplicity = 1
  Basis Set: AUG-CC-PVTZ
    Blend: AUG-CC-PVTZ
  Basis Set: (AUG-CC-PVTZ AUX)
    Blend: AUG-CC-PVTZ-JKFIT

    Orbital Energies [Eh]
    ---------------------

    Doubly Occupied:

       1A    -15.843858     2A    -11.445349     3A    -11.439273
       4A    -11.437982     5A    -11.433825     6A    -11.378751
       7A    -11.378504     8A    -11.373664     9A    -11.366621
      10A     -1.484094    11A     -1.252779    12A     -1.200844
      13A     -1.194196    14A     -1.141490    15A     -1.059718
      16A     -1.030295    17A     -0.984395    18A     -0.925921
      19A     -0.864769    20A     -0.839960    21A     -0.818725
      22A     -0.803320    23A     -0.770074    24A     -0.756463
      25A     -0.745108    26A     -0.724903    27A     -0.720102
      28A     -0.707359    29A     -0.697952    30A     -0.691537
      31A     -0.674248    32A     -0.664489    33A     -0.634659
      34A     -0.617885    35A     -0.616755    36A     -0.613437

  @DF-RHF Final Energy:  -367.78414812774361

   => Energetics <=

    Nuclear Repulsion Energy =            526.3503948666780161
    One-Electron Energy =               -1527.6024790405165277
    Two-Electron Energy =                 633.4679360460949056
    Total Energy =                       -367.7841481277436060
  Basis Set: (AUG-CC-PVTZ AUX)
    Blend: AUG-CC-PVTZ-RI
    Molecular point group: c1

    Geometry (in Angstrom), charge = 1, multiplicity = 1:

       Center              X                  Y                   Z               Mass
    ------------   -----------------  -----------------  -----------------  -----------------
         N           -0.493750090217    -0.216547806056     0.056918181900    14.003074004430
         C            0.481473909783    -1.262520806056    -0.461717818100    12.000000000000
         C            0.023559909783     1.167409193944    -0.286799818100    12.000000000000
         C            1.911447909783    -1.045944806056     0.008307181900    12.000000000000
         C            1.444319909783     1.406365193944     0.201562181900    12.000000000000
         C           -1.867246790217    -0.478365606056    -0.545559218100    12.000000000000
         C            2.404487909783     0.354378193944    -0.345900818100    12.000000000000
         C           -0.668579090217    -0.365844806056     1.537615181900    12.000000000000
         C           -2.965445090217     0.446152193944    -0.219063818100    12.000000000000
         H            0.428484909783    -1.198516806056    -1.553048818100     1.007825032230
         H            0.085797909783    -2.234509806056    -0.153019818100     1.007825032230
         H           -0.677585090217     1.886801193944     0.139743181900     1.007825032230
         H           -0.023462090217     1.239265193944    -1.378493818100     1.007825032230
         H            2.523319909783    -1.810532806056    -0.482766818100     1.007825032230
         H            2.005380909783    -1.230535806056     1.083440181900     1.007825032230
         H            1.479105909783     1.433658193944     1.296053181900     1.007825032230
         H            1.731064909783     2.408391193944    -0.135492818100     1.007825032230
         H           -1.619269090217    -0.355975806056    -1.709703818100     1.007825032230
         H           -2.069197090217    -1.509271806056    -0.444630818100     1.007825032230
         H            3.410462909783     0.513894193944     0.052445181900     1.007825032230
         H            2.475481909783     0.454599193944    -1.436226818100     1.007825032230
         H            0.301019909783    -0.344793806056     2.026990181900     1.007825032230
         H           -1.281538090217     0.453824193944     1.908544181900     1.007825032230
         H           -1.159229090217    -1.320986806056     1.731181181900     1.007825032230
         H           -3.836838090217     0.162388193944    -0.815539818100     1.007825032230
         H           -3.240979090217     0.322151193944     0.829067181900     1.007825032230
         H           -2.768723090217     1.500046193944    -0.421092818100     1.007825032230

  Basis Set: AUG-CC-PVTZ
    Blend: AUG-CC-PVTZ
  Basis Set: (AUG-CC-PVTZ AUX)
    Blend: AUG-CC-PVTZ-JKFIT
	 Reference Energy          =    -367.7841481277436060 [Eh]
	 Singles Energy            =      -0.0000000000000000 [Eh]
	 Same-Spin Energy          =      -0.3945442256040733 [Eh]
	 Opposite-Spin Energy      =      -1.4104465981094003 [Eh]
	 Correlation Energy        =      -1.8049908237134735 [Eh]
	 Total Energy              =    -369.5891389514570733 [Eh]

	 ================> DF-SCS-MP2 Energies <==================
	-----------------------------------------------------------
	 SCS Same-Spin Scale       =       0.3333333333333333 [-]
	 SCS Opposite-Spin Scale   =       1.2000000000000000 [-]
	 SCS Same-Spin Energy      =      -0.1315147418680244 [Eh]
	 SCS Opposite-Spin Energy  =      -1.6925359177312804 [Eh]
	 SCS Correlation Energy    =      -1.8240506595993049 [Eh]
	 SCS Total Energy          =    -369.6081987873429284 [Eh]
	-----------------------------------------------------------

  Dipole Moment: [D]
     X:    -1.4962      Y:    -0.5343      Z:     0.2353     Total:     1.6061

*** Psi4 exiting successfully. Buy a developer a beer!
