                               Psi4 1.3.2 release

  ==> Input File <==

--------------------------------------------------------------------------
#psi4
#
memory 32 gb

molecule  {
1 1
  N       -0.4820890    -0.2204400     0.0611380
  C        0.5530130    -1.1868841    -0.4944286
  C        0.0352210     1.1635170    -0.2825800
  C        1.9231090    -1.0498370     0.0125270
  C        1.4559810     1.4024730     0.2057820
  C       -1.8126550    -0.4655410    -0.6371030
  C        2.4161490     0.3504860    -0.3416810
  C       -0.6569180    -0.3697370     1.5418350
  C       -2.9537840     0.4422600    -0.2148440
  H        0.4401460    -1.2024090    -1.5488290
  H        0.0974590    -2.2384020    -0.1488000
  H       -0.6659240     1.8829090     0.1439630
  H       -0.0118010     1.2353730    -1.3742740
  H        2.5349810    -1.8144250    -0.4785470
  H        2.0170420    -1.2344280     1.0876600
  H        1.4907670     1.4297660     1.3002730
  H        1.7427260     2.4044990    -0.1312730
  H       -1.6076080    -0.3598680    -1.7054840
  H       -2.0575360    -1.5131640    -0.4404110
  H        3.4221240     0.5100020     0.0566650
  H        2.4871430     0.4507070    -1.4320070
  H        0.3126810    -0.3486860     2.0312100
  H       -1.2698770     0.4499320     1.9127640
  H       -1.1475680    -1.3248790     1.7354010
  H       -3.8251770     0.1584960    -0.8113200
  H       -3.2293180     0.3182590     0.8332870
  H       -2.7570620     1.4961540    -0.4168730
units angstrom
no_reorient  #important for SAPT in psi4, default
symmetry c1  #important for SAPT in psi4, default
}

set PROPERTIES_ORIGIN ["COM"]
properties('MP2/aug-cc-pvtz', properties = ['dipole'])
--------------------------------------------------------------------------

    Molecular point group: c1
  Charge       = 1
  Multiplicity = 1
  Basis Set: AUG-CC-PVTZ
    Blend: AUG-CC-PVTZ
  Basis Set: (AUG-CC-PVTZ AUX)
    Blend: AUG-CC-PVTZ-JKFIT

    Orbital Energies [Eh]
    ---------------------

    Doubly Occupied:

       1A    -15.843700     2A    -11.442505     3A    -11.442422
       4A    -11.436570     5A    -11.435141     6A    -11.378316
       7A    -11.376521     8A    -11.375188     9A    -11.365586
      10A     -1.484295    11A     -1.257550    12A     -1.201042
      13A     -1.189766    14A     -1.142873    15A     -1.059616
      16A     -1.025195    17A     -0.987834    18A     -0.930314
      19A     -0.866673    20A     -0.840183    21A     -0.817850
      22A     -0.800839    23A     -0.773313    24A     -0.753468
      25A     -0.742639    26A     -0.722953    27A     -0.720247
      28A     -0.706856    29A     -0.694254    30A     -0.684365
      31A     -0.671838    32A     -0.666621    33A     -0.660968
      34A     -0.621862    35A     -0.615323    36A     -0.600670

  @DF-RHF Final Energy:  -367.78376118595327

   => Energetics <=

    Nuclear Repulsion Energy =            526.9960182425039648
    One-Electron Energy =               -1528.8888447622412059
    Two-Electron Energy =                 634.1090653337839740
    Total Energy =                       -367.7837611859532672
  Basis Set: (AUG-CC-PVTZ AUX)
    Blend: AUG-CC-PVTZ-RI
    Molecular point group: c1

    Geometry (in Angstrom), charge = 1, multiplicity = 1:

       Center              X                  Y                   Z               Mass
    ------------   -----------------  -----------------  -----------------  -----------------
         N           -0.503377580587    -0.225560706229     0.069344291098    14.003074004430
         C            0.531724419413    -1.192004806229    -0.486222308902    12.000000000000
         C            0.013932419413     1.158396293771    -0.274373708902    12.000000000000
         C            1.901820419413    -1.054957706229     0.020733291098    12.000000000000
         C            1.434692419413     1.397352293771     0.213988291098    12.000000000000
         C           -1.833943580587    -0.470661706229    -0.628896708902    12.000000000000
         C            2.394860419413     0.345365293771    -0.333474708902    12.000000000000
         C           -0.678206580587    -0.374857706229     1.550041291098    12.000000000000
         C           -2.975072580587     0.437139293771    -0.206637708902    12.000000000000
         H            0.418857419413    -1.207529706229    -1.540622708902     1.007825032230
         H            0.076170419413    -2.243522706229    -0.140593708902     1.007825032230
         H           -0.687212580587     1.877788293771     0.152169291098     1.007825032230
         H           -0.033089580587     1.230252293771    -1.366067708902     1.007825032230
         H            2.513692419413    -1.819545706229    -0.470340708902     1.007825032230
         H            1.995753419413    -1.239548706229     1.095866291098     1.007825032230
         H            1.469478419413     1.424645293771     1.308479291098     1.007825032230
         H            1.721437419413     2.399378293771    -0.123066708902     1.007825032230
         H           -1.628896580587    -0.364988706229    -1.697277708902     1.007825032230
         H           -2.078824580587    -1.518284706229    -0.432204708902     1.007825032230
         H            3.400835419413     0.504881293771     0.064871291098     1.007825032230
         H            2.465854419413     0.445586293771    -1.423800708902     1.007825032230
         H            0.291392419413    -0.353806706229     2.039416291098     1.007825032230
         H           -1.291165580587     0.444811293771     1.920970291098     1.007825032230
         H           -1.168856580587    -1.329999706229     1.743607291098     1.007825032230
         H           -3.846465580587     0.153375293771    -0.803113708902     1.007825032230
         H           -3.250606580587     0.313138293771     0.841493291098     1.007825032230
         H           -2.778350580587     1.491033293771    -0.408666708902     1.007825032230

  Basis Set: AUG-CC-PVTZ
    Blend: AUG-CC-PVTZ
  Basis Set: (AUG-CC-PVTZ AUX)
    Blend: AUG-CC-PVTZ-JKFIT
	 Reference Energy          =    -367.7837611859532672 [Eh]
	 Singles Energy            =      -0.0000000000000000 [Eh]
	 Same-Spin Energy          =      -0.3947496685151114 [Eh]
	 Opposite-Spin Energy      =      -1.4105948896265001 [Eh]
	 Correlation Energy        =      -1.8053445581416114 [Eh]
	 Total Energy              =    -369.5891057440948657 [Eh]

	 ================> DF-SCS-MP2 Energies <==================
	-----------------------------------------------------------
	 SCS Same-Spin Scale       =       0.3333333333333333 [-]
	 SCS Opposite-Spin Scale   =       1.2000000000000000 [-]
	 SCS Same-Spin Energy      =      -0.1315832228383705 [Eh]
	 SCS Opposite-Spin Energy  =      -1.6927138675518001 [Eh]
	 SCS Correlation Energy    =      -1.8242970903901705 [Eh]
	 SCS Total Energy          =    -369.6080582763434563 [Eh]
	-----------------------------------------------------------

  Dipole Moment: [D]
     X:    -1.4735      Y:    -0.5281      Z:     0.2147     Total:     1.5799

*** Psi4 exiting successfully. Buy a developer a beer!
