                               Psi4 1.3.2 release

  ==> Input File <==

--------------------------------------------------------------------------
#psi4
#
memory 32 gb

molecule  {
1 1
  N       -0.3789471    -0.2148967     0.0775690
  C        0.4931350    -1.2664130    -0.4574980
  C        0.0352210     1.1635170    -0.2825800
  C        1.9231090    -1.0498370     0.0125270
  C        1.4559810     1.4024730     0.2057820
  C       -1.8126550    -0.4655410    -0.6371030
  C        2.4161490     0.3504860    -0.3416810
  C       -0.6569180    -0.3697370     1.5418350
  C       -2.9537840     0.4422600    -0.2148440
  H        0.4401460    -1.2024090    -1.5488290
  H        0.0974590    -2.2384020    -0.1488000
  H       -0.6659240     1.8829090     0.1439630
  H       -0.0118010     1.2353730    -1.3742740
  H        2.5349810    -1.8144250    -0.4785470
  H        2.0170420    -1.2344280     1.0876600
  H        1.4907670     1.4297660     1.3002730
  H        1.7427260     2.4044990    -0.1312730
  H       -1.6076080    -0.3598680    -1.7054840
  H       -2.0575360    -1.5131640    -0.4404110
  H        3.4221240     0.5100020     0.0566650
  H        2.4871430     0.4507070    -1.4320070
  H        0.3126810    -0.3486860     2.0312100
  H       -1.2698770     0.4499320     1.9127640
  H       -1.1475680    -1.3248790     1.7354010
  H       -3.8251770     0.1584960    -0.8113200
  H       -3.2293180     0.3182590     0.8332870
  H       -2.7570620     1.4961540    -0.4168730
units angstrom
no_reorient  #important for SAPT in psi4, default
symmetry c1  #important for SAPT in psi4, default
}

set PROPERTIES_ORIGIN ["COM"]
properties('MP2/aug-cc-pvtz', properties = ['dipole'])
--------------------------------------------------------------------------

    Molecular point group: c1
  Charge       = 1
  Multiplicity = 1
  Basis Set: AUG-CC-PVTZ
    Blend: AUG-CC-PVTZ
  Basis Set: (AUG-CC-PVTZ AUX)
    Blend: AUG-CC-PVTZ-JKFIT

    Orbital Energies [Eh]
    ---------------------

    Doubly Occupied:

       1A    -15.841572     2A    -11.450051     3A    -11.434966
       4A    -11.434820     5A    -11.433869     6A    -11.378219
       7A    -11.374049     8A    -11.373848     9A    -11.364455
      10A     -1.485426    11A     -1.244898    12A     -1.205306
      13A     -1.189375    14A     -1.143637    15A     -1.048648
      16A     -1.028947    17A     -0.991536    18A     -0.925330
      19A     -0.866632    20A     -0.838825    21A     -0.815177
      22A     -0.803537    23A     -0.772960    24A     -0.751796
      25A     -0.743692    26A     -0.729379    27A     -0.717254
      28A     -0.707481    29A     -0.699558    30A     -0.681754
      31A     -0.667018    32A     -0.665403    33A     -0.663670
      34A     -0.614841    35A     -0.612867    36A     -0.601431

  @DF-RHF Final Energy:  -367.78699730456071

   => Energetics <=

    Nuclear Repulsion Energy =            526.6678007722343864
    One-Electron Energy =               -1528.3051444584409637
    Two-Electron Energy =                 633.8503463816458634
    Total Energy =                       -367.7869973045607139
  Basis Set: (AUG-CC-PVTZ AUX)
    Blend: AUG-CC-PVTZ-RI
    Molecular point group: c1

    Geometry (in Angstrom), charge = 1, multiplicity = 1:

       Center              X                  Y                   Z               Mass
    ------------   -----------------  -----------------  -----------------  -----------------
         N           -0.405899372105    -0.213175696310     0.080521419632    14.003074004430
         C            0.466182727895    -1.264691996310    -0.454545580368    12.000000000000
         C            0.008268727895     1.165238003690    -0.279627580368    12.000000000000
         C            1.896156727895    -1.048115996310     0.015479419632    12.000000000000
         C            1.429028727895     1.404194003690     0.208734419632    12.000000000000
         C           -1.839607272105    -0.463819996310    -0.634150580368    12.000000000000
         C            2.389196727895     0.352207003690    -0.338728580368    12.000000000000
         C           -0.683870272105    -0.368015996310     1.544787419632    12.000000000000
         C           -2.980736272105     0.443981003690    -0.211891580368    12.000000000000
         H            0.413193727895    -1.200687996310    -1.545876580368     1.007825032230
         H            0.070506727895    -2.236680996310    -0.145847580368     1.007825032230
         H           -0.692876272105     1.884630003690     0.146915419632     1.007825032230
         H           -0.038753272105     1.237094003690    -1.371321580368     1.007825032230
         H            2.508028727895    -1.812703996310    -0.475594580368     1.007825032230
         H            1.990089727895    -1.232706996310     1.090612419632     1.007825032230
         H            1.463814727895     1.431487003690     1.303225419632     1.007825032230
         H            1.715773727895     2.406220003690    -0.128320580368     1.007825032230
         H           -1.634560272105    -0.358146996310    -1.702531580368     1.007825032230
         H           -2.084488272105    -1.511442996310    -0.437458580368     1.007825032230
         H            3.395171727895     0.511723003690     0.059617419632     1.007825032230
         H            2.460190727895     0.452428003690    -1.429054580368     1.007825032230
         H            0.285728727895    -0.346964996310     2.034162419632     1.007825032230
         H           -1.296829272105     0.451653003690     1.915716419632     1.007825032230
         H           -1.174520272105    -1.323157996310     1.738353419632     1.007825032230
         H           -3.852129272105     0.160217003690    -0.808367580368     1.007825032230
         H           -3.256270272105     0.319980003690     0.836239419632     1.007825032230
         H           -2.784014272105     1.497875003690    -0.413920580368     1.007825032230

  Basis Set: AUG-CC-PVTZ
    Blend: AUG-CC-PVTZ
  Basis Set: (AUG-CC-PVTZ AUX)
    Blend: AUG-CC-PVTZ-JKFIT
	 Reference Energy          =    -367.7869973045607139 [Eh]
	 Singles Energy            =      -0.0000000000000000 [Eh]
	 Same-Spin Energy          =      -0.3943877403172785 [Eh]
	 Opposite-Spin Energy      =      -1.4104494812435708 [Eh]
	 Correlation Energy        =      -1.8048372215608492 [Eh]
	 Total Energy              =    -369.5918345261215450 [Eh]

	 ================> DF-SCS-MP2 Energies <==================
	-----------------------------------------------------------
	 SCS Same-Spin Scale       =       0.3333333333333333 [-]
	 SCS Opposite-Spin Scale   =       1.2000000000000000 [-]
	 SCS Same-Spin Energy      =      -0.1314625801057595 [Eh]
	 SCS Opposite-Spin Energy  =      -1.6925393774922850 [Eh]
	 SCS Correlation Energy    =      -1.8240019575980444 [Eh]
	 SCS Total Energy          =    -369.6109992621587708 [Eh]
	-----------------------------------------------------------

  Dipole Moment: [D]
     X:    -1.7892      Y:    -0.5582      Z:     0.1771     Total:     1.8826

*** Psi4 exiting successfully. Buy a developer a beer!
