                               Psi4 1.3.2 release

  ==> Input File <==

--------------------------------------------------------------------------
#psi4
#
memory 32 gb

molecule  {
1 1
  N       -0.4820890    -0.2204400     0.0611380
  C        0.4290269    -1.1976541    -0.4234045
  C        0.0352210     1.1635170    -0.2825800
  C        1.9231090    -1.0498370     0.0125270
  C        1.4559810     1.4024730     0.2057820
  C       -1.8126550    -0.4655410    -0.6371030
  C        2.4161490     0.3504860    -0.3416810
  C       -0.6569180    -0.3697370     1.5418350
  C       -2.9537840     0.4422600    -0.2148440
  H        0.4401460    -1.2024090    -1.5488290
  H        0.0974590    -2.2384020    -0.1488000
  H       -0.6659240     1.8829090     0.1439630
  H       -0.0118010     1.2353730    -1.3742740
  H        2.5349810    -1.8144250    -0.4785470
  H        2.0170420    -1.2344280     1.0876600
  H        1.4907670     1.4297660     1.3002730
  H        1.7427260     2.4044990    -0.1312730
  H       -1.6076080    -0.3598680    -1.7054840
  H       -2.0575360    -1.5131640    -0.4404110
  H        3.4221240     0.5100020     0.0566650
  H        2.4871430     0.4507070    -1.4320070
  H        0.3126810    -0.3486860     2.0312100
  H       -1.2698770     0.4499320     1.9127640
  H       -1.1475680    -1.3248790     1.7354010
  H       -3.8251770     0.1584960    -0.8113200
  H       -3.2293180     0.3182590     0.8332870
  H       -2.7570620     1.4961540    -0.4168730
units angstrom
no_reorient  #important for SAPT in psi4, default
symmetry c1  #important for SAPT in psi4, default
}

set PROPERTIES_ORIGIN ["COM"]
properties('MP2/aug-cc-pvtz', properties = ['dipole'])
--------------------------------------------------------------------------

    Molecular point group: c1
  Charge       = 1
  Multiplicity = 1
  Basis Set: AUG-CC-PVTZ
    Blend: AUG-CC-PVTZ
  Basis Set: (AUG-CC-PVTZ AUX)
    Blend: AUG-CC-PVTZ-JKFIT

    Orbital Energies [Eh]
    ---------------------

    Doubly Occupied:

       1A    -15.847949     2A    -11.444103     3A    -11.440281
       4A    -11.437672     5A    -11.435235     6A    -11.378773
       7A    -11.378505     8A    -11.376145     9A    -11.364339
      10A     -1.505767    11A     -1.248763    12A     -1.201158
      13A     -1.188972    14A     -1.148495    15A     -1.057656
      16A     -1.031424    17A     -0.992135    18A     -0.924545
      19A     -0.872590    20A     -0.843860    21A     -0.821870
      22A     -0.801764    23A     -0.772901    24A     -0.753439
      25A     -0.742181    26A     -0.726690    27A     -0.721492
      28A     -0.707082    29A     -0.692838    30A     -0.681154
      31A     -0.674187    32A     -0.663501    33A     -0.658270
      34A     -0.617114    35A     -0.613943    36A     -0.603530

  @DF-RHF Final Energy:  -367.78863558360314

   => Energetics <=

    Nuclear Repulsion Energy =            527.8208614573794648
    One-Electron Energy =               -1530.4783500142209505
    Two-Electron Energy =                 634.8688529732384040
    Total Energy =                       -367.7886355836030816
  Basis Set: (AUG-CC-PVTZ AUX)
    Blend: AUG-CC-PVTZ-RI
    Molecular point group: c1

    Geometry (in Angstrom), charge = 1, multiplicity = 1:

       Center              X                  Y                   Z               Mass
    ------------   -----------------  -----------------  -----------------  -----------------
         N           -0.491766938844    -0.224552152757     0.062693260214    14.003074004430
         C            0.419348961156    -1.201766252757    -0.421849239786    12.000000000000
         C            0.025543061156     1.159404847243    -0.281024739786    12.000000000000
         C            1.913431061156    -1.053949152757     0.014082260214    12.000000000000
         C            1.446303061156     1.398360847243     0.207337260214    12.000000000000
         C           -1.822332938844    -0.469653152757    -0.635547739786    12.000000000000
         C            2.406471061156     0.346373847243    -0.340125739786    12.000000000000
         C           -0.666595938844    -0.373849152757     1.543390260214    12.000000000000
         C           -2.963461938844     0.438147847243    -0.213288739786    12.000000000000
         H            0.430468061156    -1.206521152757    -1.547273739786     1.007825032230
         H            0.087781061156    -2.242514152757    -0.147244739786     1.007825032230
         H           -0.675601938844     1.878796847243     0.145518260214     1.007825032230
         H           -0.021478938844     1.231260847243    -1.372718739786     1.007825032230
         H            2.525303061156    -1.818537152757    -0.476991739786     1.007825032230
         H            2.007364061156    -1.238540152757     1.089215260214     1.007825032230
         H            1.481089061156     1.425653847243     1.301828260214     1.007825032230
         H            1.733048061156     2.400386847243    -0.129717739786     1.007825032230
         H           -1.617285938844    -0.363980152757    -1.703928739786     1.007825032230
         H           -2.067213938844    -1.517276152757    -0.438855739786     1.007825032230
         H            3.412446061156     0.505889847243     0.058220260214     1.007825032230
         H            2.477465061156     0.446594847243    -1.430451739786     1.007825032230
         H            0.303003061156    -0.352798152757     2.032765260214     1.007825032230
         H           -1.279554938844     0.445819847243     1.914319260214     1.007825032230
         H           -1.157245938844    -1.328991152757     1.736956260214     1.007825032230
         H           -3.834854938844     0.154383847243    -0.809764739786     1.007825032230
         H           -3.238995938844     0.314146847243     0.834842260214     1.007825032230
         H           -2.766739938844     1.492041847243    -0.415317739786     1.007825032230

  Basis Set: AUG-CC-PVTZ
    Blend: AUG-CC-PVTZ
  Basis Set: (AUG-CC-PVTZ AUX)
    Blend: AUG-CC-PVTZ-JKFIT
	 Reference Energy          =    -367.7886355836031385 [Eh]
	 Singles Energy            =      -0.0000000000000000 [Eh]
	 Same-Spin Energy          =      -0.3944289046484710 [Eh]
	 Opposite-Spin Energy      =      -1.4096116925112816 [Eh]
	 Correlation Energy        =      -1.8040405971597526 [Eh]
	 Total Energy              =    -369.5926761807629077 [Eh]

	 ================> DF-SCS-MP2 Energies <==================
	-----------------------------------------------------------
	 SCS Same-Spin Scale       =       0.3333333333333333 [-]
	 SCS Opposite-Spin Scale   =       1.2000000000000000 [-]
	 SCS Same-Spin Energy      =      -0.1314763015494903 [Eh]
	 SCS Opposite-Spin Energy  =      -1.6915340310135378 [Eh]
	 SCS Correlation Energy    =      -1.8230103325630282 [Eh]
	 SCS Total Energy          =    -369.6116459161661396 [Eh]
	-----------------------------------------------------------

  Dipole Moment: [D]
     X:    -1.6266      Y:    -0.4457      Z:     0.2664     Total:     1.7075

*** Psi4 exiting successfully. Buy a developer a beer!
