                               Psi4 1.3.2 release

  ==> Input File <==

--------------------------------------------------------------------------
#psi4
#
memory 32 gb

molecule  {
1 1
  N       -0.5040244    -0.1961915    -0.0398815
  C        0.4931350    -1.2664130    -0.4574980
  C        0.0352210     1.1635170    -0.2825800
  C        1.9231090    -1.0498370     0.0125270
  C        1.4559810     1.4024730     0.2057820
  C       -1.8126550    -0.4655410    -0.6371030
  C        2.4161490     0.3504860    -0.3416810
  C       -0.6569180    -0.3697370     1.5418350
  C       -2.9537840     0.4422600    -0.2148440
  H        0.4401460    -1.2024090    -1.5488290
  H        0.0974590    -2.2384020    -0.1488000
  H       -0.6659240     1.8829090     0.1439630
  H       -0.0118010     1.2353730    -1.3742740
  H        2.5349810    -1.8144250    -0.4785470
  H        2.0170420    -1.2344280     1.0876600
  H        1.4907670     1.4297660     1.3002730
  H        1.7427260     2.4044990    -0.1312730
  H       -1.6076080    -0.3598680    -1.7054840
  H       -2.0575360    -1.5131640    -0.4404110
  H        3.4221240     0.5100020     0.0566650
  H        2.4871430     0.4507070    -1.4320070
  H        0.3126810    -0.3486860     2.0312100
  H       -1.2698770     0.4499320     1.9127640
  H       -1.1475680    -1.3248790     1.7354010
  H       -3.8251770     0.1584960    -0.8113200
  H       -3.2293180     0.3182590     0.8332870
  H       -2.7570620     1.4961540    -0.4168730
units angstrom
no_reorient  #important for SAPT in psi4, default
symmetry c1  #important for SAPT in psi4, default
}

set PROPERTIES_ORIGIN ["COM"]
properties('MP2/aug-cc-pvtz', properties = ['dipole'])
--------------------------------------------------------------------------

    Molecular point group: c1
  Charge       = 1
  Multiplicity = 1
  Basis Set: AUG-CC-PVTZ
    Blend: AUG-CC-PVTZ
  Basis Set: (AUG-CC-PVTZ AUX)
    Blend: AUG-CC-PVTZ-JKFIT

    Orbital Energies [Eh]
    ---------------------

    Doubly Occupied:

       1A    -15.844009     2A    -11.442170     3A    -11.439189
       4A    -11.436834     5A    -11.434973     6A    -11.379859
       7A    -11.379409     8A    -11.373672     9A    -11.366967
      10A     -1.485833    11A     -1.252880    12A     -1.201811
      13A     -1.183805    14A     -1.137465    15A     -1.065375
      16A     -1.035234    17A     -0.985356    18A     -0.925546
      19A     -0.865955    20A     -0.837050    21A     -0.817410
      22A     -0.803211    23A     -0.767498    24A     -0.756631
      25A     -0.745922    26A     -0.732194    27A     -0.723357
      28A     -0.706585    29A     -0.685958    30A     -0.683681
      31A     -0.668796    32A     -0.662748    33A     -0.650920
      34A     -0.620686    35A     -0.616752    36A     -0.613485

  @DF-RHF Final Energy:  -367.78582499264661

   => Energetics <=

    Nuclear Repulsion Energy =            526.1016139552664299
    One-Electron Energy =               -1527.1164262919946850
    Two-Electron Energy =                 633.2289873440817018
    Total Energy =                       -367.7858249926465533
  Basis Set: (AUG-CC-PVTZ AUX)
    Blend: AUG-CC-PVTZ-RI
    Molecular point group: c1

    Geometry (in Angstrom), charge = 1, multiplicity = 1:

       Center              X                  Y                   Z               Mass
    ------------   -----------------  -----------------  -----------------  -----------------
         N           -0.517308707011    -0.196514528446    -0.024094542572    14.003074004430
         C            0.479850692989    -1.266736028446    -0.441711042572    12.000000000000
         C            0.021936692989     1.163193971554    -0.266793042572    12.000000000000
         C            1.909824692989    -1.050160028446     0.028313957428    12.000000000000
         C            1.442696692989     1.402149971554     0.221568957428    12.000000000000
         C           -1.825939307011    -0.465864028446    -0.621316042572    12.000000000000
         C            2.402864692989     0.350162971554    -0.325894042572    12.000000000000
         C           -0.670202307011    -0.370060028446     1.557621957428    12.000000000000
         C           -2.967068307011     0.441936971554    -0.199057042572    12.000000000000
         H            0.426861692989    -1.202732028446    -1.533042042572     1.007825032230
         H            0.084174692989    -2.238725028446    -0.133013042572     1.007825032230
         H           -0.679208307011     1.882585971554     0.159749957428     1.007825032230
         H           -0.025085307011     1.235049971554    -1.358487042572     1.007825032230
         H            2.521696692989    -1.814748028446    -0.462760042572     1.007825032230
         H            2.003757692989    -1.234751028446     1.103446957428     1.007825032230
         H            1.477482692989     1.429442971554     1.316059957428     1.007825032230
         H            1.729441692989     2.404175971554    -0.115486042572     1.007825032230
         H           -1.620892307011    -0.360191028446    -1.689697042572     1.007825032230
         H           -2.070820307011    -1.513487028446    -0.424624042572     1.007825032230
         H            3.408839692989     0.509678971554     0.072451957428     1.007825032230
         H            2.473858692989     0.450383971554    -1.416220042572     1.007825032230
         H            0.299396692989    -0.349009028446     2.046996957428     1.007825032230
         H           -1.283161307011     0.449608971554     1.928550957428     1.007825032230
         H           -1.160852307011    -1.325202028446     1.751187957428     1.007825032230
         H           -3.838461307011     0.158172971554    -0.795533042572     1.007825032230
         H           -3.242602307011     0.317935971554     0.849073957428     1.007825032230
         H           -2.770346307011     1.495830971554    -0.401086042572     1.007825032230

  Basis Set: AUG-CC-PVTZ
    Blend: AUG-CC-PVTZ
  Basis Set: (AUG-CC-PVTZ AUX)
    Blend: AUG-CC-PVTZ-JKFIT
	 Reference Energy          =    -367.7858249926466101 [Eh]
	 Singles Energy            =      -0.0000000000000000 [Eh]
	 Same-Spin Energy          =      -0.3942386200233071 [Eh]
	 Opposite-Spin Energy      =      -1.4103529962070338 [Eh]
	 Correlation Energy        =      -1.8045916162303408 [Eh]
	 Total Energy              =    -369.5904166088769784 [Eh]

	 ================> DF-SCS-MP2 Energies <==================
	-----------------------------------------------------------
	 SCS Same-Spin Scale       =       0.3333333333333333 [-]
	 SCS Opposite-Spin Scale   =       1.2000000000000000 [-]
	 SCS Same-Spin Energy      =      -0.1314128733411024 [Eh]
	 SCS Opposite-Spin Energy  =      -1.6924235954484406 [Eh]
	 SCS Correlation Energy    =      -1.8238364687895430 [Eh]
	 SCS Total Energy          =    -369.6096614614361329 [Eh]
	-----------------------------------------------------------

  Dipole Moment: [D]
     X:    -1.4125      Y:    -0.5967      Z:     0.4075     Total:     1.5866

*** Psi4 exiting successfully. Buy a developer a beer!
