                               Psi4 1.3.2 release

  ==> Input File <==

--------------------------------------------------------------------------
#psi4
#
memory 32 gb

molecule  {
1 1
  N       -0.5048995    -0.1812275     0.0888186
  C        0.4931350    -1.2664130    -0.4574980
  C        0.0352210     1.1635170    -0.2825800
  C        1.9231090    -1.0498370     0.0125270
  C        1.4559810     1.4024730     0.2057820
  C       -1.8126550    -0.4655410    -0.6371030
  C        2.4161490     0.3504860    -0.3416810
  C       -0.6569180    -0.3697370     1.5418350
  C       -2.9537840     0.4422600    -0.2148440
  H        0.4401460    -1.2024090    -1.5488290
  H        0.0974590    -2.2384020    -0.1488000
  H       -0.6659240     1.8829090     0.1439630
  H       -0.0118010     1.2353730    -1.3742740
  H        2.5349810    -1.8144250    -0.4785470
  H        2.0170420    -1.2344280     1.0876600
  H        1.4907670     1.4297660     1.3002730
  H        1.7427260     2.4044990    -0.1312730
  H       -1.6076080    -0.3598680    -1.7054840
  H       -2.0575360    -1.5131640    -0.4404110
  H        3.4221240     0.5100020     0.0566650
  H        2.4871430     0.4507070    -1.4320070
  H        0.3126810    -0.3486860     2.0312100
  H       -1.2698770     0.4499320     1.9127640
  H       -1.1475680    -1.3248790     1.7354010
  H       -3.8251770     0.1584960    -0.8113200
  H       -3.2293180     0.3182590     0.8332870
  H       -2.7570620     1.4961540    -0.4168730
units angstrom
no_reorient  #important for SAPT in psi4, default
symmetry c1  #important for SAPT in psi4, default
}

set PROPERTIES_ORIGIN ["COM"]
properties('MP2/aug-cc-pvtz', properties = ['dipole'])
--------------------------------------------------------------------------

    Molecular point group: c1
  Charge       = 1
  Multiplicity = 1
  Basis Set: AUG-CC-PVTZ
    Blend: AUG-CC-PVTZ
  Basis Set: (AUG-CC-PVTZ AUX)
    Blend: AUG-CC-PVTZ-JKFIT

    Orbital Energies [Eh]
    ---------------------

    Doubly Occupied:

       1A    -15.842189     2A    -11.442891     3A    -11.441757
       4A    -11.435616     5A    -11.432384     6A    -11.378914
       7A    -11.377771     8A    -11.372749     9A    -11.366550
      10A     -1.483401    11A     -1.250950    12A     -1.198452
      13A     -1.190756    14A     -1.141192    15A     -1.057111
      16A     -1.030480    17A     -0.982955    18A     -0.926359
      19A     -0.868049    20A     -0.838315    21A     -0.819430
      22A     -0.804076    23A     -0.771380    24A     -0.753425
      25A     -0.744057    26A     -0.721927    27A     -0.720788
      28A     -0.705458    29A     -0.699242    30A     -0.676499
      31A     -0.671112    32A     -0.664762    33A     -0.661032
      34A     -0.618200    35A     -0.616976    36A     -0.608571

  @DF-RHF Final Energy:  -367.79450873860264

   => Energetics <=

    Nuclear Repulsion Energy =            526.0780187576311846
    One-Electron Energy =               -1527.1135007011607740
    Two-Electron Energy =                 633.2409732049269451
    Total Energy =                       -367.7945087386026444
  Basis Set: (AUG-CC-PVTZ AUX)
    Blend: AUG-CC-PVTZ-RI
    Molecular point group: c1

    Geometry (in Angstrom), charge = 1, multiplicity = 1:

       Center              X                  Y                   Z               Mass
    ------------   -----------------  -----------------  -----------------  -----------------
         N           -0.518088179457    -0.183185736671     0.090541706718    14.003074004430
         C            0.479946320543    -1.268371236671    -0.455774893282    12.000000000000
         C            0.022032320543     1.161558763329    -0.280856893282    12.000000000000
         C            1.909920320543    -1.051795236671     0.014250106718    12.000000000000
         C            1.442792320543     1.400514763329     0.207505106718    12.000000000000
         C           -1.825843679457    -0.467499236671    -0.635379893282    12.000000000000
         C            2.402960320543     0.348527763329    -0.339957893282    12.000000000000
         C           -0.670106679457    -0.371695236671     1.543558106718    12.000000000000
         C           -2.966972679457     0.440301763329    -0.213120893282    12.000000000000
         H            0.426957320543    -1.204367236671    -1.547105893282     1.007825032230
         H            0.084270320543    -2.240360236671    -0.147076893282     1.007825032230
         H           -0.679112679457     1.880950763329     0.145686106718     1.007825032230
         H           -0.024989679457     1.233414763329    -1.372550893282     1.007825032230
         H            2.521792320543    -1.816383236671    -0.476823893282     1.007825032230
         H            2.003853320543    -1.236386236671     1.089383106718     1.007825032230
         H            1.477578320543     1.427807763329     1.301996106718     1.007825032230
         H            1.729537320543     2.402540763329    -0.129549893282     1.007825032230
         H           -1.620796679457    -0.361826236671    -1.703760893282     1.007825032230
         H           -2.070724679457    -1.515122236671    -0.438687893282     1.007825032230
         H            3.408935320543     0.508043763329     0.058388106718     1.007825032230
         H            2.473954320543     0.448748763329    -1.430283893282     1.007825032230
         H            0.299492320543    -0.350644236671     2.032933106718     1.007825032230
         H           -1.283065679457     0.447973763329     1.914487106718     1.007825032230
         H           -1.160756679457    -1.326837236671     1.737124106718     1.007825032230
         H           -3.838365679457     0.156537763329    -0.809596893282     1.007825032230
         H           -3.242506679457     0.316300763329     0.835010106718     1.007825032230
         H           -2.770250679457     1.494195763329    -0.415149893282     1.007825032230

  Basis Set: AUG-CC-PVTZ
    Blend: AUG-CC-PVTZ
  Basis Set: (AUG-CC-PVTZ AUX)
    Blend: AUG-CC-PVTZ-JKFIT
	 Reference Energy          =    -367.7945087386026444 [Eh]
	 Singles Energy            =      -0.0000000000000000 [Eh]
	 Same-Spin Energy          =      -0.3938863997038774 [Eh]
	 Opposite-Spin Energy      =      -1.4094727300853518 [Eh]
	 Correlation Energy        =      -1.8033591297892291 [Eh]
	 Total Energy              =    -369.5978678683918588 [Eh]

	 ================> DF-SCS-MP2 Energies <==================
	-----------------------------------------------------------
	 SCS Same-Spin Scale       =       0.3333333333333333 [-]
	 SCS Opposite-Spin Scale   =       1.2000000000000000 [-]
	 SCS Same-Spin Energy      =      -0.1312954665679591 [Eh]
	 SCS Opposite-Spin Energy  =      -1.6913672761024221 [Eh]
	 SCS Correlation Energy    =      -1.8226627426703812 [Eh]
	 SCS Total Energy          =    -369.6171714812730329 [Eh]
	-----------------------------------------------------------

  Dipole Moment: [D]
     X:    -1.4273      Y:    -0.6438      Z:     0.1531     Total:     1.5732

*** Psi4 exiting successfully. Buy a developer a beer!
