                               Psi4 1.3.2 release

  ==> Input File <==

--------------------------------------------------------------------------
#psi4
#
memory 32 gb

molecule  {
1 1
  N       -0.4820890    -0.2204400     0.0611380
  C        0.4931350    -1.2664130    -0.4574980
  C        0.0352210     1.1635170    -0.2825800
  C        1.9231090    -1.0498370     0.0125270
  C        1.4559810     1.4024730     0.2057820
  C       -1.8240041    -0.4698354    -0.6134631
  C        2.4161490     0.3504860    -0.3416810
  C       -0.6569180    -0.3697370     1.5418350
  C       -2.9537840     0.4422600    -0.2148440
  H        0.4401460    -1.2024090    -1.5488290
  H        0.0974590    -2.2384020    -0.1488000
  H       -0.6659240     1.8829090     0.1439630
  H       -0.0118010     1.2353730    -1.3742740
  H        2.5349810    -1.8144250    -0.4785470
  H        2.0170420    -1.2344280     1.0876600
  H        1.4907670     1.4297660     1.3002730
  H        1.7427260     2.4044990    -0.1312730
  H       -1.6076080    -0.3598680    -1.7054840
  H       -2.0575360    -1.5131640    -0.4404110
  H        3.4221240     0.5100020     0.0566650
  H        2.4871430     0.4507070    -1.4320070
  H        0.3126810    -0.3486860     2.0312100
  H       -1.2698770     0.4499320     1.9127640
  H       -1.1475680    -1.3248790     1.7354010
  H       -3.8251770     0.1584960    -0.8113200
  H       -3.2293180     0.3182590     0.8332870
  H       -2.7570620     1.4961540    -0.4168730
units angstrom
no_reorient  #important for SAPT in psi4, default
symmetry c1  #important for SAPT in psi4, default
}

set PROPERTIES_ORIGIN ["COM"]
properties('MP2/aug-cc-pvtz', properties = ['dipole'])
--------------------------------------------------------------------------

    Molecular point group: c1
  Charge       = 1
  Multiplicity = 1
  Basis Set: AUG-CC-PVTZ
    Blend: AUG-CC-PVTZ
  Basis Set: (AUG-CC-PVTZ AUX)
    Blend: AUG-CC-PVTZ-JKFIT

    Orbital Energies [Eh]
    ---------------------

    Doubly Occupied:

       1A    -15.843198     2A    -11.442311     3A    -11.438762
       4A    -11.437544     5A    -11.434269     6A    -11.378216
       7A    -11.378023     8A    -11.374084     9A    -11.366379
      10A     -1.483502    11A     -1.250853    12A     -1.200066
      13A     -1.189967    14A     -1.141311    15A     -1.058455
      16A     -1.029954    17A     -0.985411    18A     -0.925979
      19A     -0.865861    20A     -0.839197    21A     -0.816987
      22A     -0.803879    23A     -0.770805    24A     -0.754330
      25A     -0.743961    26A     -0.723355    27A     -0.719213
      28A     -0.705798    29A     -0.697977    30A     -0.683007
      31A     -0.671697    32A     -0.664477    33A     -0.656741
      34A     -0.617709    35A     -0.615632    36A     -0.612617

  @DF-RHF Final Energy:  -367.79625953780203

   => Energetics <=

    Nuclear Repulsion Energy =            526.1784962618045256
    One-Electron Energy =               -1527.3064614782711033
    Two-Electron Energy =                 633.3317056786645480
    Total Energy =                       -367.7962595378020296
  Basis Set: (AUG-CC-PVTZ AUX)
    Blend: AUG-CC-PVTZ-RI
    Molecular point group: c1

    Geometry (in Angstrom), charge = 1, multiplicity = 1:

       Center              X                  Y                   Z               Mass
    ------------   -----------------  -----------------  -----------------  -----------------
         N           -0.496707539828    -0.217711098038     0.063672184501    14.003074004430
         C            0.478516460172    -1.263684098038    -0.454963815499    12.000000000000
         C            0.020602460172     1.166245901962    -0.280045815499    12.000000000000
         C            1.908490460172    -1.047108098038     0.015061184501    12.000000000000
         C            1.441362460172     1.405201901962     0.208316184501    12.000000000000
         C           -1.838622639828    -0.467106498038    -0.610928915499    12.000000000000
         C            2.401530460172     0.353214901962    -0.339146815499    12.000000000000
         C           -0.671536539828    -0.367008098038     1.544369184501    12.000000000000
         C           -2.968402539828     0.444988901962    -0.212309815499    12.000000000000
         H            0.425527460172    -1.199680098038    -1.546294815499     1.007825032230
         H            0.082840460172    -2.235673098038    -0.146265815499     1.007825032230
         H           -0.680542539828     1.885637901962     0.146497184501     1.007825032230
         H           -0.026419539828     1.238101901962    -1.371739815499     1.007825032230
         H            2.520362460172    -1.811696098038    -0.476012815499     1.007825032230
         H            2.002423460172    -1.231699098038     1.090194184501     1.007825032230
         H            1.476148460172     1.432494901962     1.302807184501     1.007825032230
         H            1.728107460172     2.407227901962    -0.128738815499     1.007825032230
         H           -1.622226539828    -0.357139098038    -1.702949815499     1.007825032230
         H           -2.072154539828    -1.510435098038    -0.437876815499     1.007825032230
         H            3.407505460172     0.512730901962     0.059199184501     1.007825032230
         H            2.472524460172     0.453435901962    -1.429472815499     1.007825032230
         H            0.298062460172    -0.345957098038     2.033744184501     1.007825032230
         H           -1.284495539828     0.452660901962     1.915298184501     1.007825032230
         H           -1.162186539828    -1.322150098038     1.737935184501     1.007825032230
         H           -3.839795539828     0.161224901962    -0.808785815499     1.007825032230
         H           -3.243936539828     0.320987901962     0.835821184501     1.007825032230
         H           -2.771680539828     1.498882901962    -0.414338815499     1.007825032230

  Basis Set: AUG-CC-PVTZ
    Blend: AUG-CC-PVTZ
  Basis Set: (AUG-CC-PVTZ AUX)
    Blend: AUG-CC-PVTZ-JKFIT
	 Reference Energy          =    -367.7962595378020296 [Eh]
	 Singles Energy            =      -0.0000000000000000 [Eh]
	 Same-Spin Energy          =      -0.3938902602317754 [Eh]
	 Opposite-Spin Energy      =      -1.4093810145907957 [Eh]
	 Correlation Energy        =      -1.8032712748225710 [Eh]
	 Total Energy              =    -369.5995308126246073 [Eh]

	 ================> DF-SCS-MP2 Energies <==================
	-----------------------------------------------------------
	 SCS Same-Spin Scale       =       0.3333333333333333 [-]
	 SCS Opposite-Spin Scale   =       1.2000000000000000 [-]
	 SCS Same-Spin Energy      =      -0.1312967534105918 [Eh]
	 SCS Opposite-Spin Energy  =      -1.6912572175089549 [Eh]
	 SCS Correlation Energy    =      -1.8225539709195466 [Eh]
	 SCS Total Energy          =    -369.6188135087215869 [Eh]
	-----------------------------------------------------------

  Dipole Moment: [D]
     X:    -1.4937      Y:    -0.5476      Z:     0.2143     Total:     1.6053

*** Psi4 exiting successfully. Buy a developer a beer!
