                               Psi4 1.3.2 release

  ==> Input File <==

--------------------------------------------------------------------------
#psi4
#
memory 32 gb

molecule  {
1 1
  N       -0.4880229    -0.2138951     0.0361010
  C        0.4931350    -1.2664130    -0.4574980
  C        0.0352210     1.1635170    -0.2825800
  C        1.9231090    -1.0498370     0.0125270
  C        1.4559810     1.4024730     0.2057820
  C       -1.8126550    -0.4655410    -0.6371030
  C        2.4161490     0.3504860    -0.3416810
  C       -0.6569180    -0.3697370     1.5418350
  C       -2.9537840     0.4422600    -0.2148440
  H        0.4401460    -1.2024090    -1.5488290
  H        0.0974590    -2.2384020    -0.1488000
  H       -0.6659240     1.8829090     0.1439630
  H       -0.0118010     1.2353730    -1.3742740
  H        2.5349810    -1.8144250    -0.4785470
  H        2.0170420    -1.2344280     1.0876600
  H        1.4907670     1.4297660     1.3002730
  H        1.7427260     2.4044990    -0.1312730
  H       -1.6076080    -0.3598680    -1.7054840
  H       -2.0575360    -1.5131640    -0.4404110
  H        3.4221240     0.5100020     0.0566650
  H        2.4871430     0.4507070    -1.4320070
  H        0.3126810    -0.3486860     2.0312100
  H       -1.2698770     0.4499320     1.9127640
  H       -1.1475680    -1.3248790     1.7354010
  H       -3.8251770     0.1584960    -0.8113200
  H       -3.2293180     0.3182590     0.8332870
  H       -2.7570620     1.4961540    -0.4168730
units angstrom
no_reorient  #important for SAPT in psi4, default
symmetry c1  #important for SAPT in psi4, default
}

set PROPERTIES_ORIGIN ["COM"]
properties('MP2/aug-cc-pvtz', properties = ['dipole'])
--------------------------------------------------------------------------

    Molecular point group: c1
  Charge       = 1
  Multiplicity = 1
  Basis Set: AUG-CC-PVTZ
    Blend: AUG-CC-PVTZ
  Basis Set: (AUG-CC-PVTZ AUX)
    Blend: AUG-CC-PVTZ-JKFIT

    Orbital Energies [Eh]
    ---------------------

    Doubly Occupied:

       1A    -15.843540     2A    -11.440354     3A    -11.438694
       4A    -11.436685     5A    -11.436548     6A    -11.378505
       7A    -11.378240     8A    -11.374182     9A    -11.366468
      10A     -1.483671    11A     -1.250775    12A     -1.200345
      13A     -1.187257    14A     -1.140397    15A     -1.059901
      16A     -1.031295    17A     -0.985970    18A     -0.925959
      19A     -0.866694    20A     -0.837797    21A     -0.816890
      22A     -0.803857    23A     -0.769535    24A     -0.754721
      25A     -0.743900    26A     -0.725555    27A     -0.720657
      28A     -0.705676    29A     -0.694263    30A     -0.681169
      31A     -0.670753    32A     -0.664169    33A     -0.660224
      34A     -0.617970    35A     -0.616370    36A     -0.612739

  @DF-RHF Final Energy:  -367.79657120777205

   => Energetics <=

    Nuclear Repulsion Energy =            526.1222322680174557
    One-Electron Energy =               -1527.1941509429627786
    Two-Electron Energy =                 633.2753474671733329
    Total Energy =                       -367.7965712077719900
  Basis Set: (AUG-CC-PVTZ AUX)
    Blend: AUG-CC-PVTZ-RI
    Molecular point group: c1

    Geometry (in Angstrom), charge = 1, multiplicity = 1:

       Center              X                  Y                   Z               Mass
    ------------   -----------------  -----------------  -----------------  -----------------
         N           -0.503055789235    -0.212283547296     0.043584882787    14.003074004430
         C            0.478102110765    -1.264801447296    -0.450014117213    12.000000000000
         C            0.020188110765     1.165128552704    -0.275096117213    12.000000000000
         C            1.908076110765    -1.048225447296     0.020010882787    12.000000000000
         C            1.440948110765     1.404084552704     0.213265882787    12.000000000000
         C           -1.827687889235    -0.463929447296    -0.629619117213    12.000000000000
         C            2.401116110765     0.352097552704    -0.334197117213    12.000000000000
         C           -0.671950889235    -0.368125447296     1.549318882787    12.000000000000
         C           -2.968816889235     0.443871552704    -0.207360117213    12.000000000000
         H            0.425113110765    -1.200797447296    -1.541345117213     1.007825032230
         H            0.082426110765    -2.236790447296    -0.141316117213     1.007825032230
         H           -0.680956889235     1.884520552704     0.151446882787     1.007825032230
         H           -0.026833889235     1.236984552704    -1.366790117213     1.007825032230
         H            2.519948110765    -1.812813447296    -0.471063117213     1.007825032230
         H            2.002009110765    -1.232816447296     1.095143882787     1.007825032230
         H            1.475734110765     1.431377552704     1.307756882787     1.007825032230
         H            1.727693110765     2.406110552704    -0.123789117213     1.007825032230
         H           -1.622640889235    -0.358256447296    -1.698000117213     1.007825032230
         H           -2.072568889235    -1.511552447296    -0.432927117213     1.007825032230
         H            3.407091110765     0.511613552704     0.064148882787     1.007825032230
         H            2.472110110765     0.452318552704    -1.424523117213     1.007825032230
         H            0.297648110765    -0.347074447296     2.038693882787     1.007825032230
         H           -1.284909889235     0.451543552704     1.920247882787     1.007825032230
         H           -1.162600889235    -1.323267447296     1.742884882787     1.007825032230
         H           -3.840209889235     0.160107552704    -0.803836117213     1.007825032230
         H           -3.244350889235     0.319870552704     0.840770882787     1.007825032230
         H           -2.772094889235     1.497765552704    -0.409389117213     1.007825032230

  Basis Set: AUG-CC-PVTZ
    Blend: AUG-CC-PVTZ
  Basis Set: (AUG-CC-PVTZ AUX)
    Blend: AUG-CC-PVTZ-JKFIT
	 Reference Energy          =    -367.7965712077720468 [Eh]
	 Singles Energy            =      -0.0000000000000000 [Eh]
	 Same-Spin Energy          =      -0.3937644117036592 [Eh]
	 Opposite-Spin Energy      =      -1.4092914567447647 [Eh]
	 Correlation Energy        =      -1.8030558684484239 [Eh]
	 Total Energy              =    -369.5996270762204858 [Eh]

	 ================> DF-SCS-MP2 Energies <==================
	-----------------------------------------------------------
	 SCS Same-Spin Scale       =       0.3333333333333333 [-]
	 SCS Opposite-Spin Scale   =       1.2000000000000000 [-]
	 SCS Same-Spin Energy      =      -0.1312548039012197 [Eh]
	 SCS Opposite-Spin Energy  =      -1.6911497480937177 [Eh]
	 SCS Correlation Energy    =      -1.8224045519949374 [Eh]
	 SCS Total Energy          =    -369.6189757597670109 [Eh]
	-----------------------------------------------------------

  Dipole Moment: [D]
     X:    -1.4706      Y:    -0.5639      Z:     0.2630     Total:     1.5968

*** Psi4 exiting successfully. Buy a developer a beer!
