                               Psi4 1.3.2 release

  ==> Input File <==

--------------------------------------------------------------------------
#psi4
#
memory 32 gb

molecule  {
1 1
  N       -0.4693320    -0.2344836     0.1107305
  C        0.4931350    -1.2664130    -0.4574980
  C        0.0352210     1.1635170    -0.2825800
  C        1.9231090    -1.0498370     0.0125270
  C        1.4559810     1.4024730     0.2057820
  C       -1.8126550    -0.4655410    -0.6371030
  C        2.4161490     0.3504860    -0.3416810
  C       -0.6569180    -0.3697370     1.5418350
  C       -2.9537840     0.4422600    -0.2148440
  H        0.4401460    -1.2024090    -1.5488290
  H        0.0974590    -2.2384020    -0.1488000
  H       -0.6659240     1.8829090     0.1439630
  H       -0.0118010     1.2353730    -1.3742740
  H        2.5349810    -1.8144250    -0.4785470
  H        2.0170420    -1.2344280     1.0876600
  H        1.4907670     1.4297660     1.3002730
  H        1.7427260     2.4044990    -0.1312730
  H       -1.6076080    -0.3598680    -1.7054840
  H       -2.0575360    -1.5131640    -0.4404110
  H        3.4221240     0.5100020     0.0566650
  H        2.4871430     0.4507070    -1.4320070
  H        0.3126810    -0.3486860     2.0312100
  H       -1.2698770     0.4499320     1.9127640
  H       -1.1475680    -1.3248790     1.7354010
  H       -3.8251770     0.1584960    -0.8113200
  H       -3.2293180     0.3182590     0.8332870
  H       -2.7570620     1.4961540    -0.4168730
units angstrom
no_reorient  #important for SAPT in psi4, default
symmetry c1  #important for SAPT in psi4, default
}

set PROPERTIES_ORIGIN ["COM"]
properties('MP2/aug-cc-pvtz', properties = ['dipole'])
--------------------------------------------------------------------------

    Molecular point group: c1
  Charge       = 1
  Multiplicity = 1
  Basis Set: AUG-CC-PVTZ
    Blend: AUG-CC-PVTZ
  Basis Set: (AUG-CC-PVTZ AUX)
    Blend: AUG-CC-PVTZ-JKFIT

    Orbital Energies [Eh]
    ---------------------

    Doubly Occupied:

       1A    -15.841835     2A    -11.444355     3A    -11.439186
       4A    -11.438583     5A    -11.430360     6A    -11.377235
       7A    -11.377139     8A    -11.374954     9A    -11.366024
      10A     -1.483828    11A     -1.249773    12A     -1.199341
      13A     -1.191755    14A     -1.142481    15A     -1.054542
      16A     -1.026913    17A     -0.986667    18A     -0.926118
      19A     -0.867835    20A     -0.841380    21A     -0.815569
      22A     -0.804379    23A     -0.775109    24A     -0.752050
      25A     -0.743319    26A     -0.719213    27A     -0.717779
      28A     -0.705556    29A     -0.703984    30A     -0.677933
      31A     -0.672162    32A     -0.665051    33A     -0.661357
      34A     -0.617527    35A     -0.611916    36A     -0.611044

  @DF-RHF Final Energy:  -367.79425307216616

   => Energetics <=

    Nuclear Repulsion Energy =            526.1249877355535318
    One-Electron Energy =               -1527.2099784421420736
    Two-Electron Energy =                 633.2907376344223849
    Total Energy =                       -367.7942530721661569
  Basis Set: (AUG-CC-PVTZ AUX)
    Blend: AUG-CC-PVTZ-RI
    Molecular point group: c1

    Geometry (in Angstrom), charge = 1, multiplicity = 1:

       Center              X                  Y                   Z               Mass
    ------------   -----------------  -----------------  -----------------  -----------------
         N           -0.486407358722    -0.230622215398     0.110059158770    14.003074004430
         C            0.476059641278    -1.262551615398    -0.458169341230    12.000000000000
         C            0.018145641278     1.167378384602    -0.283251341230    12.000000000000
         C            1.906033641278    -1.045975615398     0.011855658770    12.000000000000
         C            1.438905641278     1.406334384602     0.205110658770    12.000000000000
         C           -1.829730358722    -0.461679615398    -0.637774341230    12.000000000000
         C            2.399073641278     0.354347384602    -0.342352341230    12.000000000000
         C           -0.673993358722    -0.365875615398     1.541163658770    12.000000000000
         C           -2.970859358722     0.446121384602    -0.215515341230    12.000000000000
         H            0.423070641278    -1.198547615398    -1.549500341230     1.007825032230
         H            0.080383641278    -2.234540615398    -0.149471341230     1.007825032230
         H           -0.682999358722     1.886770384602     0.143291658770     1.007825032230
         H           -0.028876358722     1.239234384602    -1.374945341230     1.007825032230
         H            2.517905641278    -1.810563615398    -0.479218341230     1.007825032230
         H            1.999966641278    -1.230566615398     1.086988658770     1.007825032230
         H            1.473691641278     1.433627384602     1.299601658770     1.007825032230
         H            1.725650641278     2.408360384602    -0.131944341230     1.007825032230
         H           -1.624683358722    -0.356006615398    -1.706155341230     1.007825032230
         H           -2.074611358722    -1.509302615398    -0.441082341230     1.007825032230
         H            3.405048641278     0.513863384602     0.055993658770     1.007825032230
         H            2.470067641278     0.454568384602    -1.432678341230     1.007825032230
         H            0.295605641278    -0.344824615398     2.030538658770     1.007825032230
         H           -1.286952358722     0.453793384602     1.912092658770     1.007825032230
         H           -1.164643358722    -1.321017615398     1.734729658770     1.007825032230
         H           -3.842252358722     0.162357384602    -0.811991341230     1.007825032230
         H           -3.246393358722     0.322120384602     0.832615658770     1.007825032230
         H           -2.774137358722     1.500015384602    -0.417544341230     1.007825032230

  Basis Set: AUG-CC-PVTZ
    Blend: AUG-CC-PVTZ
  Basis Set: (AUG-CC-PVTZ AUX)
    Blend: AUG-CC-PVTZ-JKFIT
	 Reference Energy          =    -367.7942530721661569 [Eh]
	 Singles Energy            =      -0.0000000000000000 [Eh]
	 Same-Spin Energy          =      -0.3939191134828149 [Eh]
	 Opposite-Spin Energy      =      -1.4094750010973423 [Eh]
	 Correlation Energy        =      -1.8033941145801573 [Eh]
	 Total Energy              =    -369.5976471867463147 [Eh]

	 ================> DF-SCS-MP2 Energies <==================
	-----------------------------------------------------------
	 SCS Same-Spin Scale       =       0.3333333333333333 [-]
	 SCS Opposite-Spin Scale   =       1.2000000000000000 [-]
	 SCS Same-Spin Energy      =      -0.1313063711609383 [Eh]
	 SCS Opposite-Spin Energy  =      -1.6913700013168107 [Eh]
	 SCS Correlation Energy    =      -1.8226763724777491 [Eh]
	 SCS Total Energy          =    -369.6169294446439153 [Eh]
	-----------------------------------------------------------

  Dipole Moment: [D]
     X:    -1.5334      Y:    -0.5201      Z:     0.1109     Total:     1.6230

*** Psi4 exiting successfully. Buy a developer a beer!
