                               Psi4 1.3.2 release

  ==> Input File <==

--------------------------------------------------------------------------
#psi4
#
memory 32 gb

molecule  {
1 1
  N       -0.4820890    -0.2204400     0.0611380
  C        0.5810782    -1.1453289    -0.5118897
  C        0.0352210     1.1635170    -0.2825800
  C        1.9231090    -1.0498370     0.0125270
  C        1.4559810     1.4024730     0.2057820
  C       -1.8126550    -0.4655410    -0.6371030
  C        2.4161490     0.3504860    -0.3416810
  C       -0.6569180    -0.3697370     1.5418350
  C       -2.9537840     0.4422600    -0.2148440
  H        0.4401460    -1.2024090    -1.5488290
  H        0.0974590    -2.2384020    -0.1488000
  H       -0.6659240     1.8829090     0.1439630
  H       -0.0118010     1.2353730    -1.3742740
  H        2.5349810    -1.8144250    -0.4785470
  H        2.0170420    -1.2344280     1.0876600
  H        1.4907670     1.4297660     1.3002730
  H        1.7427260     2.4044990    -0.1312730
  H       -1.6076080    -0.3598680    -1.7054840
  H       -2.0575360    -1.5131640    -0.4404110
  H        3.4221240     0.5100020     0.0566650
  H        2.4871430     0.4507070    -1.4320070
  H        0.3126810    -0.3486860     2.0312100
  H       -1.2698770     0.4499320     1.9127640
  H       -1.1475680    -1.3248790     1.7354010
  H       -3.8251770     0.1584960    -0.8113200
  H       -3.2293180     0.3182590     0.8332870
  H       -2.7570620     1.4961540    -0.4168730
units angstrom
no_reorient  #important for SAPT in psi4, default
symmetry c1  #important for SAPT in psi4, default
}

set PROPERTIES_ORIGIN ["COM"]
properties('MP2/aug-cc-pvtz', properties = ['dipole'])
--------------------------------------------------------------------------

    Molecular point group: c1
  Charge       = 1
  Multiplicity = 1
  Basis Set: AUG-CC-PVTZ
    Blend: AUG-CC-PVTZ
  Basis Set: (AUG-CC-PVTZ AUX)
    Blend: AUG-CC-PVTZ-JKFIT

    Orbital Energies [Eh]
    ---------------------

    Doubly Occupied:

       1A    -15.844391     2A    -11.445450     3A    -11.442846
       4A    -11.436475     5A    -11.435529     6A    -11.378770
       7A    -11.376257     8A    -11.375590     9A    -11.365503
      10A     -1.485082    11A     -1.261988    12A     -1.201790
      13A     -1.190206    14A     -1.143896    15A     -1.060371
      16A     -1.023558    17A     -0.988722    18A     -0.932745
      19A     -0.867914    20A     -0.840280    21A     -0.819911
      22A     -0.800011    23A     -0.774619    24A     -0.755992
      25A     -0.741516    26A     -0.723133    27A     -0.720493
      28A     -0.710083    29A     -0.691612    30A     -0.684621
      31A     -0.672461    32A     -0.666209    33A     -0.660468
      34A     -0.623764    35A     -0.615889    36A     -0.590668

  @DF-RHF Final Energy:  -367.76902754101417

   => Energetics <=

    Nuclear Repulsion Energy =            527.4474645571385736
    One-Electron Energy =               -1529.7353647663339871
    Two-Electron Energy =                 634.5188726681813023
    Total Energy =                       -367.7690275410141112
  Basis Set: (AUG-CC-PVTZ AUX)
    Blend: AUG-CC-PVTZ-RI
    Molecular point group: c1

    Geometry (in Angstrom), charge = 1, multiplicity = 1:

       Center              X                  Y                   Z               Mass
    ------------   -----------------  -----------------  -----------------  -----------------
         N           -0.506005737959    -0.229452130669     0.070979430655    14.003074004430
         C            0.557161462041    -1.154341030669    -0.502048269345    12.000000000000
         C            0.011304262041     1.154504869331    -0.272738569345    12.000000000000
         C            1.899192262041    -1.058849130669     0.022368430655    12.000000000000
         C            1.432064262041     1.393460869331     0.215623430655    12.000000000000
         C           -1.836571737959    -0.474553130669    -0.627261569345    12.000000000000
         C            2.392232262041     0.341473869331    -0.331839569345    12.000000000000
         C           -0.680834737959    -0.378749130669     1.551676430655    12.000000000000
         C           -2.977700737959     0.433247869331    -0.205002569345    12.000000000000
         H            0.416229262041    -1.211421130669    -1.538987569345     1.007825032230
         H            0.073542262041    -2.247414130669    -0.138958569345     1.007825032230
         H           -0.689840737959     1.873896869331     0.153804430655     1.007825032230
         H           -0.035717737959     1.226360869331    -1.364432569345     1.007825032230
         H            2.511064262041    -1.823437130669    -0.468705569345     1.007825032230
         H            1.993125262041    -1.243440130669     1.097501430655     1.007825032230
         H            1.466850262041     1.420753869331     1.310114430655     1.007825032230
         H            1.718809262041     2.395486869331    -0.121431569345     1.007825032230
         H           -1.631524737959    -0.368880130669    -1.695642569345     1.007825032230
         H           -2.081452737959    -1.522176130669    -0.430569569345     1.007825032230
         H            3.398207262041     0.500989869331     0.066506430655     1.007825032230
         H            2.463226262041     0.441694869331    -1.422165569345     1.007825032230
         H            0.288764262041    -0.357698130669     2.041051430655     1.007825032230
         H           -1.293793737959     0.440919869331     1.922605430655     1.007825032230
         H           -1.171484737959    -1.333891130669     1.745242430655     1.007825032230
         H           -3.849093737959     0.149483869331    -0.801478569345     1.007825032230
         H           -3.253234737959     0.309246869331     0.843128430655     1.007825032230
         H           -2.780978737959     1.487141869331    -0.407031569345     1.007825032230

  Basis Set: AUG-CC-PVTZ
    Blend: AUG-CC-PVTZ
  Basis Set: (AUG-CC-PVTZ AUX)
    Blend: AUG-CC-PVTZ-JKFIT
	 Reference Energy          =    -367.7690275410141680 [Eh]
	 Singles Energy            =      -0.0000000000000000 [Eh]
	 Same-Spin Energy          =      -0.3955120600857081 [Eh]
	 Opposite-Spin Energy      =      -1.4118762066871438 [Eh]
	 Correlation Energy        =      -1.8073882667728518 [Eh]
	 Total Energy              =    -369.5764158077870434 [Eh]

	 ================> DF-SCS-MP2 Energies <==================
	-----------------------------------------------------------
	 SCS Same-Spin Scale       =       0.3333333333333333 [-]
	 SCS Opposite-Spin Scale   =       1.2000000000000000 [-]
	 SCS Same-Spin Energy      =      -0.1318373533619027 [Eh]
	 SCS Opposite-Spin Energy  =      -1.6942514480245725 [Eh]
	 SCS Correlation Energy    =      -1.8260888013864751 [Eh]
	 SCS Total Energy          =    -369.5951163424006154 [Eh]
	-----------------------------------------------------------

  Dipole Moment: [D]
     X:    -1.4572      Y:    -0.4974      Z:     0.2184     Total:     1.5552

*** Psi4 exiting successfully. Buy a developer a beer!
