                               Psi4 1.3.2 release

  ==> Input File <==

--------------------------------------------------------------------------
#psi4
#
memory 32 gb

molecule  {
1 1
  N       -0.4820890    -0.2204400     0.0611380
  C        0.5236867    -1.2272619    -0.4762907
  C        0.0352210     1.1635170    -0.2825800
  C        1.9231090    -1.0498370     0.0125270
  C        1.4559810     1.4024730     0.2057820
  C       -1.8126550    -0.4655410    -0.6371030
  C        2.4161490     0.3504860    -0.3416810
  C       -0.6569180    -0.3697370     1.5418350
  C       -2.9537840     0.4422600    -0.2148440
  H        0.4401460    -1.2024090    -1.5488290
  H        0.0974590    -2.2384020    -0.1488000
  H       -0.6659240     1.8829090     0.1439630
  H       -0.0118010     1.2353730    -1.3742740
  H        2.5349810    -1.8144250    -0.4785470
  H        2.0170420    -1.2344280     1.0876600
  H        1.4907670     1.4297660     1.3002730
  H        1.7427260     2.4044990    -0.1312730
  H       -1.6076080    -0.3598680    -1.7054840
  H       -2.0575360    -1.5131640    -0.4404110
  H        3.4221240     0.5100020     0.0566650
  H        2.4871430     0.4507070    -1.4320070
  H        0.3126810    -0.3486860     2.0312100
  H       -1.2698770     0.4499320     1.9127640
  H       -1.1475680    -1.3248790     1.7354010
  H       -3.8251770     0.1584960    -0.8113200
  H       -3.2293180     0.3182590     0.8332870
  H       -2.7570620     1.4961540    -0.4168730
units angstrom
no_reorient  #important for SAPT in psi4, default
symmetry c1  #important for SAPT in psi4, default
}

set PROPERTIES_ORIGIN ["COM"]
properties('MP2/aug-cc-pvtz', properties = ['dipole'])
--------------------------------------------------------------------------

    Molecular point group: c1
  Charge       = 1
  Multiplicity = 1
  Basis Set: AUG-CC-PVTZ
    Blend: AUG-CC-PVTZ
  Basis Set: (AUG-CC-PVTZ AUX)
    Blend: AUG-CC-PVTZ-JKFIT

    Orbital Energies [Eh]
    ---------------------

    Doubly Occupied:

       1A    -15.843276     2A    -11.442021     3A    -11.440242
       4A    -11.436895     5A    -11.434808     6A    -11.378025
       7A    -11.377125     8A    -11.374794     9A    -11.365867
      10A     -1.483746    11A     -1.253635    12A     -1.200407
      13A     -1.189263    14A     -1.141978    15A     -1.058842
      16A     -1.027282    17A     -0.986986    18A     -0.928030
      19A     -0.866277    20A     -0.839691    21A     -0.816520
      22A     -0.802381    23A     -0.772146    24A     -0.752277
      25A     -0.743677    26A     -0.722916    27A     -0.720032
      28A     -0.703699    29A     -0.698591    30A     -0.682407
      31A     -0.671513    32A     -0.666189    33A     -0.661164
      34A     -0.619732    35A     -0.614826    36A     -0.608239

  @DF-RHF Final Energy:  -367.79348946030336

   => Energetics <=

    Nuclear Repulsion Energy =            526.5533259615199313
    One-Electron Energy =               -1528.0426348071302982
    Two-Electron Energy =                 633.6958193853070043
    Total Energy =                       -367.7934894603033626
  Basis Set: (AUG-CC-PVTZ AUX)
    Blend: AUG-CC-PVTZ-RI
    Molecular point group: c1

    Geometry (in Angstrom), charge = 1, multiplicity = 1:

       Center              X                  Y                   Z               Mass
    ------------   -----------------  -----------------  -----------------  -----------------
         N           -0.500631327879    -0.221779539064     0.067645772806    14.003074004430
         C            0.505144372121    -1.228601439064    -0.469782927194    12.000000000000
         C            0.016678672121     1.162177460936    -0.276072227194    12.000000000000
         C            1.904566672121    -1.051176539064     0.019034772806    12.000000000000
         C            1.437438672121     1.401133460936     0.212289772806    12.000000000000
         C           -1.831197327879    -0.466880539064    -0.630595227194    12.000000000000
         C            2.397606672121     0.349146460936    -0.335173227194    12.000000000000
         C           -0.675460327879    -0.371076539064     1.548342772806    12.000000000000
         C           -2.972326327879     0.440920460936    -0.208336227194    12.000000000000
         H            0.421603672121    -1.203748539064    -1.542321227194     1.007825032230
         H            0.078916672121    -2.239741539064    -0.142292227194     1.007825032230
         H           -0.684466327879     1.881569460936     0.150470772806     1.007825032230
         H           -0.030343327879     1.234033460936    -1.367766227194     1.007825032230
         H            2.516438672121    -1.815764539064    -0.472039227194     1.007825032230
         H            1.998499672121    -1.235767539064     1.094167772806     1.007825032230
         H            1.472224672121     1.428426460936     1.306780772806     1.007825032230
         H            1.724183672121     2.403159460936    -0.124765227194     1.007825032230
         H           -1.626150327879    -0.361207539064    -1.698976227194     1.007825032230
         H           -2.076078327879    -1.514503539064    -0.433903227194     1.007825032230
         H            3.403581672121     0.508662460936     0.063172772806     1.007825032230
         H            2.468600672121     0.449367460936    -1.425499227194     1.007825032230
         H            0.294138672121    -0.350025539064     2.037717772806     1.007825032230
         H           -1.288419327879     0.448592460936     1.919271772806     1.007825032230
         H           -1.166110327879    -1.326218539064     1.741908772806     1.007825032230
         H           -3.843719327879     0.157156460936    -0.804812227194     1.007825032230
         H           -3.247860327879     0.316919460936     0.839794772806     1.007825032230
         H           -2.775604327879     1.494814460936    -0.410365227194     1.007825032230

  Basis Set: AUG-CC-PVTZ
    Blend: AUG-CC-PVTZ
  Basis Set: (AUG-CC-PVTZ AUX)
    Blend: AUG-CC-PVTZ-JKFIT
	 Reference Energy          =    -367.7934894603033626 [Eh]
	 Singles Energy            =      -0.0000000000000000 [Eh]
	 Same-Spin Energy          =      -0.3941596188500048 [Eh]
	 Opposite-Spin Energy      =      -1.4097026922943912 [Eh]
	 Correlation Energy        =      -1.8038623111443961 [Eh]
	 Total Energy              =    -369.5973517714477339 [Eh]

	 ================> DF-SCS-MP2 Energies <==================
	-----------------------------------------------------------
	 SCS Same-Spin Scale       =       0.3333333333333333 [-]
	 SCS Opposite-Spin Scale   =       1.2000000000000000 [-]
	 SCS Same-Spin Energy      =      -0.1313865396166683 [Eh]
	 SCS Opposite-Spin Energy  =      -1.6916432307532694 [Eh]
	 SCS Correlation Energy    =      -1.8230297703699376 [Eh]
	 SCS Total Energy          =    -369.6165192306733047 [Eh]
	-----------------------------------------------------------

  Dipole Moment: [D]
     X:    -1.4848      Y:    -0.5459      Z:     0.2126     Total:     1.5962

*** Psi4 exiting successfully. Buy a developer a beer!
