                               Psi4 1.3.2 release

  ==> Input File <==

--------------------------------------------------------------------------
#psi4
#
memory 32 gb

molecule  {
1 1
  N       -0.5131761    -0.1860160    -0.0911853
  C        0.4931350    -1.2664130    -0.4574980
  C        0.0352210     1.1635170    -0.2825800
  C        1.9231090    -1.0498370     0.0125270
  C        1.4559810     1.4024730     0.2057820
  C       -1.8126550    -0.4655410    -0.6371030
  C        2.4161490     0.3504860    -0.3416810
  C       -0.6569180    -0.3697370     1.5418350
  C       -2.9537840     0.4422600    -0.2148440
  H        0.4401460    -1.2024090    -1.5488290
  H        0.0974590    -2.2384020    -0.1488000
  H       -0.6659240     1.8829090     0.1439630
  H       -0.0118010     1.2353730    -1.3742740
  H        2.5349810    -1.8144250    -0.4785470
  H        2.0170420    -1.2344280     1.0876600
  H        1.4907670     1.4297660     1.3002730
  H        1.7427260     2.4044990    -0.1312730
  H       -1.6076080    -0.3598680    -1.7054840
  H       -2.0575360    -1.5131640    -0.4404110
  H        3.4221240     0.5100020     0.0566650
  H        2.4871430     0.4507070    -1.4320070
  H        0.3126810    -0.3486860     2.0312100
  H       -1.2698770     0.4499320     1.9127640
  H       -1.1475680    -1.3248790     1.7354010
  H       -3.8251770     0.1584960    -0.8113200
  H       -3.2293180     0.3182590     0.8332870
  H       -2.7570620     1.4961540    -0.4168730
units angstrom
no_reorient  #important for SAPT in psi4, default
symmetry c1  #important for SAPT in psi4, default
}

set PROPERTIES_ORIGIN ["COM"]
properties('MP2/aug-cc-pvtz', properties = ['dipole'])
--------------------------------------------------------------------------

    Molecular point group: c1
  Charge       = 1
  Multiplicity = 1
  Basis Set: AUG-CC-PVTZ
    Blend: AUG-CC-PVTZ
  Basis Set: (AUG-CC-PVTZ AUX)
    Blend: AUG-CC-PVTZ-JKFIT

    Orbital Energies [Eh]
    ---------------------

    Doubly Occupied:

       1A    -15.843848     2A    -11.445510     3A    -11.439731
       4A    -11.434865     5A    -11.434331     6A    -11.380750
       7A    -11.380251     8A    -11.373472     9A    -11.367326
      10A     -1.488165    11A     -1.254665    12A     -1.202891
      13A     -1.182281    14A     -1.135353    15A     -1.069012
      16A     -1.037606    17A     -0.985081    18A     -0.925049
      19A     -0.865605    20A     -0.838471    21A     -0.816513
      22A     -0.802771    23A     -0.769284    24A     -0.756462
      25A     -0.748253    26A     -0.735190    27A     -0.724778
      28A     -0.707020    29A     -0.685433    30A     -0.682792
      31A     -0.668484    32A     -0.661446    33A     -0.640544
      34A     -0.622197    35A     -0.616145    36A     -0.612670

  @DF-RHF Final Energy:  -367.77211883782547

   => Energetics <=

    Nuclear Repulsion Energy =            526.0672174016220879
    One-Electron Energy =               -1527.0101807371552241
    Two-Electron Energy =                 633.1708444977076624
    Total Energy =                       -367.7721188378254737
  Basis Set: (AUG-CC-PVTZ AUX)
    Blend: AUG-CC-PVTZ-RI
    Molecular point group: c1

    Geometry (in Angstrom), charge = 1, multiplicity = 1:

       Center              X                  Y                   Z               Mass
    ------------   -----------------  -----------------  -----------------  -----------------
         N           -0.525460344521    -0.187450967853    -0.069792061116    14.003074004430
         C            0.480850755479    -1.267847967853    -0.436104761116    12.000000000000
         C            0.022936755479     1.162082032147    -0.261186761116    12.000000000000
         C            1.910824755479    -1.051271967853     0.033920238884    12.000000000000
         C            1.443696755479     1.401038032147     0.227175238884    12.000000000000
         C           -1.824939244521    -0.466975967853    -0.615709761116    12.000000000000
         C            2.403864755479     0.349051032147    -0.320287761116    12.000000000000
         C           -0.669202244521    -0.371171967853     1.563228238884    12.000000000000
         C           -2.966068244521     0.440825032147    -0.193450761116    12.000000000000
         H            0.427861755479    -1.203843967853    -1.527435761116     1.007825032230
         H            0.085174755479    -2.239836967853    -0.127406761116     1.007825032230
         H           -0.678208244521     1.881474032147     0.165356238884     1.007825032230
         H           -0.024085244521     1.233938032147    -1.352880761116     1.007825032230
         H            2.522696755479    -1.815859967853    -0.457153761116     1.007825032230
         H            2.004757755479    -1.235862967853     1.109053238884     1.007825032230
         H            1.478482755479     1.428331032147     1.321666238884     1.007825032230
         H            1.730441755479     2.403064032147    -0.109879761116     1.007825032230
         H           -1.619892244521    -0.361302967853    -1.684090761116     1.007825032230
         H           -2.069820244521    -1.514598967853    -0.419017761116     1.007825032230
         H            3.409839755479     0.508567032147     0.078058238884     1.007825032230
         H            2.474858755479     0.449272032147    -1.410613761116     1.007825032230
         H            0.300396755479    -0.350120967853     2.052603238884     1.007825032230
         H           -1.282161244521     0.448497032147     1.934157238884     1.007825032230
         H           -1.159852244521    -1.326313967853     1.756794238884     1.007825032230
         H           -3.837461244521     0.157061032147    -0.789926761116     1.007825032230
         H           -3.241602244521     0.316824032147     0.854680238884     1.007825032230
         H           -2.769346244521     1.494719032147    -0.395479761116     1.007825032230

  Basis Set: AUG-CC-PVTZ
    Blend: AUG-CC-PVTZ
  Basis Set: (AUG-CC-PVTZ AUX)
    Blend: AUG-CC-PVTZ-JKFIT
	 Reference Energy          =    -367.7721188378254737 [Eh]
	 Singles Energy            =      -0.0000000000000000 [Eh]
	 Same-Spin Energy          =      -0.3948903942193569 [Eh]
	 Opposite-Spin Energy      =      -1.4117414729212405 [Eh]
	 Correlation Energy        =      -1.8066318671405974 [Eh]
	 Total Energy              =    -369.5787507049660690 [Eh]

	 ================> DF-SCS-MP2 Energies <==================
	-----------------------------------------------------------
	 SCS Same-Spin Scale       =       0.3333333333333333 [-]
	 SCS Opposite-Spin Scale   =       1.2000000000000000 [-]
	 SCS Same-Spin Energy      =      -0.1316301314064523 [Eh]
	 SCS Opposite-Spin Energy  =      -1.6940897675054887 [Eh]
	 SCS Correlation Energy    =      -1.8257198989119410 [Eh]
	 SCS Total Energy          =    -369.5978387367374012 [Eh]
	-----------------------------------------------------------

  Dipole Moment: [D]
     X:    -1.3771      Y:    -0.6118      Z:     0.4947     Total:     1.5860

*** Psi4 exiting successfully. Buy a developer a beer!
