                               Psi4 1.3.2 release

  ==> Input File <==

--------------------------------------------------------------------------
#psi4
#
memory 32 gb

molecule  {
1 1
  N       -0.5860827    -0.2267107     0.0519208
  C        0.4931350    -1.2664130    -0.4574980
  C        0.0352210     1.1635170    -0.2825800
  C        1.9231090    -1.0498370     0.0125270
  C        1.4559810     1.4024730     0.2057820
  C       -1.8126550    -0.4655410    -0.6371030
  C        2.4161490     0.3504860    -0.3416810
  C       -0.6569180    -0.3697370     1.5418350
  C       -2.9537840     0.4422600    -0.2148440
  H        0.4401460    -1.2024090    -1.5488290
  H        0.0974590    -2.2384020    -0.1488000
  H       -0.6659240     1.8829090     0.1439630
  H       -0.0118010     1.2353730    -1.3742740
  H        2.5349810    -1.8144250    -0.4785470
  H        2.0170420    -1.2344280     1.0876600
  H        1.4907670     1.4297660     1.3002730
  H        1.7427260     2.4044990    -0.1312730
  H       -1.6076080    -0.3598680    -1.7054840
  H       -2.0575360    -1.5131640    -0.4404110
  H        3.4221240     0.5100020     0.0566650
  H        2.4871430     0.4507070    -1.4320070
  H        0.3126810    -0.3486860     2.0312100
  H       -1.2698770     0.4499320     1.9127640
  H       -1.1475680    -1.3248790     1.7354010
  H       -3.8251770     0.1584960    -0.8113200
  H       -3.2293180     0.3182590     0.8332870
  H       -2.7570620     1.4961540    -0.4168730
units angstrom
no_reorient  #important for SAPT in psi4, default
symmetry c1  #important for SAPT in psi4, default
}

set PROPERTIES_ORIGIN ["COM"]
properties('MP2/aug-cc-pvtz', properties = ['dipole'])
--------------------------------------------------------------------------

    Molecular point group: c1
  Charge       = 1
  Multiplicity = 1
  Basis Set: AUG-CC-PVTZ
    Blend: AUG-CC-PVTZ
  Basis Set: (AUG-CC-PVTZ AUX)
    Blend: AUG-CC-PVTZ-JKFIT

    Orbital Energies [Eh]
    ---------------------

    Doubly Occupied:

       1A    -15.841602     2A    -11.443995     3A    -11.441008
       4A    -11.434646     5A    -11.432708     6A    -11.382208
       7A    -11.381721     8A    -11.370548     9A    -11.368262
      10A     -1.485062    11A     -1.256160    12A     -1.195595
      13A     -1.189403    14A     -1.137735    15A     -1.068333
      16A     -1.029006    17A     -0.980489    18A     -0.928057
      19A     -0.867342    20A     -0.841589    21A     -0.817410
      22A     -0.805806    23A     -0.769401    24A     -0.757187
      25A     -0.743154    26A     -0.728107    27A     -0.719454
      28A     -0.703227    29A     -0.695150    30A     -0.679018
      31A     -0.669076    32A     -0.661226    33A     -0.655035
      34A     -0.624135    35A     -0.619798    36A     -0.608674

  @DF-RHF Final Energy:  -367.78612904215385

   => Energetics <=

    Nuclear Repulsion Energy =            525.6309343802744252
    One-Electron Energy =               -1526.1714719135311498
    Two-Electron Energy =                 632.7544084911028222
    Total Energy =                       -367.7861290421539024
  Basis Set: (AUG-CC-PVTZ AUX)
    Blend: AUG-CC-PVTZ-RI
    Molecular point group: c1

    Geometry (in Angstrom), charge = 1, multiplicity = 1:

       Center              X                  Y                   Z               Mass
    ------------   -----------------  -----------------  -----------------  -----------------
         N           -0.590399992373    -0.223698707940     0.057675956038    14.003074004430
         C            0.488817707627    -1.263401007940    -0.451742843962    12.000000000000
         C            0.030903707627     1.166528992060    -0.276824843962    12.000000000000
         C            1.918791707627    -1.046825007940     0.018282156038    12.000000000000
         C            1.451663707627     1.405484992060     0.211537156038    12.000000000000
         C           -1.816972292373    -0.462529007940    -0.631347843962    12.000000000000
         C            2.411831707627     0.353497992060    -0.335925843962    12.000000000000
         C           -0.661235292373    -0.366725007940     1.547590156038    12.000000000000
         C           -2.958101292373     0.445271992060    -0.209088843962    12.000000000000
         H            0.435828707627    -1.199397007940    -1.543073843962     1.007825032230
         H            0.093141707627    -2.235390007940    -0.143044843962     1.007825032230
         H           -0.670241292373     1.885920992060     0.149718156038     1.007825032230
         H           -0.016118292373     1.238384992060    -1.368518843962     1.007825032230
         H            2.530663707627    -1.811413007940    -0.472791843962     1.007825032230
         H            2.012724707627    -1.231416007940     1.093415156038     1.007825032230
         H            1.486449707627     1.432777992060     1.306028156038     1.007825032230
         H            1.738408707627     2.407510992060    -0.125517843962     1.007825032230
         H           -1.611925292373    -0.356856007940    -1.699728843962     1.007825032230
         H           -2.061853292373    -1.510152007940    -0.434655843962     1.007825032230
         H            3.417806707627     0.513013992060     0.062420156038     1.007825032230
         H            2.482825707627     0.453718992060    -1.426251843962     1.007825032230
         H            0.308363707627    -0.345674007940     2.036965156038     1.007825032230
         H           -1.274194292373     0.452943992060     1.918519156038     1.007825032230
         H           -1.151885292373    -1.321867007940     1.741156156038     1.007825032230
         H           -3.829494292373     0.161507992060    -0.805564843962     1.007825032230
         H           -3.233635292373     0.321270992060     0.839042156038     1.007825032230
         H           -2.761379292373     1.499165992060    -0.411117843962     1.007825032230

  Basis Set: AUG-CC-PVTZ
    Blend: AUG-CC-PVTZ
  Basis Set: (AUG-CC-PVTZ AUX)
    Blend: AUG-CC-PVTZ-JKFIT
	 Reference Energy          =    -367.7861290421538456 [Eh]
	 Singles Energy            =      -0.0000000000000000 [Eh]
	 Same-Spin Energy          =      -0.3942811611700767 [Eh]
	 Opposite-Spin Energy      =      -1.4101612616124930 [Eh]
	 Correlation Energy        =      -1.8044424227825697 [Eh]
	 Total Energy              =    -369.5905714649364313 [Eh]

	 ================> DF-SCS-MP2 Energies <==================
	-----------------------------------------------------------
	 SCS Same-Spin Scale       =       0.3333333333333333 [-]
	 SCS Opposite-Spin Scale   =       1.2000000000000000 [-]
	 SCS Same-Spin Energy      =      -0.1314270537233589 [Eh]
	 SCS Opposite-Spin Energy  =      -1.6921935139349915 [Eh]
	 SCS Correlation Energy    =      -1.8236205676583503 [Eh]
	 SCS Total Energy          =    -369.6097496098121837 [Eh]
	-----------------------------------------------------------

  Dipole Moment: [D]
     X:    -1.1852      Y:    -0.5353      Z:     0.2365     Total:     1.3218

*** Psi4 exiting successfully. Buy a developer a beer!
