                               Psi4 1.4a3.dev225

  ==> Input File <==

--------------------------------------------------------------------------
#psi4
#
memory 32 gb

molecule  {
1 1
  N       -0.4820890    -0.2204400     0.0611380
  C        0.4931350    -1.2664130    -0.4574980
  C        0.0352210     1.1635170    -0.2825800
  C        1.9231090    -1.0498370     0.0125270
  C        1.4559810     1.4024730     0.2057820
  C       -1.8126550    -0.4655410    -0.6371030
  C        2.4161490     0.3504860    -0.3416810
  C       -0.6627517    -0.3747188     1.5912430
  C       -2.9537840     0.4422600    -0.2148440
  H        0.4401460    -1.2024090    -1.5488290
  H        0.0974590    -2.2384020    -0.1488000
  H       -0.6659240     1.8829090     0.1439630
  H       -0.0118010     1.2353730    -1.3742740
  H        2.5349810    -1.8144250    -0.4785470
  H        2.0170420    -1.2344280     1.0876600
  H        1.4907670     1.4297660     1.3002730
  H        1.7427260     2.4044990    -0.1312730
  H       -1.6076080    -0.3598680    -1.7054840
  H       -2.0575360    -1.5131640    -0.4404110
  H        3.4221240     0.5100020     0.0566650
  H        2.4871430     0.4507070    -1.4320070
  H        0.3126810    -0.3486860     2.0312100
  H       -1.2698770     0.4499320     1.9127640
  H       -1.1475680    -1.3248790     1.7354010
  H       -3.8251770     0.1584960    -0.8113200
  H       -3.2293180     0.3182590     0.8332870
  H       -2.7570620     1.4961540    -0.4168730
units angstrom
no_reorient  #important for SAPT in psi4, default
symmetry c1  #important for SAPT in psi4, default
}

set PROPERTIES_ORIGIN ["COM"]
properties('MP2/aug-cc-pvtz', properties = ['dipole'])
--------------------------------------------------------------------------

    Molecular point group: c1
  Charge       = 1
  Multiplicity = 1
  Basis Set: AUG-CC-PVTZ
    Blend: AUG-CC-PVTZ
  Basis Set: (AUG-CC-PVTZ AUX)
    Blend: AUG-CC-PVTZ-JKFIT

    Orbital Energies [Eh]
    ---------------------

    Doubly Occupied:

       1A    -15.840939     2A    -11.440499     3A    -11.437414
       4A    -11.436403     5A    -11.436234     6A    -11.377627
       7A    -11.377430     8A    -11.374039     9A    -11.365888
      10A     -1.474252    11A     -1.248878    12A     -1.198437
      13A     -1.186295    14A     -1.142495    15A     -1.057101
      16A     -1.028528    17A     -0.985247    18A     -0.925149
      19A     -0.864535    20A     -0.836919    21A     -0.813036
      22A     -0.804242    23A     -0.768188    24A     -0.753107
      25A     -0.745999    26A     -0.729156    27A     -0.728072
      28A     -0.705008    29A     -0.693176    30A     -0.679697
      31A     -0.669692    32A     -0.664601    33A     -0.659760
      34A     -0.617503    35A     -0.614353    36A     -0.611524

  @DF-RHF Final Energy:  -367.79551695094193

   => Energetics <=

    Nuclear Repulsion Energy =            525.0548891636822191
    One-Electron Energy =               -1525.1179680486141024
    Two-Electron Energy =                 632.2675619339898958
    Total Energy =                       -367.7955169509419875
  Basis Set: (AUG-CC-PVTZ AUX)
    Blend: AUG-CC-PVTZ-RI
    Molecular point group: c1

    Geometry (in Angstrom), charge = 1, multiplicity = 1:

       Center              X                  Y                   Z               Mass
    ------------   -----------------  -----------------  -----------------  -----------------
         N           -0.497224027834    -0.217646726668     0.061259138381    14.003074004430
         C            0.477999972166    -1.263619726668    -0.457376861619    12.000000000000
         C            0.020085972166     1.166310273332    -0.282458861619    12.000000000000
         C            1.907973972166    -1.047043726668     0.012648138381    12.000000000000
         C            1.440845972166     1.405266273332     0.205903138381    12.000000000000
         C           -1.827790027834    -0.462747726668    -0.636981861619    12.000000000000
         C            2.401013972166     0.353279273332    -0.341559861619    12.000000000000
         C           -0.677886727834    -0.371925526668     1.591364138381    12.000000000000
         C           -2.968919027834     0.445053273332    -0.214722861619    12.000000000000
         H            0.425010972166    -1.199615726668    -1.548707861619     1.007825032230
         H            0.082323972166    -2.235608726668    -0.148678861619     1.007825032230
         H           -0.681059027834     1.885702273332     0.144084138381     1.007825032230
         H           -0.026936027834     1.238166273332    -1.374152861619     1.007825032230
         H            2.519845972166    -1.811631726668    -0.478425861619     1.007825032230
         H            2.001906972166    -1.231634726668     1.087781138381     1.007825032230
         H            1.475631972166     1.432559273332     1.300394138381     1.007825032230
         H            1.727590972166     2.407292273332    -0.131151861619     1.007825032230
         H           -1.622743027834    -0.357074726668    -1.705362861619     1.007825032230
         H           -2.072671027834    -1.510370726668    -0.440289861619     1.007825032230
         H            3.406988972166     0.512795273332     0.056786138381     1.007825032230
         H            2.472007972166     0.453500273332    -1.431885861619     1.007825032230
         H            0.297545972166    -0.345892726668     2.031331138381     1.007825032230
         H           -1.285012027834     0.452725273332     1.912885138381     1.007825032230
         H           -1.162703027834    -1.322085726668     1.735522138381     1.007825032230
         H           -3.840312027834     0.161289273332    -0.811198861619     1.007825032230
         H           -3.244453027834     0.321052273332     0.833408138381     1.007825032230
         H           -2.772197027834     1.498947273332    -0.416751861619     1.007825032230

  Basis Set: AUG-CC-PVTZ
    Blend: AUG-CC-PVTZ
  Basis Set: (AUG-CC-PVTZ AUX)
    Blend: AUG-CC-PVTZ-JKFIT
	 Reference Energy          =    -367.7955169509419306 [Eh]
	 Singles Energy            =      -0.0000000000000000 [Eh]
	 Same-Spin Energy          =      -0.3934197522751599 [Eh]
	 Opposite-Spin Energy      =      -1.4093164241528542 [Eh]
	 Correlation Energy        =      -1.8027361764280141 [Eh]
	 Total Energy              =    -369.5982531273699578 [Eh]

	 ================> DF-SCS-MP2 Energies <==================
	-----------------------------------------------------------
	 SCS Same-Spin Scale       =       0.3333333333333333 [-]
	 SCS Opposite-Spin Scale   =       1.2000000000000000 [-]
	 SCS Same-Spin Energy      =      -0.1311399174250533 [Eh]
	 SCS Opposite-Spin Energy  =      -1.6911797089834251 [Eh]
	 SCS Correlation Energy    =      -1.8223196264084784 [Eh]
	 SCS Total Energy          =    -369.6178365773504311 [Eh]
	-----------------------------------------------------------

  Dipole Moment: [D]
     X:    -1.5052      Y:    -0.5601      Z:     0.2722     Total:     1.6289

*** Psi4 exiting successfully. Buy a developer a beer!
