                               Psi4 1.3.2 release

  ==> Input File <==

--------------------------------------------------------------------------
#psi4
#
memory 32 gb

molecule  {
1 1
  N       -0.4820890    -0.2204400     0.0611380
  C        0.4702985    -1.2038674    -0.6021367
  C        0.0352210     1.1635170    -0.2825800
  C        1.9231090    -1.0498370     0.0125270
  C        1.4559810     1.4024730     0.2057820
  C       -1.8126550    -0.4655410    -0.6371030
  C        2.4161490     0.3504860    -0.3416810
  C       -0.6569180    -0.3697370     1.5418350
  C       -2.9537840     0.4422600    -0.2148440
  H        0.4401460    -1.2024090    -1.5488290
  H        0.0974590    -2.2384020    -0.1488000
  H       -0.6659240     1.8829090     0.1439630
  H       -0.0118010     1.2353730    -1.3742740
  H        2.5349810    -1.8144250    -0.4785470
  H        2.0170420    -1.2344280     1.0876600
  H        1.4907670     1.4297660     1.3002730
  H        1.7427260     2.4044990    -0.1312730
  H       -1.6076080    -0.3598680    -1.7054840
  H       -2.0575360    -1.5131640    -0.4404110
  H        3.4221240     0.5100020     0.0566650
  H        2.4871430     0.4507070    -1.4320070
  H        0.3126810    -0.3486860     2.0312100
  H       -1.2698770     0.4499320     1.9127640
  H       -1.1475680    -1.3248790     1.7354010
  H       -3.8251770     0.1584960    -0.8113200
  H       -3.2293180     0.3182590     0.8332870
  H       -2.7570620     1.4961540    -0.4168730
units angstrom
no_reorient  #important for SAPT in psi4, default
symmetry c1  #important for SAPT in psi4, default
}

set PROPERTIES_ORIGIN ["COM"]
properties('MP2/aug-cc-pvtz', properties = ['dipole'])
--------------------------------------------------------------------------

    Molecular point group: c1
  Charge       = 1
  Multiplicity = 1
  Basis Set: AUG-CC-PVTZ
    Blend: AUG-CC-PVTZ
  Basis Set: (AUG-CC-PVTZ AUX)
    Blend: AUG-CC-PVTZ-JKFIT

    Orbital Energies [Eh]
    ---------------------

    Doubly Occupied:

       1A    -15.844253     2A    -11.440963     3A    -11.438137
       4A    -11.437262     5A    -11.436908     6A    -11.381790
       7A    -11.377395     8A    -11.373604     9A    -11.364196
      10A     -1.484010    11A     -1.248012    12A     -1.195053
      13A     -1.188516    14A     -1.146886    15A     -1.055657
      16A     -1.032051    17A     -0.984301    18A     -0.936776
      19A     -0.867402    20A     -0.848959    21A     -0.819108
      22A     -0.797184    23A     -0.771366    24A     -0.746934
      25A     -0.742363    26A     -0.730979    27A     -0.719832
      28A     -0.714278    29A     -0.689667    30A     -0.677797
      31A     -0.672938    32A     -0.669742    33A     -0.660706
      34A     -0.619982    35A     -0.608997    36A     -0.596509

  @DF-RHF Final Energy:  -367.76333613290655

   => Energetics <=

    Nuclear Repulsion Energy =            525.9368649516578671
    One-Electron Energy =               -1526.7593728854328674
    Two-Electron Energy =                 633.0591718008683983
    Total Energy =                       -367.7633361329066020
  Basis Set: (AUG-CC-PVTZ AUX)
    Blend: AUG-CC-PVTZ-RI
    Molecular point group: c1

    Geometry (in Angstrom), charge = 1, multiplicity = 1:

       Center              X                  Y                   Z               Mass
    ------------   -----------------  -----------------  -----------------  -----------------
         N           -0.495631805646    -0.223970310113     0.079430584336    14.003074004430
         C            0.456755694354    -1.207397710113    -0.583844115664    12.000000000000
         C            0.021678194354     1.159986689887    -0.264287415664    12.000000000000
         C            1.909566194354    -1.053367310113     0.030819584336    12.000000000000
         C            1.442438194354     1.398942689887     0.224074584336    12.000000000000
         C           -1.826197805646    -0.469071310113    -0.618810415664    12.000000000000
         C            2.402606194354     0.346955689887    -0.323388415664    12.000000000000
         C           -0.670460805646    -0.373267310113     1.560127584336    12.000000000000
         C           -2.967326805646     0.438729689887    -0.196551415664    12.000000000000
         H            0.426603194354    -1.205939310113    -1.530536415664     1.007825032230
         H            0.083916194354    -2.241932310113    -0.130507415664     1.007825032230
         H           -0.679466805646     1.879378689887     0.162255584336     1.007825032230
         H           -0.025343805646     1.231842689887    -1.355981415664     1.007825032230
         H            2.521438194354    -1.817955310113    -0.460254415664     1.007825032230
         H            2.003499194354    -1.237958310113     1.105952584336     1.007825032230
         H            1.477224194354     1.426235689887     1.318565584336     1.007825032230
         H            1.729183194354     2.400968689887    -0.112980415664     1.007825032230
         H           -1.621150805646    -0.363398310113    -1.687191415664     1.007825032230
         H           -2.071078805646    -1.516694310113    -0.422118415664     1.007825032230
         H            3.408581194354     0.506471689887     0.074957584336     1.007825032230
         H            2.473600194354     0.447176689887    -1.413714415664     1.007825032230
         H            0.299138194354    -0.352216310113     2.049502584336     1.007825032230
         H           -1.283419805646     0.446401689887     1.931056584336     1.007825032230
         H           -1.161110805646    -1.328409310113     1.753693584336     1.007825032230
         H           -3.838719805646     0.154965689887    -0.793027415664     1.007825032230
         H           -3.242860805646     0.314728689887     0.851579584336     1.007825032230
         H           -2.770604805646     1.492623689887    -0.398580415664     1.007825032230

  Basis Set: AUG-CC-PVTZ
    Blend: AUG-CC-PVTZ
  Basis Set: (AUG-CC-PVTZ AUX)
    Blend: AUG-CC-PVTZ-JKFIT
	 Reference Energy          =    -367.7633361329065451 [Eh]
	 Singles Energy            =      -0.0000000000000000 [Eh]
	 Same-Spin Energy          =      -0.3939311974365519 [Eh]
	 Opposite-Spin Energy      =      -1.4106266854621867 [Eh]
	 Correlation Energy        =      -1.8045578828987385 [Eh]
	 Total Energy              =    -369.5678940158052797 [Eh]

	 ================> DF-SCS-MP2 Energies <==================
	-----------------------------------------------------------
	 SCS Same-Spin Scale       =       0.3333333333333333 [-]
	 SCS Opposite-Spin Scale   =       1.2000000000000000 [-]
	 SCS Same-Spin Energy      =      -0.1313103991455173 [Eh]
	 SCS Opposite-Spin Energy  =      -1.6927520225546240 [Eh]
	 SCS Correlation Energy    =      -1.8240624217001413 [Eh]
	 SCS Total Energy          =    -369.5873985546066933 [Eh]
	-----------------------------------------------------------

  Dipole Moment: [D]
     X:    -1.4983      Y:    -0.5364      Z:     0.2574     Total:     1.6121

*** Psi4 exiting successfully. Buy a developer a beer!
