                               Psi4 1.4a3.dev225

  ==> Input File <==

--------------------------------------------------------------------------
#psi4
#
memory 32 gb

molecule  {
1 1
  N       -0.4820890    -0.2204400     0.0611380
  C        0.4931350    -1.2664130    -0.4574980
  C        0.0352210     1.1635170    -0.2825800
  C        1.9231090    -1.0498370     0.0125270
  C        1.4559810     1.4024730     0.2057820
  C       -1.8126550    -0.4655410    -0.6371030
  C        2.4161490     0.3504860    -0.3416810
  C       -0.6592515    -0.3717297     1.5615982
  C       -2.9537840     0.4422600    -0.2148440
  H        0.4401460    -1.2024090    -1.5488290
  H        0.0974590    -2.2384020    -0.1488000
  H       -0.6659240     1.8829090     0.1439630
  H       -0.0118010     1.2353730    -1.3742740
  H        2.5349810    -1.8144250    -0.4785470
  H        2.0170420    -1.2344280     1.0876600
  H        1.4907670     1.4297660     1.3002730
  H        1.7427260     2.4044990    -0.1312730
  H       -1.6076080    -0.3598680    -1.7054840
  H       -2.0575360    -1.5131640    -0.4404110
  H        3.4221240     0.5100020     0.0566650
  H        2.4871430     0.4507070    -1.4320070
  H        0.3126810    -0.3486860     2.0312100
  H       -1.2698770     0.4499320     1.9127640
  H       -1.1475680    -1.3248790     1.7354010
  H       -3.8251770     0.1584960    -0.8113200
  H       -3.2293180     0.3182590     0.8332870
  H       -2.7570620     1.4961540    -0.4168730
units angstrom
no_reorient  #important for SAPT in psi4, default
symmetry c1  #important for SAPT in psi4, default
}

set PROPERTIES_ORIGIN ["COM"]
properties('MP2/aug-cc-pvtz', properties = ['dipole'])
--------------------------------------------------------------------------

    Molecular point group: c1
  Charge       = 1
  Multiplicity = 1
  Basis Set: AUG-CC-PVTZ
    Blend: AUG-CC-PVTZ
  Basis Set: (AUG-CC-PVTZ AUX)
    Blend: AUG-CC-PVTZ-JKFIT

    Orbital Energies [Eh]
    ---------------------

    Doubly Occupied:

       1A    -15.842332     2A    -11.441196     3A    -11.438142
       4A    -11.436965     5A    -11.435170     6A    -11.377886
       7A    -11.377708     8A    -11.374267     9A    -11.366149
      10A     -1.479620    11A     -1.249720    12A     -1.199334
      13A     -1.187694    14A     -1.141667    15A     -1.057707
      16A     -1.029344    17A     -0.985840    18A     -0.925686
      19A     -0.865987    20A     -0.837954    21A     -0.814985
      22A     -0.804092    23A     -0.769928    24A     -0.753484
      25A     -0.744229    26A     -0.725721    27A     -0.723170
      28A     -0.705250    29A     -0.696189    30A     -0.680024
      31A     -0.670916    32A     -0.664603    33A     -0.660702
      34A     -0.617633    35A     -0.614890    36A     -0.611989

  @DF-RHF Final Energy:  -367.79706400920321

   => Energetics <=

    Nuclear Repulsion Energy =            525.6931435160611272
    One-Electron Energy =               -1526.3640699590664553
    Two-Electron Energy =                 632.8738624338020600
    Total Energy =                       -367.7970640092032681
  Basis Set: (AUG-CC-PVTZ AUX)
    Blend: AUG-CC-PVTZ-RI
    Molecular point group: c1

    Geometry (in Angstrom), charge = 1, multiplicity = 1:

       Center              X                  Y                   Z               Mass
    ------------   -----------------  -----------------  -----------------  -----------------
         N           -0.497551803030    -0.217926640056     0.064035216929    14.003074004430
         C            0.477672196970    -1.263899640056    -0.454600783071    12.000000000000
         C            0.019758196970     1.166030359944    -0.279682783071    12.000000000000
         C            1.907646196970    -1.047323640056     0.015424216929    12.000000000000
         C            1.440518196970     1.404986359944     0.208679216929    12.000000000000
         C           -1.828117803030    -0.463027640056    -0.634205783071    12.000000000000
         C            2.400686196970     0.352999359944    -0.338783783071    12.000000000000
         C           -0.674714303030    -0.369216340056     1.564495416929    12.000000000000
         C           -2.969246803030     0.444773359944    -0.211946783071    12.000000000000
         H            0.424683196970    -1.199895640056    -1.545931783071     1.007825032230
         H            0.081996196970    -2.235888640056    -0.145902783071     1.007825032230
         H           -0.681386803030     1.885422359944     0.146860216929     1.007825032230
         H           -0.027263803030     1.237886359944    -1.371376783071     1.007825032230
         H            2.519518196970    -1.811911640056    -0.475649783071     1.007825032230
         H            2.001579196970    -1.231914640056     1.090557216929     1.007825032230
         H            1.475304196970     1.432279359944     1.303170216929     1.007825032230
         H            1.727263196970     2.407012359944    -0.128375783071     1.007825032230
         H           -1.623070803030    -0.357354640056    -1.702586783071     1.007825032230
         H           -2.072998803030    -1.510650640056    -0.437513783071     1.007825032230
         H            3.406661196970     0.512515359944     0.059562216929     1.007825032230
         H            2.471680196970     0.453220359944    -1.429109783071     1.007825032230
         H            0.297218196970    -0.346172640056     2.034107216929     1.007825032230
         H           -1.285339803030     0.452445359944     1.915661216929     1.007825032230
         H           -1.163030803030    -1.322365640056     1.738298216929     1.007825032230
         H           -3.840639803030     0.161009359944    -0.808422783071     1.007825032230
         H           -3.244780803030     0.320772359944     0.836184216929     1.007825032230
         H           -2.772524803030     1.498667359944    -0.413975783071     1.007825032230

  Basis Set: AUG-CC-PVTZ
    Blend: AUG-CC-PVTZ
  Basis Set: (AUG-CC-PVTZ AUX)
    Blend: AUG-CC-PVTZ-JKFIT
	 Reference Energy          =    -367.7970640092032113 [Eh]
	 Singles Energy            =      -0.0000000000000000 [Eh]
	 Same-Spin Energy          =      -0.3935945266399604 [Eh]
	 Opposite-Spin Energy      =      -1.4092231365521135 [Eh]
	 Correlation Energy        =      -1.8028176631920738 [Eh]
	 Total Energy              =    -369.5998816723952700 [Eh]

	 ================> DF-SCS-MP2 Energies <==================
	-----------------------------------------------------------
	 SCS Same-Spin Scale       =       0.3333333333333333 [-]
	 SCS Opposite-Spin Scale   =       1.2000000000000000 [-]
	 SCS Same-Spin Energy      =      -0.1311981755466535 [Eh]
	 SCS Opposite-Spin Energy  =      -1.6910677638625362 [Eh]
	 SCS Correlation Energy    =      -1.8222659394091896 [Eh]
	 SCS Total Energy          =    -369.6193299486124033 [Eh]
	-----------------------------------------------------------

  Dipole Moment: [D]
     X:    -1.4967      Y:    -0.5543      Z:     0.2359     Total:     1.6134

*** Psi4 exiting successfully. Buy a developer a beer!
