                               Psi4 1.3.2 release

  ==> Input File <==

--------------------------------------------------------------------------
#psi4
#
memory 32 gb

molecule  {
1 1
  N       -0.4554024    -0.2497844     0.1596307
  C        0.4931350    -1.2664130    -0.4574980
  C        0.0352210     1.1635170    -0.2825800
  C        1.9231090    -1.0498370     0.0125270
  C        1.4559810     1.4024730     0.2057820
  C       -1.8126550    -0.4655410    -0.6371030
  C        2.4161490     0.3504860    -0.3416810
  C       -0.6569180    -0.3697370     1.5418350
  C       -2.9537840     0.4422600    -0.2148440
  H        0.4401460    -1.2024090    -1.5488290
  H        0.0974590    -2.2384020    -0.1488000
  H       -0.6659240     1.8829090     0.1439630
  H       -0.0118010     1.2353730    -1.3742740
  H        2.5349810    -1.8144250    -0.4785470
  H        2.0170420    -1.2344280     1.0876600
  H        1.4907670     1.4297660     1.3002730
  H        1.7427260     2.4044990    -0.1312730
  H       -1.6076080    -0.3598680    -1.7054840
  H       -2.0575360    -1.5131640    -0.4404110
  H        3.4221240     0.5100020     0.0566650
  H        2.4871430     0.4507070    -1.4320070
  H        0.3126810    -0.3486860     2.0312100
  H       -1.2698770     0.4499320     1.9127640
  H       -1.1475680    -1.3248790     1.7354010
  H       -3.8251770     0.1584960    -0.8113200
  H       -3.2293180     0.3182590     0.8332870
  H       -2.7570620     1.4961540    -0.4168730
units angstrom
no_reorient  #important for SAPT in psi4, default
symmetry c1  #important for SAPT in psi4, default
}

set PROPERTIES_ORIGIN ["COM"]
properties('MP2/aug-cc-pvtz', properties = ['dipole'])
--------------------------------------------------------------------------

    Molecular point group: c1
  Charge       = 1
  Multiplicity = 1
  Basis Set: AUG-CC-PVTZ
    Blend: AUG-CC-PVTZ
  Basis Set: (AUG-CC-PVTZ AUX)
    Blend: AUG-CC-PVTZ-JKFIT

    Orbital Energies [Eh]
    ---------------------

    Doubly Occupied:

       1A    -15.839864     2A    -11.447153     3A    -11.441208
       4A    -11.438734     5A    -11.426048     6A    -11.376684
       7A    -11.376233     8A    -11.375613     9A    -11.365765
      10A     -1.485640    11A     -1.249990    12A     -1.199453
      13A     -1.194449    14A     -1.143207    15A     -1.051104
      16A     -1.023778    17A     -0.987094    18A     -0.926175
      19A     -0.868913    20A     -0.844721    21A     -0.815570
      22A     -0.804577    23A     -0.779495    24A     -0.750597
      25A     -0.743385    26A     -0.720629    27A     -0.715224
      28A     -0.708294    29A     -0.702913    30A     -0.675418
      31A     -0.671843    32A     -0.665396    33A     -0.659855
      34A     -0.617487    35A     -0.609620    36A     -0.607269

  @DF-RHF Final Energy:  -367.78475496344163

   => Energetics <=

    Nuclear Repulsion Energy =            526.1263902209252592
    One-Electron Energy =               -1527.2034974020584741
    Two-Electron Energy =                 633.2923522176915867
    Total Energy =                       -367.7847549634416282
  Basis Set: (AUG-CC-PVTZ AUX)
    Blend: AUG-CC-PVTZ-RI
    Molecular point group: c1

    Geometry (in Angstrom), charge = 1, multiplicity = 1:

       Center              X                  Y                   Z               Mass
    ------------   -----------------  -----------------  -----------------  -----------------
         N           -0.473999931703    -0.244251002968     0.153615733455    14.003074004430
         C            0.474537468297    -1.260879602968    -0.463512966545    12.000000000000
         C            0.016623468297     1.169050397032    -0.288594966545    12.000000000000
         C            1.904511468297    -1.044303602968     0.006512033455    12.000000000000
         C            1.437383468297     1.408006397032     0.199767033455    12.000000000000
         C           -1.831252531703    -0.460007602968    -0.643117966545    12.000000000000
         C            2.397551468297     0.356019397032    -0.347695966545    12.000000000000
         C           -0.675515531703    -0.364203602968     1.535820033455    12.000000000000
         C           -2.972381531703     0.447793397032    -0.220858966545    12.000000000000
         H            0.421548468297    -1.196875602968    -1.554843966545     1.007825032230
         H            0.078861468297    -2.232868602968    -0.154814966545     1.007825032230
         H           -0.684521531703     1.888442397032     0.137948033455     1.007825032230
         H           -0.030398531703     1.240906397032    -1.380288966545     1.007825032230
         H            2.516383468297    -1.808891602968    -0.484561966545     1.007825032230
         H            1.998444468297    -1.228894602968     1.081645033455     1.007825032230
         H            1.472169468297     1.435299397032     1.294258033455     1.007825032230
         H            1.724128468297     2.410032397032    -0.137287966545     1.007825032230
         H           -1.626205531703    -0.354334602968    -1.711498966545     1.007825032230
         H           -2.076133531703    -1.507630602968    -0.446425966545     1.007825032230
         H            3.403526468297     0.515535397032     0.050650033455     1.007825032230
         H            2.468545468297     0.456240397032    -1.438021966545     1.007825032230
         H            0.294083468297    -0.343152602968     2.025195033455     1.007825032230
         H           -1.288474531703     0.455465397032     1.906749033455     1.007825032230
         H           -1.166165531703    -1.319345602968     1.729386033455     1.007825032230
         H           -3.843774531703     0.164029397032    -0.817334966545     1.007825032230
         H           -3.247915531703     0.323792397032     0.827272033455     1.007825032230
         H           -2.775659531703     1.501687397032    -0.422887966545     1.007825032230

  Basis Set: AUG-CC-PVTZ
    Blend: AUG-CC-PVTZ
  Basis Set: (AUG-CC-PVTZ AUX)
    Blend: AUG-CC-PVTZ-JKFIT
	 Reference Energy          =    -367.7847549634416282 [Eh]
	 Singles Energy            =      -0.0000000000000000 [Eh]
	 Same-Spin Energy          =      -0.3943877786363436 [Eh]
	 Opposite-Spin Energy      =      -1.4102912568545585 [Eh]
	 Correlation Energy        =      -1.8046790354909019 [Eh]
	 Total Energy              =    -369.5894339989325204 [Eh]

	 ================> DF-SCS-MP2 Energies <==================
	-----------------------------------------------------------
	 SCS Same-Spin Scale       =       0.3333333333333333 [-]
	 SCS Opposite-Spin Scale   =       1.2000000000000000 [-]
	 SCS Same-Spin Energy      =      -0.1314625928787812 [Eh]
	 SCS Opposite-Spin Energy  =      -1.6923495082254700 [Eh]
	 SCS Correlation Energy    =      -1.8238121011042512 [Eh]
	 SCS Total Energy          =    -369.6085670645458663 [Eh]
	-----------------------------------------------------------

  Dipole Moment: [D]
     X:    -1.5762      Y:    -0.4858      Z:     0.0097     Total:     1.6494

*** Psi4 exiting successfully. Buy a developer a beer!
