                               Psi4 1.3.2 release

  ==> Input File <==

--------------------------------------------------------------------------
#psi4
#
memory 32 gb

molecule  {
1 1
  N       -0.3278527    -0.2124064     0.0884660
  C        0.4931350    -1.2664130    -0.4574980
  C        0.0352210     1.1635170    -0.2825800
  C        1.9231090    -1.0498370     0.0125270
  C        1.4559810     1.4024730     0.2057820
  C       -1.8126550    -0.4655410    -0.6371030
  C        2.4161490     0.3504860    -0.3416810
  C       -0.6569180    -0.3697370     1.5418350
  C       -2.9537840     0.4422600    -0.2148440
  H        0.4401460    -1.2024090    -1.5488290
  H        0.0974590    -2.2384020    -0.1488000
  H       -0.6659240     1.8829090     0.1439630
  H       -0.0118010     1.2353730    -1.3742740
  H        2.5349810    -1.8144250    -0.4785470
  H        2.0170420    -1.2344280     1.0876600
  H        1.4907670     1.4297660     1.3002730
  H        1.7427260     2.4044990    -0.1312730
  H       -1.6076080    -0.3598680    -1.7054840
  H       -2.0575360    -1.5131640    -0.4404110
  H        3.4221240     0.5100020     0.0566650
  H        2.4871430     0.4507070    -1.4320070
  H        0.3126810    -0.3486860     2.0312100
  H       -1.2698770     0.4499320     1.9127640
  H       -1.1475680    -1.3248790     1.7354010
  H       -3.8251770     0.1584960    -0.8113200
  H       -3.2293180     0.3182590     0.8332870
  H       -2.7570620     1.4961540    -0.4168730
units angstrom
no_reorient  #important for SAPT in psi4, default
symmetry c1  #important for SAPT in psi4, default
}

set PROPERTIES_ORIGIN ["COM"]
properties('MP2/aug-cc-pvtz', properties = ['dipole'])
--------------------------------------------------------------------------

    Molecular point group: c1
  Charge       = 1
  Multiplicity = 1
  Basis Set: AUG-CC-PVTZ
    Blend: AUG-CC-PVTZ
  Basis Set: (AUG-CC-PVTZ AUX)
    Blend: AUG-CC-PVTZ-JKFIT

    Orbital Energies [Eh]
    ---------------------

    Doubly Occupied:

       1A    -15.839885     2A    -11.454043     3A    -11.435353
       4A    -11.433943     5A    -11.431821     6A    -11.380124
       7A    -11.372182     8A    -11.371773     9A    -11.363562
      10A     -1.487170    11A     -1.242485    12A     -1.208217
      13A     -1.190161    14A     -1.144414    15A     -1.044743
      16A     -1.027529    17A     -0.994060    18A     -0.925547
      19A     -0.866394    20A     -0.839863    21A     -0.814534
      22A     -0.803948    23A     -0.773198    24A     -0.751599
      25A     -0.744168    26A     -0.732707    27A     -0.716914
      28A     -0.708815    29A     -0.699590    30A     -0.681945
      31A     -0.667495    32A     -0.663512    33A     -0.662292
      34A     -0.613616    35A     -0.612396    36A     -0.592105

  @DF-RHF Final Energy:  -367.77477455947758

   => Energetics <=

    Nuclear Repulsion Energy =            526.9429986146769807
    One-Electron Energy =               -1528.8513404135906057
    Two-Electron Energy =                 634.1335672394360472
    Total Energy =                       -367.7747745594775779
  Basis Set: (AUG-CC-PVTZ AUX)
    Blend: AUG-CC-PVTZ-RI
    Molecular point group: c1

    Geometry (in Angstrom), charge = 1, multiplicity = 1:

       Center              X                  Y                   Z               Mass
    ------------   -----------------  -----------------  -----------------  -----------------
         N           -0.360388371136    -0.210957526692     0.090227637487    14.003074004430
         C            0.460599328864    -1.264964126692    -0.455736362513    12.000000000000
         C            0.002685328864     1.164965873308    -0.280818362513    12.000000000000
         C            1.890573328864    -1.048388126692     0.014288637487    12.000000000000
         C            1.423445328864     1.403921873308     0.207543637487    12.000000000000
         C           -1.845190671136    -0.464092126692    -0.635341362513    12.000000000000
         C            2.383613328864     0.351934873308    -0.339919362513    12.000000000000
         C           -0.689453671136    -0.368288126692     1.543596637487    12.000000000000
         C           -2.986319671136     0.443708873308    -0.213082362513    12.000000000000
         H            0.407610328864    -1.200960126692    -1.547067362513     1.007825032230
         H            0.064923328864    -2.236953126692    -0.147038362513     1.007825032230
         H           -0.698459671136     1.884357873308     0.145724637487     1.007825032230
         H           -0.044336671136     1.236821873308    -1.372512362513     1.007825032230
         H            2.502445328864    -1.812976126692    -0.476785362513     1.007825032230
         H            1.984506328864    -1.232979126692     1.089421637487     1.007825032230
         H            1.458231328864     1.431214873308     1.302034637487     1.007825032230
         H            1.710190328864     2.405947873308    -0.129511362513     1.007825032230
         H           -1.640143671136    -0.358419126692    -1.703722362513     1.007825032230
         H           -2.090071671136    -1.511715126692    -0.438649362513     1.007825032230
         H            3.389588328864     0.511450873308     0.058426637487     1.007825032230
         H            2.454607328864     0.452155873308    -1.430245362513     1.007825032230
         H            0.280145328864    -0.347237126692     2.032971637487     1.007825032230
         H           -1.302412671136     0.451380873308     1.914525637487     1.007825032230
         H           -1.180103671136    -1.323430126692     1.737162637487     1.007825032230
         H           -3.857712671136     0.159944873308    -0.809558362513     1.007825032230
         H           -3.261853671136     0.319707873308     0.835048637487     1.007825032230
         H           -2.789597671136     1.497602873308    -0.415111362513     1.007825032230

  Basis Set: AUG-CC-PVTZ
    Blend: AUG-CC-PVTZ
  Basis Set: (AUG-CC-PVTZ AUX)
    Blend: AUG-CC-PVTZ-JKFIT
	 Reference Energy          =    -367.7747745594775779 [Eh]
	 Singles Energy            =      -0.0000000000000000 [Eh]
	 Same-Spin Energy          =      -0.3951244043523677 [Eh]
	 Opposite-Spin Energy      =      -1.4118496580017914 [Eh]
	 Correlation Energy        =      -1.8069740623541590 [Eh]
	 Total Energy              =    -369.5817486218317640 [Eh]

	 ================> DF-SCS-MP2 Energies <==================
	-----------------------------------------------------------
	 SCS Same-Spin Scale       =       0.3333333333333333 [-]
	 SCS Opposite-Spin Scale   =       1.2000000000000000 [-]
	 SCS Same-Spin Energy      =      -0.1317081347841226 [Eh]
	 SCS Opposite-Spin Energy  =      -1.6942195896021497 [Eh]
	 SCS Correlation Energy    =      -1.8259277243862724 [Eh]
	 SCS Total Energy          =    -369.6007022838638250 [Eh]
	-----------------------------------------------------------

  Dipole Moment: [D]
     X:    -1.9273      Y:    -0.5592      Z:     0.1566     Total:     2.0129

*** Psi4 exiting successfully. Buy a developer a beer!
