                               Psi4 1.3.2 release

  ==> Input File <==

--------------------------------------------------------------------------
#psi4
#
memory 32 gb

molecule  {
1 1
  N       -0.4820890    -0.2204400     0.0611380
  C        0.4931350    -1.2664130    -0.4574980
  C        0.0352210     1.1635170    -0.2825800
  C        1.9231090    -1.0498370     0.0125270
  C        1.4559810     1.4024730     0.2057820
  C       -1.8126550    -0.4655410    -0.6371030
  C        2.4161490     0.3504860    -0.3416810
  C       -0.6335832    -0.3498100     1.3442030
  C       -2.9537840     0.4422600    -0.2148440
  H        0.4401460    -1.2024090    -1.5488290
  H        0.0974590    -2.2384020    -0.1488000
  H       -0.6659240     1.8829090     0.1439630
  H       -0.0118010     1.2353730    -1.3742740
  H        2.5349810    -1.8144250    -0.4785470
  H        2.0170420    -1.2344280     1.0876600
  H        1.4907670     1.4297660     1.3002730
  H        1.7427260     2.4044990    -0.1312730
  H       -1.6076080    -0.3598680    -1.7054840
  H       -2.0575360    -1.5131640    -0.4404110
  H        3.4221240     0.5100020     0.0566650
  H        2.4871430     0.4507070    -1.4320070
  H        0.3126810    -0.3486860     2.0312100
  H       -1.2698770     0.4499320     1.9127640
  H       -1.1475680    -1.3248790     1.7354010
  H       -3.8251770     0.1584960    -0.8113200
  H       -3.2293180     0.3182590     0.8332870
  H       -2.7570620     1.4961540    -0.4168730
units angstrom
no_reorient  #important for SAPT in psi4, default
symmetry c1  #important for SAPT in psi4, default
}

set PROPERTIES_ORIGIN ["COM"]
properties('MP2/aug-cc-pvtz', properties = ['dipole'])
--------------------------------------------------------------------------

    Molecular point group: c1
  Charge       = 1
  Multiplicity = 1
  Basis Set: AUG-CC-PVTZ
    Blend: AUG-CC-PVTZ
  Basis Set: (AUG-CC-PVTZ AUX)
    Blend: AUG-CC-PVTZ-JKFIT

    Orbital Energies [Eh]
    ---------------------

    Doubly Occupied:

       1A    -15.845204     2A    -11.445971     3A    -11.443185
       4A    -11.442049     5A    -11.435654     6A    -11.379548
       7A    -11.379480     8A    -11.375670     9A    -11.367777
      10A     -1.535250    11A     -1.257117    12A     -1.206807
      13A     -1.201895    14A     -1.141745    15A     -1.061806
      16A     -1.035403    17A     -0.987656    18A     -0.928086
      19A     -0.880466    20A     -0.851057    21A     -0.835023
      22A     -0.805695    23A     -0.782972    24A     -0.758005
      25A     -0.745495    26A     -0.720654    27A     -0.711068
      28A     -0.695222    29A     -0.689131    30A     -0.672973
      31A     -0.665086    32A     -0.659320    33A     -0.647897
      34A     -0.618766    35A     -0.614293    36A     -0.613128

  @DF-RHF Final Energy:  -367.75121017695227

   => Energetics <=

    Nuclear Repulsion Energy =            530.7556789951948986
    One-Electron Energy =               -1536.1406708802062440
    Two-Electron Energy =                 637.6337817080591321
    Total Energy =                       -367.7512101769522133
  Basis Set: (AUG-CC-PVTZ AUX)
    Blend: AUG-CC-PVTZ-RI
    Molecular point group: c1

    Geometry (in Angstrom), charge = 1, multiplicity = 1:

       Center              X                  Y                   Z               Mass
    ------------   -----------------  -----------------  -----------------  -----------------
         N           -0.499955503408    -0.219979303893     0.084393126275    14.003074004430
         C            0.475268496592    -1.265952303893    -0.434242873725    12.000000000000
         C            0.017354496592     1.163977696107    -0.259324873725    12.000000000000
         C            1.905242496592    -1.049376303893     0.035782126275    12.000000000000
         C            1.438114496592     1.402933696107     0.229037126275    12.000000000000
         C           -1.830521503408    -0.465080303893    -0.613847873725    12.000000000000
         C            2.398282496592     0.350946696107    -0.318425873725    12.000000000000
         C           -0.651449703408    -0.349349303893     1.367458126275    12.000000000000
         C           -2.971650503408     0.442720696107    -0.191588873725    12.000000000000
         H            0.422279496592    -1.201948303893    -1.525573873725     1.007825032230
         H            0.079592496592    -2.237941303893    -0.125544873725     1.007825032230
         H           -0.683790503408     1.883369696107     0.167218126275     1.007825032230
         H           -0.029667503408     1.235833696107    -1.351018873725     1.007825032230
         H            2.517114496592    -1.813964303893    -0.455291873725     1.007825032230
         H            1.999175496592    -1.233967303893     1.110915126275     1.007825032230
         H            1.472900496592     1.430226696107     1.323528126275     1.007825032230
         H            1.724859496592     2.404959696107    -0.108017873725     1.007825032230
         H           -1.625474503408    -0.359407303893    -1.682228873725     1.007825032230
         H           -2.075402503408    -1.512703303893    -0.417155873725     1.007825032230
         H            3.404257496592     0.510462696107     0.079920126275     1.007825032230
         H            2.469276496592     0.451167696107    -1.408751873725     1.007825032230
         H            0.294814496592    -0.348225303893     2.054465126275     1.007825032230
         H           -1.287743503408     0.450392696107     1.936019126275     1.007825032230
         H           -1.165434503408    -1.324418303893     1.758656126275     1.007825032230
         H           -3.843043503408     0.158956696107    -0.788064873725     1.007825032230
         H           -3.247184503408     0.318719696107     0.856542126275     1.007825032230
         H           -2.774928503408     1.496614696107    -0.393617873725     1.007825032230

  Basis Set: AUG-CC-PVTZ
    Blend: AUG-CC-PVTZ
  Basis Set: (AUG-CC-PVTZ AUX)
    Blend: AUG-CC-PVTZ-JKFIT
	 Reference Energy          =    -367.7512101769522701 [Eh]
	 Singles Energy            =      -0.0000000000000000 [Eh]
	 Same-Spin Energy          =      -0.3970668768697395 [Eh]
	 Opposite-Spin Energy      =      -1.4120411457234874 [Eh]
	 Correlation Energy        =      -1.8091080225932270 [Eh]
	 Total Energy              =    -369.5603181995455202 [Eh]

	 ================> DF-SCS-MP2 Energies <==================
	-----------------------------------------------------------
	 SCS Same-Spin Scale       =       0.3333333333333333 [-]
	 SCS Opposite-Spin Scale   =       1.2000000000000000 [-]
	 SCS Same-Spin Energy      =      -0.1323556256232465 [Eh]
	 SCS Opposite-Spin Energy  =      -1.6944493748681848 [Eh]
	 SCS Correlation Energy    =      -1.8268050004914314 [Eh]
	 SCS Total Energy          =    -369.5780151774437172 [Eh]
	-----------------------------------------------------------

  Dipole Moment: [D]
     X:    -1.4341      Y:    -0.5135      Z:     0.0103     Total:     1.5233

*** Psi4 exiting successfully. Buy a developer a beer!
