                               Psi4 1.3.2 release

  ==> Input File <==

--------------------------------------------------------------------------
#psi4
#
memory 32 gb

molecule  {
1 1
  N       -0.6382407    -0.2301093     0.0500329
  C        0.4931350    -1.2664130    -0.4574980
  C        0.0352210     1.1635170    -0.2825800
  C        1.9231090    -1.0498370     0.0125270
  C        1.4559810     1.4024730     0.2057820
  C       -1.8126550    -0.4655410    -0.6371030
  C        2.4161490     0.3504860    -0.3416810
  C       -0.6569180    -0.3697370     1.5418350
  C       -2.9537840     0.4422600    -0.2148440
  H        0.4401460    -1.2024090    -1.5488290
  H        0.0974590    -2.2384020    -0.1488000
  H       -0.6659240     1.8829090     0.1439630
  H       -0.0118010     1.2353730    -1.3742740
  H        2.5349810    -1.8144250    -0.4785470
  H        2.0170420    -1.2344280     1.0876600
  H        1.4907670     1.4297660     1.3002730
  H        1.7427260     2.4044990    -0.1312730
  H       -1.6076080    -0.3598680    -1.7054840
  H       -2.0575360    -1.5131640    -0.4404110
  H        3.4221240     0.5100020     0.0566650
  H        2.4871430     0.4507070    -1.4320070
  H        0.3126810    -0.3486860     2.0312100
  H       -1.2698770     0.4499320     1.9127640
  H       -1.1475680    -1.3248790     1.7354010
  H       -3.8251770     0.1584960    -0.8113200
  H       -3.2293180     0.3182590     0.8332870
  H       -2.7570620     1.4961540    -0.4168730
units angstrom
no_reorient  #important for SAPT in psi4, default
symmetry c1  #important for SAPT in psi4, default
}

set PROPERTIES_ORIGIN ["COM"]
properties('MP2/aug-cc-pvtz', properties = ['dipole'])
--------------------------------------------------------------------------

    Molecular point group: c1
  Charge       = 1
  Multiplicity = 1
  Basis Set: AUG-CC-PVTZ
    Blend: AUG-CC-PVTZ
  Basis Set: (AUG-CC-PVTZ AUX)
    Blend: AUG-CC-PVTZ-JKFIT

    Orbital Energies [Eh]
    ---------------------

    Doubly Occupied:

       1A    -15.839553     2A    -11.446788     3A    -11.443036
       4A    -11.434943     5A    -11.428142     6A    -11.384228
       7A    -11.383599     8A    -11.369259     9A    -11.368598
      10A     -1.487872    11A     -1.259109    12A     -1.193908
      13A     -1.190316    14A     -1.135685    15A     -1.073165
      16A     -1.028166    17A     -0.977527    18A     -0.929431
      19A     -0.867533    20A     -0.844055    21A     -0.817902
      22A     -0.806894    23A     -0.769294    24A     -0.759371
      25A     -0.742611    26A     -0.732916    27A     -0.718839
      28A     -0.702221    29A     -0.693856    30A     -0.678509
      31A     -0.668993    32A     -0.656291    33A     -0.650565
      34A     -0.626824    35A     -0.621157    36A     -0.604428

  @DF-RHF Final Energy:  -367.77151395975568

   => Energetics <=

    Nuclear Repulsion Energy =            525.4159780489327431
    One-Electron Energy =               -1525.7038146121778937
    Two-Electron Energy =                 632.5163226034894706
    Total Energy =                       -367.7715139597556799
  Basis Set: (AUG-CC-PVTZ AUX)
    Blend: AUG-CC-PVTZ-RI
    Molecular point group: c1

    Geometry (in Angstrom), charge = 1, multiplicity = 1:

       Center              X                  Y                   Z               Mass
    ------------   -----------------  -----------------  -----------------  -----------------
         N           -0.636858367234    -0.226725922036     0.055994358471    14.003074004430
         C            0.494517332766    -1.263029622036    -0.451536541529    12.000000000000
         C            0.036603332766     1.166900377964    -0.276618541529    12.000000000000
         C            1.924491332766    -1.046453622036     0.018488458471    12.000000000000
         C            1.457363332766     1.405856377964     0.211743458471    12.000000000000
         C           -1.811272667234    -0.462157622036    -0.631141541529    12.000000000000
         C            2.417531332766     0.353869377964    -0.335719541529    12.000000000000
         C           -0.655535667234    -0.366353622036     1.547796458471    12.000000000000
         C           -2.952401667234     0.445643377964    -0.208882541529    12.000000000000
         H            0.441528332766    -1.199025622036    -1.542867541529     1.007825032230
         H            0.098841332766    -2.235018622036    -0.142838541529     1.007825032230
         H           -0.664541667234     1.886292377964     0.149924458471     1.007825032230
         H           -0.010418667234     1.238756377964    -1.368312541529     1.007825032230
         H            2.536363332766    -1.811041622036    -0.472585541529     1.007825032230
         H            2.018424332766    -1.231044622036     1.093621458471     1.007825032230
         H            1.492149332766     1.433149377964     1.306234458471     1.007825032230
         H            1.744108332766     2.407882377964    -0.125311541529     1.007825032230
         H           -1.606225667234    -0.356484622036    -1.699522541529     1.007825032230
         H           -2.056153667234    -1.509780622036    -0.434449541529     1.007825032230
         H            3.423506332766     0.513385377964     0.062626458471     1.007825032230
         H            2.488525332766     0.454090377964    -1.426045541529     1.007825032230
         H            0.314063332766    -0.345302622036     2.037171458471     1.007825032230
         H           -1.268494667234     0.453315377964     1.918725458471     1.007825032230
         H           -1.146185667234    -1.321495622036     1.741362458471     1.007825032230
         H           -3.823794667234     0.161879377964    -0.805358541529     1.007825032230
         H           -3.227935667234     0.321642377964     0.839248458471     1.007825032230
         H           -2.755679667234     1.499537377964    -0.410911541529     1.007825032230

  Basis Set: AUG-CC-PVTZ
    Blend: AUG-CC-PVTZ
  Basis Set: (AUG-CC-PVTZ AUX)
    Blend: AUG-CC-PVTZ-JKFIT
	 Reference Energy          =    -367.7715139597556799 [Eh]
	 Singles Energy            =      -0.0000000000000000 [Eh]
	 Same-Spin Energy          =      -0.3950196809717239 [Eh]
	 Opposite-Spin Energy      =      -1.4114720459796148 [Eh]
	 Correlation Energy        =      -1.8064917269513387 [Eh]
	 Total Energy              =    -369.5780056867070016 [Eh]

	 ================> DF-SCS-MP2 Energies <==================
	-----------------------------------------------------------
	 SCS Same-Spin Scale       =       0.3333333333333333 [-]
	 SCS Opposite-Spin Scale   =       1.2000000000000000 [-]
	 SCS Same-Spin Energy      =      -0.1316732269905746 [Eh]
	 SCS Opposite-Spin Energy  =      -1.6937664551755378 [Eh]
	 SCS Correlation Energy    =      -1.8254396821661125 [Eh]
	 SCS Total Energy          =    -369.5969536419218002 [Eh]
	-----------------------------------------------------------

  Dipole Moment: [D]
     X:    -1.0380      Y:    -0.5244      Z:     0.2438     Total:     1.1882

*** Psi4 exiting successfully. Buy a developer a beer!
