                               Psi4 1.3.2 release

  ==> Input File <==

--------------------------------------------------------------------------
#psi4
#
memory 32 gb

molecule  {
1 1
  N       -0.4820890    -0.2204400     0.0611380
  C        0.4931350    -1.2664130    -0.4574980
  C        0.0352210     1.1635170    -0.2825800
  C        1.9231090    -1.0498370     0.0125270
  C        1.4559810     1.4024730     0.2057820
  C       -1.7887444    -0.4567295    -0.6837377
  C        2.4161490     0.3504860    -0.3416810
  C       -0.6569180    -0.3697370     1.5418350
  C       -2.9537840     0.4422600    -0.2148440
  H        0.4401460    -1.2024090    -1.5488290
  H        0.0974590    -2.2384020    -0.1488000
  H       -0.6659240     1.8829090     0.1439630
  H       -0.0118010     1.2353730    -1.3742740
  H        2.5349810    -1.8144250    -0.4785470
  H        2.0170420    -1.2344280     1.0876600
  H        1.4907670     1.4297660     1.3002730
  H        1.7427260     2.4044990    -0.1312730
  H       -1.6076080    -0.3598680    -1.7054840
  H       -2.0575360    -1.5131640    -0.4404110
  H        3.4221240     0.5100020     0.0566650
  H        2.4871430     0.4507070    -1.4320070
  H        0.3126810    -0.3486860     2.0312100
  H       -1.2698770     0.4499320     1.9127640
  H       -1.1475680    -1.3248790     1.7354010
  H       -3.8251770     0.1584960    -0.8113200
  H       -3.2293180     0.3182590     0.8332870
  H       -2.7570620     1.4961540    -0.4168730
units angstrom
no_reorient  #important for SAPT in psi4, default
symmetry c1  #important for SAPT in psi4, default
}

set PROPERTIES_ORIGIN ["COM"]
properties('MP2/aug-cc-pvtz', properties = ['dipole'])
--------------------------------------------------------------------------

    Molecular point group: c1
  Charge       = 1
  Multiplicity = 1
  Basis Set: AUG-CC-PVTZ
    Blend: AUG-CC-PVTZ
  Basis Set: (AUG-CC-PVTZ AUX)
    Blend: AUG-CC-PVTZ-JKFIT

    Orbital Energies [Eh]
    ---------------------

    Doubly Occupied:

       1A    -15.843213     2A    -11.440809     3A    -11.438357
       4A    -11.437291     5A    -11.435244     6A    -11.377738
       7A    -11.377641     8A    -11.375317     9A    -11.366208
      10A     -1.483439    11A     -1.249287    12A     -1.199785
      13A     -1.186602    14A     -1.140871    15A     -1.057483
      16A     -1.029802    17A     -0.988649    18A     -0.926163
      19A     -0.870453    20A     -0.837711    21A     -0.815704
      22A     -0.804014    23A     -0.771915    24A     -0.752980
      25A     -0.742860    26A     -0.722550    27A     -0.722209
      28A     -0.704251    29A     -0.698276    30A     -0.678276
      31A     -0.674906    32A     -0.664588    33A     -0.659042
      34A     -0.617604    35A     -0.614461    36A     -0.611412

  @DF-RHF Final Energy:  -367.79421782211830

   => Energetics <=

    Nuclear Repulsion Energy =            526.0234413248788314
    One-Electron Energy =               -1527.0010992692741638
    Two-Electron Energy =                 633.1834401222770339
    Total Energy =                       -367.7942178221182985
  Basis Set: (AUG-CC-PVTZ AUX)
    Blend: AUG-CC-PVTZ-RI
    Molecular point group: c1

    Geometry (in Angstrom), charge = 1, multiplicity = 1:

       Center              X                  Y                   Z               Mass
    ------------   -----------------  -----------------  -----------------  -----------------
         N           -0.500009424029    -0.218938396176     0.070253028679    14.003074004430
         C            0.475214575971    -1.264911396176    -0.448382971321    12.000000000000
         C            0.017300575971     1.165018603824    -0.273464971321    12.000000000000
         C            1.905188575971    -1.048335396176     0.021642028679    12.000000000000
         C            1.438060575971     1.403974603824     0.214897028679    12.000000000000
         C           -1.806664824029    -0.455227896176    -0.674622671321    12.000000000000
         C            2.398228575971     0.351987603824    -0.332565971321    12.000000000000
         C           -0.674838424029    -0.368235396176     1.550950028679    12.000000000000
         C           -2.971704424029     0.443761603824    -0.205728971321    12.000000000000
         H            0.422225575971    -1.200907396176    -1.539713971321     1.007825032230
         H            0.079538575971    -2.236900396176    -0.139684971321     1.007825032230
         H           -0.683844424029     1.884410603824     0.153078028679     1.007825032230
         H           -0.029721424029     1.236874603824    -1.365158971321     1.007825032230
         H            2.517060575971    -1.812923396176    -0.469431971321     1.007825032230
         H            1.999121575971    -1.232926396176     1.096775028679     1.007825032230
         H            1.472846575971     1.431267603824     1.309388028679     1.007825032230
         H            1.724805575971     2.406000603824    -0.122157971321     1.007825032230
         H           -1.625528424029    -0.358366396176    -1.696368971321     1.007825032230
         H           -2.075456424029    -1.511662396176    -0.431295971321     1.007825032230
         H            3.404203575971     0.511503603824     0.065780028679     1.007825032230
         H            2.469222575971     0.452208603824    -1.422891971321     1.007825032230
         H            0.294760575971    -0.347184396176     2.040325028679     1.007825032230
         H           -1.287797424029     0.451433603824     1.921879028679     1.007825032230
         H           -1.165488424029    -1.323377396176     1.744516028679     1.007825032230
         H           -3.843097424029     0.159997603824    -0.802204971321     1.007825032230
         H           -3.247238424029     0.319760603824     0.842402028679     1.007825032230
         H           -2.774982424029     1.497655603824    -0.407757971321     1.007825032230

  Basis Set: AUG-CC-PVTZ
    Blend: AUG-CC-PVTZ
  Basis Set: (AUG-CC-PVTZ AUX)
    Blend: AUG-CC-PVTZ-JKFIT
	 Reference Energy          =    -367.7942178221182985 [Eh]
	 Singles Energy            =      -0.0000000000000000 [Eh]
	 Same-Spin Energy          =      -0.3935670264591152 [Eh]
	 Opposite-Spin Energy      =      -1.4091833388335273 [Eh]
	 Correlation Energy        =      -1.8027503652926424 [Eh]
	 Total Energy              =    -369.5969681874109369 [Eh]

	 ================> DF-SCS-MP2 Energies <==================
	-----------------------------------------------------------
	 SCS Same-Spin Scale       =       0.3333333333333333 [-]
	 SCS Opposite-Spin Scale   =       1.2000000000000000 [-]
	 SCS Same-Spin Energy      =      -0.1311890088197051 [Eh]
	 SCS Opposite-Spin Energy  =      -1.6910200066002328 [Eh]
	 SCS Correlation Energy    =      -1.8222090154199377 [Eh]
	 SCS Total Energy          =    -369.6164268375382562 [Eh]
	-----------------------------------------------------------

  Dipole Moment: [D]
     X:    -1.4835      Y:    -0.5536      Z:     0.2176     Total:     1.5983

*** Psi4 exiting successfully. Buy a developer a beer!
