                               Psi4 1.3.2 release

  ==> Input File <==

--------------------------------------------------------------------------
#psi4
#
memory 32 gb

molecule  {
1 1
  N       -0.4820890    -0.2204400     0.0611380
  C        0.4931350    -1.2664130    -0.4574980
  C        0.0352210     1.1635170    -0.2825800
  C        1.9231090    -1.0498370     0.0125270
  C        1.4559810     1.4024730     0.2057820
  C       -1.8126550    -0.4655410    -0.6371030
  C        2.4161490     0.3504860    -0.3416810
  C       -0.6685854    -0.3797005     1.6406510
  C       -2.9537840     0.4422600    -0.2148440
  H        0.4401460    -1.2024090    -1.5488290
  H        0.0974590    -2.2384020    -0.1488000
  H       -0.6659240     1.8829090     0.1439630
  H       -0.0118010     1.2353730    -1.3742740
  H        2.5349810    -1.8144250    -0.4785470
  H        2.0170420    -1.2344280     1.0876600
  H        1.4907670     1.4297660     1.3002730
  H        1.7427260     2.4044990    -0.1312730
  H       -1.6076080    -0.3598680    -1.7054840
  H       -2.0575360    -1.5131640    -0.4404110
  H        3.4221240     0.5100020     0.0566650
  H        2.4871430     0.4507070    -1.4320070
  H        0.3126810    -0.3486860     2.0312100
  H       -1.2698770     0.4499320     1.9127640
  H       -1.1475680    -1.3248790     1.7354010
  H       -3.8251770     0.1584960    -0.8113200
  H       -3.2293180     0.3182590     0.8332870
  H       -2.7570620     1.4961540    -0.4168730
units angstrom
no_reorient  #important for SAPT in psi4, default
symmetry c1  #important for SAPT in psi4, default
}

set PROPERTIES_ORIGIN ["COM"]
properties('MP2/aug-cc-pvtz', properties = ['dipole'])
--------------------------------------------------------------------------

    Molecular point group: c1
  Charge       = 1
  Multiplicity = 1
  Basis Set: AUG-CC-PVTZ
    Blend: AUG-CC-PVTZ
  Basis Set: (AUG-CC-PVTZ AUX)
    Blend: AUG-CC-PVTZ-JKFIT

    Orbital Energies [Eh]
    ---------------------

    Doubly Occupied:

       1A    -15.838096     2A    -11.439273     3A    -11.439221
       4A    -11.436138     5A    -11.434955     6A    -11.377158
       7A    -11.376929     8A    -11.373623     9A    -11.365418
      10A     -1.466091    11A     -1.247505    12A     -1.196937
      13A     -1.184182    14A     -1.144206    15A     -1.056021
      16A     -1.027136    17A     -0.984146    18A     -0.924213
      19A     -0.862375    20A     -0.835604    21A     -0.810300
      22A     -0.804762    23A     -0.765677    24A     -0.752982
      25A     -0.751074    26A     -0.736075    27A     -0.731365
      28A     -0.704261    29A     -0.688463    30A     -0.678944
      31A     -0.666864    32A     -0.664321    33A     -0.657273
      34A     -0.617069    35A     -0.613409    36A     -0.610682

  @DF-RHF Final Energy:  -367.79028373989235

   => Energetics <=

    Nuclear Repulsion Energy =            524.0104673546252343
    One-Electron Energy =               -1523.0760064229036743
    Two-Electron Energy =                 631.2752553283860379
    Total Energy =                       -367.7902837398924021
  Basis Set: (AUG-CC-PVTZ AUX)
    Blend: AUG-CC-PVTZ-RI
    Molecular point group: c1

    Geometry (in Angstrom), charge = 1, multiplicity = 1:

       Center              X                  Y                   Z               Mass
    ------------   -----------------  -----------------  -----------------  -----------------
         N           -0.496677732719    -0.217180216842     0.056632340803    14.003074004430
         C            0.478546267281    -1.263153216842    -0.462003659197    12.000000000000
         C            0.020632267281     1.166776783158    -0.287085659197    12.000000000000
         C            1.908520267281    -1.046577216842     0.008021340803    12.000000000000
         C            1.441392267281     1.405732783158     0.201276340803    12.000000000000
         C           -1.827243732719    -0.462281216842    -0.641608659197    12.000000000000
         C            2.401560267281     0.353745783158    -0.346186659197    12.000000000000
         C           -0.683174132719    -0.376440716842     1.636145340803    12.000000000000
         C           -2.968372732719     0.445519783158    -0.219349659197    12.000000000000
         H            0.425557267281    -1.199149216842    -1.553334659197     1.007825032230
         H            0.082870267281    -2.235142216842    -0.153305659197     1.007825032230
         H           -0.680512732719     1.886168783158     0.139457340803     1.007825032230
         H           -0.026389732719     1.238632783158    -1.378779659197     1.007825032230
         H            2.520392267281    -1.811165216842    -0.483052659197     1.007825032230
         H            2.002453267281    -1.231168216842     1.083154340803     1.007825032230
         H            1.476178267281     1.433025783158     1.295767340803     1.007825032230
         H            1.728137267281     2.407758783158    -0.135778659197     1.007825032230
         H           -1.622196732719    -0.356608216842    -1.709989659197     1.007825032230
         H           -2.072124732719    -1.509904216842    -0.444916659197     1.007825032230
         H            3.407535267281     0.513261783158     0.052159340803     1.007825032230
         H            2.472554267281     0.453966783158    -1.436512659197     1.007825032230
         H            0.298092267281    -0.345426216842     2.026704340803     1.007825032230
         H           -1.284465732719     0.453191783158     1.908258340803     1.007825032230
         H           -1.162156732719    -1.321619216842     1.730895340803     1.007825032230
         H           -3.839765732719     0.161755783158    -0.815825659197     1.007825032230
         H           -3.243906732719     0.321518783158     0.828781340803     1.007825032230
         H           -2.771650732719     1.499413783158    -0.421378659197     1.007825032230

  Basis Set: AUG-CC-PVTZ
    Blend: AUG-CC-PVTZ
  Basis Set: (AUG-CC-PVTZ AUX)
    Blend: AUG-CC-PVTZ-JKFIT
	 Reference Energy          =    -367.7902837398923452 [Eh]
	 Singles Energy            =      -0.0000000000000000 [Eh]
	 Same-Spin Energy          =      -0.3932503549354487 [Eh]
	 Opposite-Spin Energy      =      -1.4096603818091893 [Eh]
	 Correlation Energy        =      -1.8029107367446380 [Eh]
	 Total Energy              =    -369.5931944766369952 [Eh]

	 ================> DF-SCS-MP2 Energies <==================
	-----------------------------------------------------------
	 SCS Same-Spin Scale       =       0.3333333333333333 [-]
	 SCS Opposite-Spin Scale   =       1.2000000000000000 [-]
	 SCS Same-Spin Energy      =      -0.1310834516451496 [Eh]
	 SCS Opposite-Spin Energy  =      -1.6915924581710271 [Eh]
	 SCS Correlation Energy    =      -1.8226759098161767 [Eh]
	 SCS Total Energy          =    -369.6129596497085004 [Eh]
	-----------------------------------------------------------

  Dipole Moment: [D]
     X:    -1.5196      Y:    -0.5701      Z:     0.3364     Total:     1.6575

*** Psi4 exiting successfully. Buy a developer a beer!
