                               Psi4 1.3.2 release

  ==> Input File <==

--------------------------------------------------------------------------
#psi4
#
memory 32 gb

molecule  {
1 1
  N       -0.4820890    -0.2204400     0.0611380
  C        0.3945071    -1.3760372    -0.3974241
  C        0.0352210     1.1635170    -0.2825800
  C        1.9231090    -1.0498370     0.0125270
  C        1.4559810     1.4024730     0.2057820
  C       -1.8126550    -0.4655410    -0.6371030
  C        2.4161490     0.3504860    -0.3416810
  C       -0.6569180    -0.3697370     1.5418350
  C       -2.9537840     0.4422600    -0.2148440
  H        0.4401460    -1.2024090    -1.5488290
  H        0.0974590    -2.2384020    -0.1488000
  H       -0.6659240     1.8829090     0.1439630
  H       -0.0118010     1.2353730    -1.3742740
  H        2.5349810    -1.8144250    -0.4785470
  H        2.0170420    -1.2344280     1.0876600
  H        1.4907670     1.4297660     1.3002730
  H        1.7427260     2.4044990    -0.1312730
  H       -1.6076080    -0.3598680    -1.7054840
  H       -2.0575360    -1.5131640    -0.4404110
  H        3.4221240     0.5100020     0.0566650
  H        2.4871430     0.4507070    -1.4320070
  H        0.3126810    -0.3486860     2.0312100
  H       -1.2698770     0.4499320     1.9127640
  H       -1.1475680    -1.3248790     1.7354010
  H       -3.8251770     0.1584960    -0.8113200
  H       -3.2293180     0.3182590     0.8332870
  H       -2.7570620     1.4961540    -0.4168730
units angstrom
no_reorient  #important for SAPT in psi4, default
symmetry c1  #important for SAPT in psi4, default
}

set PROPERTIES_ORIGIN ["COM"]
properties('MP2/aug-cc-pvtz', properties = ['dipole'])
--------------------------------------------------------------------------

    Molecular point group: c1
  Charge       = 1
  Multiplicity = 1
  Basis Set: AUG-CC-PVTZ
    Blend: AUG-CC-PVTZ
  Basis Set: (AUG-CC-PVTZ AUX)
    Blend: AUG-CC-PVTZ-JKFIT

    Orbital Energies [Eh]
    ---------------------

    Doubly Occupied:

       1A    -15.844348     2A    -11.440752     3A    -11.440265
       4A    -11.437124     5A    -11.434149     6A    -11.382449
       7A    -11.378276     8A    -11.373333     9A    -11.368407
      10A     -1.483687    11A     -1.243851    12A     -1.199977
      13A     -1.186856    14A     -1.139713    15A     -1.057626
      16A     -1.040375    17A     -0.984546    18A     -0.923633
      19A     -0.877126    20A     -0.835423    21A     -0.826365
      22A     -0.802147    23A     -0.769172    24A     -0.766574
      25A     -0.740665    26A     -0.723903    27A     -0.718703
      28A     -0.712975    29A     -0.688077    30A     -0.675774
      31A     -0.671318    32A     -0.661129    33A     -0.653776
      34A     -0.624036    35A     -0.614691    36A     -0.599960

  @DF-RHF Final Energy:  -367.76398704378204

   => Energetics <=

    Nuclear Repulsion Energy =            524.9620586837179417
    One-Electron Energy =               -1524.8097308984808933
    Two-Electron Energy =                 632.0836851709809707
    Total Energy =                       -367.7639870437819809
  Basis Set: (AUG-CC-PVTZ AUX)
    Blend: AUG-CC-PVTZ-RI
    Molecular point group: c1

    Geometry (in Angstrom), charge = 1, multiplicity = 1:

       Center              X                  Y                   Z               Mass
    ------------   -----------------  -----------------  -----------------  -----------------
         N           -0.488534342360    -0.207847520002     0.060260333324    14.003074004430
         C            0.388061757640    -1.363444720002    -0.398301766676    12.000000000000
         C            0.028775657640     1.176109479998    -0.283457666676    12.000000000000
         C            1.916663657640    -1.037244520002     0.011649333324    12.000000000000
         C            1.449535657640     1.415065479998     0.204904333324    12.000000000000
         C           -1.819100342360    -0.452948520002    -0.637980666676    12.000000000000
         C            2.409703657640     0.363078479998    -0.342558666676    12.000000000000
         C           -0.663363342360    -0.357144520002     1.540957333324    12.000000000000
         C           -2.960229342360     0.454852479998    -0.215721666676    12.000000000000
         H            0.433700657640    -1.189816520002    -1.549706666676     1.007825032230
         H            0.091013657640    -2.225809520002    -0.149677666676     1.007825032230
         H           -0.672369342360     1.895501479998     0.143085333324     1.007825032230
         H           -0.018246342360     1.247965479998    -1.375151666676     1.007825032230
         H            2.528535657640    -1.801832520002    -0.479424666676     1.007825032230
         H            2.010596657640    -1.221835520002     1.086782333324     1.007825032230
         H            1.484321657640     1.442358479998     1.299395333324     1.007825032230
         H            1.736280657640     2.417091479998    -0.132150666676     1.007825032230
         H           -1.614053342360    -0.347275520002    -1.706361666676     1.007825032230
         H           -2.063981342360    -1.500571520002    -0.441288666676     1.007825032230
         H            3.415678657640     0.522594479998     0.055787333324     1.007825032230
         H            2.480697657640     0.463299479998    -1.432884666676     1.007825032230
         H            0.306235657640    -0.336093520002     2.030332333324     1.007825032230
         H           -1.276322342360     0.462524479998     1.911886333324     1.007825032230
         H           -1.154013342360    -1.312286520002     1.734523333324     1.007825032230
         H           -3.831622342360     0.171088479998    -0.812197666676     1.007825032230
         H           -3.235763342360     0.330851479998     0.832409333324     1.007825032230
         H           -2.763507342360     1.508746479998    -0.417750666676     1.007825032230

  Basis Set: AUG-CC-PVTZ
    Blend: AUG-CC-PVTZ
  Basis Set: (AUG-CC-PVTZ AUX)
    Blend: AUG-CC-PVTZ-JKFIT
	 Reference Energy          =    -367.7639870437820377 [Eh]
	 Singles Energy            =      -0.0000000000000000 [Eh]
	 Same-Spin Energy          =      -0.3935873845255574 [Eh]
	 Opposite-Spin Energy      =      -1.4103349195679140 [Eh]
	 Correlation Energy        =      -1.8039223040934713 [Eh]
	 Total Energy              =    -369.5679093478755135 [Eh]

	 ================> DF-SCS-MP2 Energies <==================
	-----------------------------------------------------------
	 SCS Same-Spin Scale       =       0.3333333333333333 [-]
	 SCS Opposite-Spin Scale   =       1.2000000000000000 [-]
	 SCS Same-Spin Energy      =      -0.1311957948418525 [Eh]
	 SCS Opposite-Spin Energy  =      -1.6924019034814968 [Eh]
	 SCS Correlation Energy    =      -1.8235976983233493 [Eh]
	 SCS Total Energy          =    -369.5875847421053777 [Eh]
	-----------------------------------------------------------

  Dipole Moment: [D]
     X:    -1.4826      Y:    -0.4850      Z:     0.2271     Total:     1.5764

*** Psi4 exiting successfully. Buy a developer a beer!
