                               Psi4 1.3.2 release

  ==> Input File <==

--------------------------------------------------------------------------
#psi4
#
memory 32 gb

molecule  {
1 1
  N       -0.4234854    -0.3396762    -0.0268680
  C        0.4931350    -1.2664130    -0.4574980
  C        0.0352210     1.1635170    -0.2825800
  C        1.9231090    -1.0498370     0.0125270
  C        1.4559810     1.4024730     0.2057820
  C       -1.8126550    -0.4655410    -0.6371030
  C        2.4161490     0.3504860    -0.3416810
  C       -0.6569180    -0.3697370     1.5418350
  C       -2.9537840     0.4422600    -0.2148440
  H        0.4401460    -1.2024090    -1.5488290
  H        0.0974590    -2.2384020    -0.1488000
  H       -0.6659240     1.8829090     0.1439630
  H       -0.0118010     1.2353730    -1.3742740
  H        2.5349810    -1.8144250    -0.4785470
  H        2.0170420    -1.2344280     1.0876600
  H        1.4907670     1.4297660     1.3002730
  H        1.7427260     2.4044990    -0.1312730
  H       -1.6076080    -0.3598680    -1.7054840
  H       -2.0575360    -1.5131640    -0.4404110
  H        3.4221240     0.5100020     0.0566650
  H        2.4871430     0.4507070    -1.4320070
  H        0.3126810    -0.3486860     2.0312100
  H       -1.2698770     0.4499320     1.9127640
  H       -1.1475680    -1.3248790     1.7354010
  H       -3.8251770     0.1584960    -0.8113200
  H       -3.2293180     0.3182590     0.8332870
  H       -2.7570620     1.4961540    -0.4168730
units angstrom
no_reorient  #important for SAPT in psi4, default
symmetry c1  #important for SAPT in psi4, default
}

set PROPERTIES_ORIGIN ["COM"]
properties('MP2/aug-cc-pvtz', properties = ['dipole'])
--------------------------------------------------------------------------

    Molecular point group: c1
  Charge       = 1
  Multiplicity = 1
  Basis Set: AUG-CC-PVTZ
    Blend: AUG-CC-PVTZ
  Basis Set: (AUG-CC-PVTZ AUX)
    Blend: AUG-CC-PVTZ-JKFIT

    Orbital Energies [Eh]
    ---------------------

    Doubly Occupied:

       1A    -15.841742     2A    -11.444219     3A    -11.442232
       4A    -11.441696     5A    -11.425151     6A    -11.379425
       7A    -11.378762     8A    -11.376458     9A    -11.366032
      10A     -1.491015    11A     -1.248901    12A     -1.211046
      13A     -1.180690    14A     -1.139507    15A     -1.060978
      16A     -1.032086    17A     -0.991379    18A     -0.925432
      19A     -0.866082    20A     -0.842389    21A     -0.809385
      22A     -0.803534    23A     -0.777390    24A     -0.753423
      25A     -0.741571    26A     -0.732827    27A     -0.720954
      28A     -0.716016    29A     -0.688343    30A     -0.677893
      31A     -0.667612    32A     -0.662394    33A     -0.654190
      34A     -0.618854    35A     -0.614982    36A     -0.604766

  @DF-RHF Final Energy:  -367.76895175092096

   => Energetics <=

    Nuclear Repulsion Energy =            526.2043003371129544
    One-Electron Energy =               -1527.2877893193153795
    Two-Electron Energy =                 633.3145372312815198
    Total Energy =                       -367.7689517509209054
  Basis Set: (AUG-CC-PVTZ AUX)
    Blend: AUG-CC-PVTZ-RI
    Molecular point group: c1

    Geometry (in Angstrom), charge = 1, multiplicity = 1:

       Center              X                  Y                   Z               Mass
    ------------   -----------------  -----------------  -----------------  -----------------
         N           -0.445570698403    -0.324319773652    -0.012503107677    14.003074004430
         C            0.471049701597    -1.251056573652    -0.443133107677    12.000000000000
         C            0.013135701597     1.178873426348    -0.268215107677    12.000000000000
         C            1.901023701597    -1.034480573652     0.026891892323    12.000000000000
         C            1.433895701597     1.417829426348     0.220146892323    12.000000000000
         C           -1.834740298403    -0.450184573652    -0.622738107677    12.000000000000
         C            2.394063701597     0.365842426348    -0.327316107677    12.000000000000
         C           -0.679003298403    -0.354380573652     1.556199892323    12.000000000000
         C           -2.975869298403     0.457616426348    -0.200479107677    12.000000000000
         H            0.418060701597    -1.187052573652    -1.534464107677     1.007825032230
         H            0.075373701597    -2.223045573652    -0.134435107677     1.007825032230
         H           -0.688009298403     1.898265426348     0.158327892323     1.007825032230
         H           -0.033886298403     1.250729426348    -1.359909107677     1.007825032230
         H            2.512895701597    -1.799068573652    -0.464182107677     1.007825032230
         H            1.994956701597    -1.219071573652     1.102024892323     1.007825032230
         H            1.468681701597     1.445122426348     1.314637892323     1.007825032230
         H            1.720640701597     2.419855426348    -0.116908107677     1.007825032230
         H           -1.629693298403    -0.344511573652    -1.691119107677     1.007825032230
         H           -2.079621298403    -1.497807573652    -0.426046107677     1.007825032230
         H            3.400038701597     0.525358426348     0.071029892323     1.007825032230
         H            2.465057701597     0.466063426348    -1.417642107677     1.007825032230
         H            0.290595701597    -0.333329573652     2.045574892323     1.007825032230
         H           -1.291962298403     0.465288426348     1.927128892323     1.007825032230
         H           -1.169653298403    -1.309522573652     1.749765892323     1.007825032230
         H           -3.847262298403     0.173852426348    -0.796955107677     1.007825032230
         H           -3.251403298403     0.333615426348     0.847651892323     1.007825032230
         H           -2.779147298403     1.511510426348    -0.402508107677     1.007825032230

  Basis Set: AUG-CC-PVTZ
    Blend: AUG-CC-PVTZ
  Basis Set: (AUG-CC-PVTZ AUX)
    Blend: AUG-CC-PVTZ-JKFIT
	 Reference Energy          =    -367.7689517509209622 [Eh]
	 Singles Energy            =      -0.0000000000000000 [Eh]
	 Same-Spin Energy          =      -0.3950960338142630 [Eh]
	 Opposite-Spin Energy      =      -1.4117924403135156 [Eh]
	 Correlation Energy        =      -1.8068884741277786 [Eh]
	 Total Energy              =    -369.5758402250487507 [Eh]

	 ================> DF-SCS-MP2 Energies <==================
	-----------------------------------------------------------
	 SCS Same-Spin Scale       =       0.3333333333333333 [-]
	 SCS Opposite-Spin Scale   =       1.2000000000000000 [-]
	 SCS Same-Spin Energy      =      -0.1316986779380876 [Eh]
	 SCS Opposite-Spin Energy  =      -1.6941509283762186 [Eh]
	 SCS Correlation Energy    =      -1.8258496063143062 [Eh]
	 SCS Total Energy          =    -369.5948013572352693 [Eh]
	-----------------------------------------------------------

  Dipole Moment: [D]
     X:    -1.6388      Y:    -0.2691      Z:     0.3892     Total:     1.7057

*** Psi4 exiting successfully. Buy a developer a beer!
