                               Psi4 1.3.2 release

  ==> Input File <==

--------------------------------------------------------------------------
#psi4
#
memory 32 gb

molecule  {
1 1
  N       -0.5080273    -0.2219406     0.0581551
  C        0.4931350    -1.2664130    -0.4574980
  C        0.0352210     1.1635170    -0.2825800
  C        1.9231090    -1.0498370     0.0125270
  C        1.4559810     1.4024730     0.2057820
  C       -1.8126550    -0.4655410    -0.6371030
  C        2.4161490     0.3504860    -0.3416810
  C       -0.6569180    -0.3697370     1.5418350
  C       -2.9537840     0.4422600    -0.2148440
  H        0.4401460    -1.2024090    -1.5488290
  H        0.0974590    -2.2384020    -0.1488000
  H       -0.6659240     1.8829090     0.1439630
  H       -0.0118010     1.2353730    -1.3742740
  H        2.5349810    -1.8144250    -0.4785470
  H        2.0170420    -1.2344280     1.0876600
  H        1.4907670     1.4297660     1.3002730
  H        1.7427260     2.4044990    -0.1312730
  H       -1.6076080    -0.3598680    -1.7054840
  H       -2.0575360    -1.5131640    -0.4404110
  H        3.4221240     0.5100020     0.0566650
  H        2.4871430     0.4507070    -1.4320070
  H        0.3126810    -0.3486860     2.0312100
  H       -1.2698770     0.4499320     1.9127640
  H       -1.1475680    -1.3248790     1.7354010
  H       -3.8251770     0.1584960    -0.8113200
  H       -3.2293180     0.3182590     0.8332870
  H       -2.7570620     1.4961540    -0.4168730
units angstrom
no_reorient  #important for SAPT in psi4, default
symmetry c1  #important for SAPT in psi4, default
}

set PROPERTIES_ORIGIN ["COM"]
properties('MP2/aug-cc-pvtz', properties = ['dipole'])
--------------------------------------------------------------------------

    Molecular point group: c1
  Charge       = 1
  Multiplicity = 1
  Basis Set: AUG-CC-PVTZ
    Blend: AUG-CC-PVTZ
  Basis Set: (AUG-CC-PVTZ AUX)
    Blend: AUG-CC-PVTZ-JKFIT

    Orbital Energies [Eh]
    ---------------------

    Doubly Occupied:

       1A    -15.843059     2A    -11.439915     3A    -11.439454
       4A    -11.438254     5A    -11.434511     6A    -11.379099
       7A    -11.378849     8A    -11.373451     9A    -11.366793
      10A     -1.483411    11A     -1.251732    12A     -1.198737
      13A     -1.188728    14A     -1.140434    15A     -1.060656
      16A     -1.029795    17A     -0.984807    18A     -0.926428
      19A     -0.867102    20A     -0.839181    21A     -0.816679
      22A     -0.804410    23A     -0.770602    24A     -0.754526
      25A     -0.743555    26A     -0.722565    27A     -0.720670
      28A     -0.704820    29A     -0.697295    30A     -0.679759
      31A     -0.671241    32A     -0.664408    33A     -0.659912
      34A     -0.618861    35A     -0.617182    36A     -0.611846

  @DF-RHF Final Energy:  -367.79666031039960

   => Energetics <=

    Nuclear Repulsion Energy =            525.9943274910323225
    One-Electron Energy =               -1526.9365224677549122
    Two-Electron Energy =                 633.1455346663229875
    Total Energy =                       -367.7966603103996022
  Basis Set: (AUG-CC-PVTZ AUX)
    Blend: AUG-CC-PVTZ-RI
    Molecular point group: c1

    Geometry (in Angstrom), charge = 1, multiplicity = 1:

       Center              X                  Y                   Z               Mass
    ------------   -----------------  -----------------  -----------------  -----------------
         N           -0.520874185533    -0.219449866077     0.063228995771    14.003074004430
         C            0.480288114467    -1.263922266077    -0.452424104229    12.000000000000
         C            0.022374114467     1.166007733923    -0.277506104229    12.000000000000
         C            1.910262114467    -1.047346266077     0.017600895771    12.000000000000
         C            1.443134114467     1.404963733923     0.210855895771    12.000000000000
         C           -1.825501885533    -0.463050266077    -0.632029104229    12.000000000000
         C            2.403302114467     0.352976733923    -0.336607104229    12.000000000000
         C           -0.669764885533    -0.367246266077     1.546908895771    12.000000000000
         C           -2.966630885533     0.444750733923    -0.209770104229    12.000000000000
         H            0.427299114467    -1.199918266077    -1.543755104229     1.007825032230
         H            0.084612114467    -2.235911266077    -0.143726104229     1.007825032230
         H           -0.678770885533     1.885399733923     0.149036895771     1.007825032230
         H           -0.024647885533     1.237863733923    -1.369200104229     1.007825032230
         H            2.522134114467    -1.811934266077    -0.473473104229     1.007825032230
         H            2.004195114467    -1.231937266077     1.092733895771     1.007825032230
         H            1.477920114467     1.432256733923     1.305346895771     1.007825032230
         H            1.729879114467     2.406989733923    -0.126199104229     1.007825032230
         H           -1.620454885533    -0.357377266077    -1.700410104229     1.007825032230
         H           -2.070382885533    -1.510673266077    -0.435337104229     1.007825032230
         H            3.409277114467     0.512492733923     0.061738895771     1.007825032230
         H            2.474296114467     0.453197733923    -1.426933104229     1.007825032230
         H            0.299834114467    -0.346195266077     2.036283895771     1.007825032230
         H           -1.282723885533     0.452422733923     1.917837895771     1.007825032230
         H           -1.160414885533    -1.322388266077     1.740474895771     1.007825032230
         H           -3.838023885533     0.160986733923    -0.806246104229     1.007825032230
         H           -3.242164885533     0.320749733923     0.838360895771     1.007825032230
         H           -2.769908885533     1.498644733923    -0.411799104229     1.007825032230

  Basis Set: AUG-CC-PVTZ
    Blend: AUG-CC-PVTZ
  Basis Set: (AUG-CC-PVTZ AUX)
    Blend: AUG-CC-PVTZ-JKFIT
	 Reference Energy          =    -367.7966603103996022 [Eh]
	 Singles Energy            =      -0.0000000000000000 [Eh]
	 Same-Spin Energy          =      -0.3937647207112330 [Eh]
	 Opposite-Spin Energy      =      -1.4092424631223113 [Eh]
	 Correlation Energy        =      -1.8030071838335442 [Eh]
	 Total Energy              =    -369.5996674942331310 [Eh]

	 ================> DF-SCS-MP2 Energies <==================
	-----------------------------------------------------------
	 SCS Same-Spin Scale       =       0.3333333333333333 [-]
	 SCS Opposite-Spin Scale   =       1.2000000000000000 [-]
	 SCS Same-Spin Energy      =      -0.1312549069037443 [Eh]
	 SCS Opposite-Spin Energy  =      -1.6910909557467735 [Eh]
	 SCS Correlation Energy    =      -1.8223458626505178 [Eh]
	 SCS Total Energy          =    -369.6190061730501384 [Eh]
	-----------------------------------------------------------

  Dipole Moment: [D]
     X:    -1.4144      Y:    -0.5474      Z:     0.2198     Total:     1.5324

*** Psi4 exiting successfully. Buy a developer a beer!
