                               Psi4 1.3.2 release

  ==> Input File <==

--------------------------------------------------------------------------
#psi4
#
memory 32 gb

molecule  {
1 1
  N       -0.4820890    -0.2204400     0.0611380
  C        0.4867001    -1.2468065    -0.5064220
  C        0.0352210     1.1635170    -0.2825800
  C        1.9231090    -1.0498370     0.0125270
  C        1.4559810     1.4024730     0.2057820
  C       -1.8126550    -0.4655410    -0.6371030
  C        2.4161490     0.3504860    -0.3416810
  C       -0.6569180    -0.3697370     1.5418350
  C       -2.9537840     0.4422600    -0.2148440
  H        0.4401460    -1.2024090    -1.5488290
  H        0.0974590    -2.2384020    -0.1488000
  H       -0.6659240     1.8829090     0.1439630
  H       -0.0118010     1.2353730    -1.3742740
  H        2.5349810    -1.8144250    -0.4785470
  H        2.0170420    -1.2344280     1.0876600
  H        1.4907670     1.4297660     1.3002730
  H        1.7427260     2.4044990    -0.1312730
  H       -1.6076080    -0.3598680    -1.7054840
  H       -2.0575360    -1.5131640    -0.4404110
  H        3.4221240     0.5100020     0.0566650
  H        2.4871430     0.4507070    -1.4320070
  H        0.3126810    -0.3486860     2.0312100
  H       -1.2698770     0.4499320     1.9127640
  H       -1.1475680    -1.3248790     1.7354010
  H       -3.8251770     0.1584960    -0.8113200
  H       -3.2293180     0.3182590     0.8332870
  H       -2.7570620     1.4961540    -0.4168730
units angstrom
no_reorient  #important for SAPT in psi4, default
symmetry c1  #important for SAPT in psi4, default
}

set PROPERTIES_ORIGIN ["COM"]
properties('MP2/aug-cc-pvtz', properties = ['dipole'])
--------------------------------------------------------------------------

    Molecular point group: c1
  Charge       = 1
  Multiplicity = 1
  Basis Set: AUG-CC-PVTZ
    Blend: AUG-CC-PVTZ
  Basis Set: (AUG-CC-PVTZ AUX)
    Blend: AUG-CC-PVTZ-JKFIT

    Orbital Energies [Eh]
    ---------------------

    Doubly Occupied:

       1A    -15.843185     2A    -11.441377     3A    -11.437851
       4A    -11.437146     5A    -11.435231     6A    -11.378900
       7A    -11.377639     8A    -11.374126     9A    -11.365507
      10A     -1.483405    11A     -1.249418    12A     -1.197932
      13A     -1.188538    14A     -1.142944    15A     -1.056977
      16A     -1.029732    17A     -0.985364    18A     -0.928994
      19A     -0.865831    20A     -0.842272    21A     -0.817019
      22A     -0.801824    23A     -0.771295    24A     -0.751266
      25A     -0.742857    26A     -0.723908    27A     -0.719857
      28A     -0.705180    29A     -0.700158    30A     -0.678916
      31A     -0.671287    32A     -0.669274    33A     -0.661049
      34A     -0.618794    35A     -0.611260    36A     -0.609757

  @DF-RHF Final Energy:  -367.79406630946966

   => Energetics <=

    Nuclear Repulsion Energy =            526.0560441136881309
    One-Electron Energy =               -1527.0680839695921804
    Two-Electron Energy =                 633.2179735464343366
    Total Energy =                       -367.7940663094697129
  Basis Set: (AUG-CC-PVTZ AUX)
    Blend: AUG-CC-PVTZ-RI
    Molecular point group: c1

    Geometry (in Angstrom), charge = 1, multiplicity = 1:

       Center              X                  Y                   Z               Mass
    ------------   -----------------  -----------------  -----------------  -----------------
         N           -0.497167728637    -0.219949290765     0.070467409502    14.003074004430
         C            0.471621371363    -1.246315790765    -0.497092590498    12.000000000000
         C            0.020142271363     1.164007709235    -0.273250590498    12.000000000000
         C            1.908030271363    -1.049346290765     0.021856409502    12.000000000000
         C            1.440902271363     1.402963709235     0.215111409502    12.000000000000
         C           -1.827733728637    -0.465050290765    -0.627773590498    12.000000000000
         C            2.401070271363     0.350976709235    -0.332351590498    12.000000000000
         C           -0.671996728637    -0.369246290765     1.551164409502    12.000000000000
         C           -2.968862728637     0.442750709235    -0.205514590498    12.000000000000
         H            0.425067271363    -1.201918290765    -1.539499590498     1.007825032230
         H            0.082380271363    -2.237911290765    -0.139470590498     1.007825032230
         H           -0.681002728637     1.883399709235     0.153292409502     1.007825032230
         H           -0.026879728637     1.235863709235    -1.364944590498     1.007825032230
         H            2.519902271363    -1.813934290765    -0.469217590498     1.007825032230
         H            2.001963271363    -1.233937290765     1.096989409502     1.007825032230
         H            1.475688271363     1.430256709235     1.309602409502     1.007825032230
         H            1.727647271363     2.404989709235    -0.121943590498     1.007825032230
         H           -1.622686728637    -0.359377290765    -1.696154590498     1.007825032230
         H           -2.072614728637    -1.512673290765    -0.431081590498     1.007825032230
         H            3.407045271363     0.510492709235     0.065994409502     1.007825032230
         H            2.472064271363     0.451197709235    -1.422677590498     1.007825032230
         H            0.297602271363    -0.348195290765     2.040539409502     1.007825032230
         H           -1.284955728637     0.450422709235     1.922093409502     1.007825032230
         H           -1.162646728637    -1.324388290765     1.744730409502     1.007825032230
         H           -3.840255728637     0.158986709235    -0.801990590498     1.007825032230
         H           -3.244396728637     0.318749709235     0.842616409502     1.007825032230
         H           -2.772140728637     1.496644709235    -0.407543590498     1.007825032230

  Basis Set: AUG-CC-PVTZ
    Blend: AUG-CC-PVTZ
  Basis Set: (AUG-CC-PVTZ AUX)
    Blend: AUG-CC-PVTZ-JKFIT
	 Reference Energy          =    -367.7940663094696561 [Eh]
	 Singles Energy            =      -0.0000000000000000 [Eh]
	 Same-Spin Energy          =      -0.3936581309692574 [Eh]
	 Opposite-Spin Energy      =      -1.4092481045868084 [Eh]
	 Correlation Energy        =      -1.8029062355560659 [Eh]
	 Total Energy              =    -369.5969725450257215 [Eh]

	 ================> DF-SCS-MP2 Energies <==================
	-----------------------------------------------------------
	 SCS Same-Spin Scale       =       0.3333333333333333 [-]
	 SCS Opposite-Spin Scale   =       1.2000000000000000 [-]
	 SCS Same-Spin Energy      =      -0.1312193769897525 [Eh]
	 SCS Opposite-Spin Energy  =      -1.6910977255041699 [Eh]
	 SCS Correlation Energy    =      -1.8223171024939224 [Eh]
	 SCS Total Energy          =    -369.6163834119635681 [Eh]
	-----------------------------------------------------------

  Dipole Moment: [D]
     X:    -1.4932      Y:    -0.5529      Z:     0.2173     Total:     1.6070

*** Psi4 exiting successfully. Buy a developer a beer!
