                               Psi4 1.3.2 release

  ==> Input File <==

--------------------------------------------------------------------------
#psi4
#
memory 32 gb

molecule  {
1 1
  N       -0.4403171    -0.2663239     0.2077790
  C        0.4931350    -1.2664130    -0.4574980
  C        0.0352210     1.1635170    -0.2825800
  C        1.9231090    -1.0498370     0.0125270
  C        1.4559810     1.4024730     0.2057820
  C       -1.8126550    -0.4655410    -0.6371030
  C        2.4161490     0.3504860    -0.3416810
  C       -0.6569180    -0.3697370     1.5418350
  C       -2.9537840     0.4422600    -0.2148440
  H        0.4401460    -1.2024090    -1.5488290
  H        0.0974590    -2.2384020    -0.1488000
  H       -0.6659240     1.8829090     0.1439630
  H       -0.0118010     1.2353730    -1.3742740
  H        2.5349810    -1.8144250    -0.4785470
  H        2.0170420    -1.2344280     1.0876600
  H        1.4907670     1.4297660     1.3002730
  H        1.7427260     2.4044990    -0.1312730
  H       -1.6076080    -0.3598680    -1.7054840
  H       -2.0575360    -1.5131640    -0.4404110
  H        3.4221240     0.5100020     0.0566650
  H        2.4871430     0.4507070    -1.4320070
  H        0.3126810    -0.3486860     2.0312100
  H       -1.2698770     0.4499320     1.9127640
  H       -1.1475680    -1.3248790     1.7354010
  H       -3.8251770     0.1584960    -0.8113200
  H       -3.2293180     0.3182590     0.8332870
  H       -2.7570620     1.4961540    -0.4168730
units angstrom
no_reorient  #important for SAPT in psi4, default
symmetry c1  #important for SAPT in psi4, default
}

set PROPERTIES_ORIGIN ["COM"]
properties('MP2/aug-cc-pvtz', properties = ['dipole'])
--------------------------------------------------------------------------

    Molecular point group: c1
  Charge       = 1
  Multiplicity = 1
  Basis Set: AUG-CC-PVTZ
    Blend: AUG-CC-PVTZ
  Basis Set: (AUG-CC-PVTZ AUX)
    Blend: AUG-CC-PVTZ-JKFIT

    Orbital Energies [Eh]
    ---------------------

    Doubly Occupied:

       1A    -15.837190     2A    -11.449945     3A    -11.443451
       4A    -11.439090     5A    -11.421706     6A    -11.376376
       7A    -11.376250     8A    -11.375348     9A    -11.365545
      10A     -1.489091    11A     -1.251081    12A     -1.200999
      13A     -1.195675    14A     -1.143387    15A     -1.047826
      16A     -1.020523    17A     -0.987427    18A     -0.926256
      19A     -0.870320    20A     -0.848568    21A     -0.817103
      22A     -0.804703    23A     -0.783550    24A     -0.749506
      25A     -0.743630    26A     -0.725190    27A     -0.715454
      28A     -0.705335    29A     -0.701909    30A     -0.672436
      31A     -0.671206    32A     -0.665514    33A     -0.656860
      34A     -0.617481    35A     -0.607558    36A     -0.601403

  @DF-RHF Final Energy:  -367.76841680096055

   => Energetics <=

    Nuclear Repulsion Energy =            526.1328068343171935
    One-Electron Energy =               -1527.1926618950851662
    Two-Electron Energy =                 633.2914382598074781
    Total Energy =                       -367.7684168009604946
  Basis Set: (AUG-CC-PVTZ AUX)
    Blend: AUG-CC-PVTZ-RI
    Molecular point group: c1

    Geometry (in Angstrom), charge = 1, multiplicity = 1:

       Center              X                  Y                   Z               Mass
    ------------   -----------------  -----------------  -----------------  -----------------
         N           -0.460563095124    -0.258983130178     0.196502572872    14.003074004430
         C            0.472889004876    -1.259072230178    -0.468774427128    12.000000000000
         C            0.014975004876     1.170857769822    -0.293856427128    12.000000000000
         C            1.902863004876    -1.042496230178     0.001250572872    12.000000000000
         C            1.435735004876     1.409813769822     0.194505572872    12.000000000000
         C           -1.832900995124    -0.458200230178    -0.648379427128    12.000000000000
         C            2.395903004876     0.357826769822    -0.352957427128    12.000000000000
         C           -0.677163995124    -0.362396230178     1.530558572872    12.000000000000
         C           -2.974029995124     0.449600769822    -0.226120427128    12.000000000000
         H            0.419900004876    -1.195068230178    -1.560105427128     1.007825032230
         H            0.077213004876    -2.231061230178    -0.160076427128     1.007825032230
         H           -0.686169995124     1.890249769822     0.132686572872     1.007825032230
         H           -0.032046995124     1.242713769822    -1.385550427128     1.007825032230
         H            2.514735004876    -1.807084230178    -0.489823427128     1.007825032230
         H            1.996796004876    -1.227087230178     1.076383572872     1.007825032230
         H            1.470521004876     1.437106769822     1.288996572872     1.007825032230
         H            1.722480004876     2.411839769822    -0.142549427128     1.007825032230
         H           -1.627853995124    -0.352527230178    -1.716760427128     1.007825032230
         H           -2.077781995124    -1.505823230178    -0.451687427128     1.007825032230
         H            3.401878004876     0.517342769822     0.045388572872     1.007825032230
         H            2.466897004876     0.458047769822    -1.443283427128     1.007825032230
         H            0.292435004876    -0.341345230178     2.019933572872     1.007825032230
         H           -1.290122995124     0.457272769822     1.901487572872     1.007825032230
         H           -1.167813995124    -1.317538230178     1.724124572872     1.007825032230
         H           -3.845422995124     0.165836769822    -0.822596427128     1.007825032230
         H           -3.249563995124     0.325599769822     0.822010572872     1.007825032230
         H           -2.777307995124     1.503494769822    -0.428149427128     1.007825032230

  Basis Set: AUG-CC-PVTZ
    Blend: AUG-CC-PVTZ
  Basis Set: (AUG-CC-PVTZ AUX)
    Blend: AUG-CC-PVTZ-JKFIT
	 Reference Energy          =    -367.7684168009605514 [Eh]
	 Singles Energy            =      -0.0000000000000000 [Eh]
	 Same-Spin Energy          =      -0.3951617106034884 [Eh]
	 Opposite-Spin Energy      =      -1.4116570177421961 [Eh]
	 Correlation Energy        =      -1.8068187283456845 [Eh]
	 Total Energy              =    -369.5752355293062124 [Eh]

	 ================> DF-SCS-MP2 Energies <==================
	-----------------------------------------------------------
	 SCS Same-Spin Scale       =       0.3333333333333333 [-]
	 SCS Opposite-Spin Scale   =       1.2000000000000000 [-]
	 SCS Same-Spin Energy      =      -0.1317205702011628 [Eh]
	 SCS Opposite-Spin Energy  =      -1.6939884212906353 [Eh]
	 SCS Correlation Energy    =      -1.8257089914917981 [Eh]
	 SCS Total Energy          =    -369.5941257924523597 [Eh]
	-----------------------------------------------------------

  Dipole Moment: [D]
     X:    -1.6176      Y:    -0.4484      Z:    -0.0882     Total:     1.6809

*** Psi4 exiting successfully. Buy a developer a beer!
