                               Psi4 1.4a3.dev225

  ==> Input File <==

--------------------------------------------------------------------------
#psi4
#
memory 32 gb

molecule  {
1 1
  N       -0.4820890    -0.2204400     0.0611380
  C        0.5059566    -1.2801648    -0.4643167
  C        0.0352210     1.1635170    -0.2825800
  C        1.9231090    -1.0498370     0.0125270
  C        1.4559810     1.4024730     0.2057820
  C       -1.8126550    -0.4655410    -0.6371030
  C        2.4161490     0.3504860    -0.3416810
  C       -0.6569180    -0.3697370     1.5418350
  C       -2.9537840     0.4422600    -0.2148440
  H        0.4401460    -1.2024090    -1.5488290
  H        0.0974590    -2.2384020    -0.1488000
  H       -0.6659240     1.8829090     0.1439630
  H       -0.0118010     1.2353730    -1.3742740
  H        2.5349810    -1.8144250    -0.4785470
  H        2.0170420    -1.2344280     1.0876600
  H        1.4907670     1.4297660     1.3002730
  H        1.7427260     2.4044990    -0.1312730
  H       -1.6076080    -0.3598680    -1.7054840
  H       -2.0575360    -1.5131640    -0.4404110
  H        3.4221240     0.5100020     0.0566650
  H        2.4871430     0.4507070    -1.4320070
  H        0.3126810    -0.3486860     2.0312100
  H       -1.2698770     0.4499320     1.9127640
  H       -1.1475680    -1.3248790     1.7354010
  H       -3.8251770     0.1584960    -0.8113200
  H       -3.2293180     0.3182590     0.8332870
  H       -2.7570620     1.4961540    -0.4168730
units angstrom
no_reorient  #important for SAPT in psi4, default
symmetry c1  #important for SAPT in psi4, default
}

set PROPERTIES_ORIGIN ["COM"]
properties('MP2/aug-cc-pvtz', properties = ['dipole'])
--------------------------------------------------------------------------

    Molecular point group: c1
  Charge       = 1
  Multiplicity = 1
  Basis Set: AUG-CC-PVTZ
    Blend: AUG-CC-PVTZ
  Basis Set: (AUG-CC-PVTZ AUX)
    Blend: AUG-CC-PVTZ-JKFIT

    Orbital Energies [Eh]
    ---------------------

    Doubly Occupied:

       1A    -15.841720     2A    -11.441079     3A    -11.439665
       4A    -11.436821     5A    -11.433850     6A    -11.378148
       7A    -11.377708     8A    -11.373989     9A    -11.366775
      10A     -1.479496    11A     -1.250780    12A     -1.200248
      13A     -1.188165    14A     -1.139871    15A     -1.058190
      16A     -1.029752    17A     -0.984955    18A     -0.926403
      19A     -0.865875    20A     -0.837829    21A     -0.815386
      22A     -0.804834    23A     -0.770962    24A     -0.754338
      25A     -0.743683    26A     -0.722321    27A     -0.719410
      28A     -0.705533    29A     -0.698691    30A     -0.679426
      31A     -0.670886    32A     -0.665172    33A     -0.660658
      34A     -0.618371    35A     -0.616772    36A     -0.611188

  @DF-RHF Final Energy:  -367.79693244930110

   => Energetics <=

    Nuclear Repulsion Energy =            525.7973019186763395
    One-Electron Energy =               -1526.5705727756708256
    Two-Electron Energy =                 632.9763384076934472
    Total Energy =                       -367.7969324493010390
  Basis Set: (AUG-CC-PVTZ AUX)
    Blend: AUG-CC-PVTZ-RI
    Molecular point group: c1

    Geometry (in Angstrom), charge = 1, multiplicity = 1:

       Center              X                  Y                   Z               Mass
    ------------   -----------------  -----------------  -----------------  -----------------
         N           -0.498970997897    -0.216825462606     0.066524471109    14.003074004430
         C            0.489074602103    -1.276550262606    -0.458930228891    12.000000000000
         C            0.018339002103     1.167131537394    -0.277193528891    12.000000000000
         C            1.906227002103    -1.046222462606     0.017913471109    12.000000000000
         C            1.439099002103     1.406087537394     0.211168471109    12.000000000000
         C           -1.829536997897    -0.461926462606    -0.631716528891    12.000000000000
         C            2.399267002103     0.354100537394    -0.336294528891    12.000000000000
         C           -0.673799997897    -0.366122462606     1.547221471109    12.000000000000
         C           -2.970665997897     0.445874537394    -0.209457528891    12.000000000000
         H            0.423264002103    -1.198794462606    -1.543442528891     1.007825032230
         H            0.080577002103    -2.234787462606    -0.143413528891     1.007825032230
         H           -0.682805997897     1.886523537394     0.149349471109     1.007825032230
         H           -0.028682997897     1.238987537394    -1.368887528891     1.007825032230
         H            2.518099002103    -1.810810462606    -0.473160528891     1.007825032230
         H            2.000160002103    -1.230813462606     1.093046471109     1.007825032230
         H            1.473885002103     1.433380537394     1.305659471109     1.007825032230
         H            1.725844002103     2.408113537394    -0.125886528891     1.007825032230
         H           -1.624489997897    -0.356253462606    -1.700097528891     1.007825032230
         H           -2.074417997897    -1.509549462606    -0.435024528891     1.007825032230
         H            3.405242002103     0.513616537394     0.062051471109     1.007825032230
         H            2.470261002103     0.454321537394    -1.426620528891     1.007825032230
         H            0.295799002103    -0.345071462606     2.036596471109     1.007825032230
         H           -1.286758997897     0.453546537394     1.918150471109     1.007825032230
         H           -1.164449997897    -1.321264462606     1.740787471109     1.007825032230
         H           -3.842058997897     0.162110537394    -0.805933528891     1.007825032230
         H           -3.246199997897     0.321873537394     0.838673471109     1.007825032230
         H           -2.773943997897     1.499768537394    -0.411486528891     1.007825032230

  Basis Set: AUG-CC-PVTZ
    Blend: AUG-CC-PVTZ
  Basis Set: (AUG-CC-PVTZ AUX)
    Blend: AUG-CC-PVTZ-JKFIT
	 Reference Energy          =    -367.7969324493010959 [Eh]
	 Singles Energy            =      -0.0000000000000000 [Eh]
	 Same-Spin Energy          =      -0.3937035399760533 [Eh]
	 Opposite-Spin Energy      =      -1.4092851918553753 [Eh]
	 Correlation Energy        =      -1.8029887318314286 [Eh]
	 Total Energy              =    -369.5999211811325154 [Eh]

	 ================> DF-SCS-MP2 Energies <==================
	-----------------------------------------------------------
	 SCS Same-Spin Scale       =       0.3333333333333333 [-]
	 SCS Opposite-Spin Scale   =       1.2000000000000000 [-]
	 SCS Same-Spin Energy      =      -0.1312345133253511 [Eh]
	 SCS Opposite-Spin Energy  =      -1.6911422302264503 [Eh]
	 SCS Correlation Energy    =      -1.8223767435518015 [Eh]
	 SCS Total Energy          =    -369.6193091928528816 [Eh]
	-----------------------------------------------------------

  Dipole Moment: [D]
     X:    -1.4578      Y:    -0.5737      Z:     0.2011     Total:     1.5795

*** Psi4 exiting successfully. Buy a developer a beer!
