                               Psi4 1.3.2 release

  ==> Input File <==

--------------------------------------------------------------------------
#psi4
#
memory 32 gb

molecule  {
1 1
  N       -0.4820890    -0.2204400     0.0611380
  C        0.5085617    -1.2469938    -0.4669748
  C        0.0352210     1.1635170    -0.2825800
  C        1.9231090    -1.0498370     0.0125270
  C        1.4559810     1.4024730     0.2057820
  C       -1.8126550    -0.4655410    -0.6371030
  C        2.4161490     0.3504860    -0.3416810
  C       -0.6569180    -0.3697370     1.5418350
  C       -2.9537840     0.4422600    -0.2148440
  H        0.4401460    -1.2024090    -1.5488290
  H        0.0974590    -2.2384020    -0.1488000
  H       -0.6659240     1.8829090     0.1439630
  H       -0.0118010     1.2353730    -1.3742740
  H        2.5349810    -1.8144250    -0.4785470
  H        2.0170420    -1.2344280     1.0876600
  H        1.4907670     1.4297660     1.3002730
  H        1.7427260     2.4044990    -0.1312730
  H       -1.6076080    -0.3598680    -1.7054840
  H       -2.0575360    -1.5131640    -0.4404110
  H        3.4221240     0.5100020     0.0566650
  H        2.4871430     0.4507070    -1.4320070
  H        0.3126810    -0.3486860     2.0312100
  H       -1.2698770     0.4499320     1.9127640
  H       -1.1475680    -1.3248790     1.7354010
  H       -3.8251770     0.1584960    -0.8113200
  H       -3.2293180     0.3182590     0.8332870
  H       -2.7570620     1.4961540    -0.4168730
units angstrom
no_reorient  #important for SAPT in psi4, default
symmetry c1  #important for SAPT in psi4, default
}

set PROPERTIES_ORIGIN ["COM"]
properties('MP2/aug-cc-pvtz', properties = ['dipole'])
--------------------------------------------------------------------------

    Molecular point group: c1
  Charge       = 1
  Multiplicity = 1
  Basis Set: AUG-CC-PVTZ
    Blend: AUG-CC-PVTZ
  Basis Set: (AUG-CC-PVTZ AUX)
    Blend: AUG-CC-PVTZ-JKFIT

    Orbital Energies [Eh]
    ---------------------

    Doubly Occupied:

       1A    -15.843167     2A    -11.441830     3A    -11.439352
       4A    -11.437140     5A    -11.434665     6A    -11.377936
       7A    -11.377549     8A    -11.374601     9A    -11.366071
      10A     -1.483557    11A     -1.251889    12A     -1.200147
      13A     -1.188985    14A     -1.141579    15A     -1.058461
      16A     -1.028515    17A     -0.986584    18A     -0.926985
      19A     -0.866490    20A     -0.839273    21A     -0.816259
      22A     -0.803266    23A     -0.771624    24A     -0.752664
      25A     -0.743807    26A     -0.722955    27A     -0.719923
      28A     -0.703616    29A     -0.699273    30A     -0.681274
      31A     -0.671476    32A     -0.665510    33A     -0.661195
      34A     -0.618626    35A     -0.614713    36A     -0.610960

  @DF-RHF Final Energy:  -367.79619895811749

   => Energetics <=

    Nuclear Repulsion Energy =            526.3367462831338344
    One-Electron Energy =               -1527.6220552812551432
    Two-Electron Energy =                 633.4891100400038795
    Total Energy =                       -367.7961989581174294
  Basis Set: (AUG-CC-PVTZ AUX)
    Blend: AUG-CC-PVTZ-RI
    Molecular point group: c1

    Geometry (in Angstrom), charge = 1, multiplicity = 1:

       Center              X                  Y                   Z               Mass
    ------------   -----------------  -----------------  -----------------  -----------------
         N           -0.499214951717    -0.219931751112     0.066773388099    14.003074004430
         C            0.491435748283    -1.246485551112    -0.461339411901    12.000000000000
         C            0.018095048283     1.164025248888    -0.276944611901    12.000000000000
         C            1.905983048283    -1.049328751112     0.018162388099    12.000000000000
         C            1.438855048283     1.402981248888     0.211417388099    12.000000000000
         C           -1.829780951717    -0.465032751112    -0.631467611901    12.000000000000
         C            2.399023048283     0.350994248888    -0.336045611901    12.000000000000
         C           -0.674043951717    -0.369228751112     1.547470388099    12.000000000000
         C           -2.970909951717     0.442768248888    -0.209208611901    12.000000000000
         H            0.423020048283    -1.201900751112    -1.543193611901     1.007825032230
         H            0.080333048283    -2.237893751112    -0.143164611901     1.007825032230
         H           -0.683049951717     1.883417248888     0.149598388099     1.007825032230
         H           -0.028926951717     1.235881248888    -1.368638611901     1.007825032230
         H            2.517855048283    -1.813916751112    -0.472911611901     1.007825032230
         H            1.999916048283    -1.233919751112     1.093295388099     1.007825032230
         H            1.473641048283     1.430274248888     1.305908388099     1.007825032230
         H            1.725600048283     2.405007248888    -0.125637611901     1.007825032230
         H           -1.624733951717    -0.359359751112    -1.699848611901     1.007825032230
         H           -2.074661951717    -1.512655751112    -0.434775611901     1.007825032230
         H            3.404998048283     0.510510248888     0.062300388099     1.007825032230
         H            2.470017048283     0.451215248888    -1.426371611901     1.007825032230
         H            0.295555048283    -0.348177751112     2.036845388099     1.007825032230
         H           -1.287002951717     0.450440248888     1.918399388099     1.007825032230
         H           -1.164693951717    -1.324370751112     1.741036388099     1.007825032230
         H           -3.842302951717     0.159004248888    -0.805684611901     1.007825032230
         H           -3.246443951717     0.318767248888     0.838922388099     1.007825032230
         H           -2.774187951717     1.496662248888    -0.411237611901     1.007825032230

  Basis Set: AUG-CC-PVTZ
    Blend: AUG-CC-PVTZ
  Basis Set: (AUG-CC-PVTZ AUX)
    Blend: AUG-CC-PVTZ-JKFIT
	 Reference Energy          =    -367.7961989581174862 [Eh]
	 Singles Energy            =      -0.0000000000000000 [Eh]
	 Same-Spin Energy          =      -0.3939300367590816 [Eh]
	 Opposite-Spin Energy      =      -1.4094069076864062 [Eh]
	 Correlation Energy        =      -1.8033369444454879 [Eh]
	 Total Energy              =    -369.5995359025629909 [Eh]

	 ================> DF-SCS-MP2 Energies <==================
	-----------------------------------------------------------
	 SCS Same-Spin Scale       =       0.3333333333333333 [-]
	 SCS Opposite-Spin Scale   =       1.2000000000000000 [-]
	 SCS Same-Spin Energy      =      -0.1313100122530272 [Eh]
	 SCS Opposite-Spin Energy  =      -1.6912882892236873 [Eh]
	 SCS Correlation Energy    =      -1.8225983014767144 [Eh]
	 SCS Total Energy          =    -369.6187972595942028 [Eh]
	-----------------------------------------------------------

  Dipole Moment: [D]
     X:    -1.4886      Y:    -0.5498      Z:     0.2124     Total:     1.6010

*** Psi4 exiting successfully. Buy a developer a beer!
