                               Psi4 1.3.2 release

  ==> Input File <==

--------------------------------------------------------------------------
#psi4
#
memory 32 gb

molecule  {
1 1
  N       -0.4758581    -0.2273035     0.0860170
  C        0.4931350    -1.2664130    -0.4574980
  C        0.0352210     1.1635170    -0.2825800
  C        1.9231090    -1.0498370     0.0125270
  C        1.4559810     1.4024730     0.2057820
  C       -1.8126550    -0.4655410    -0.6371030
  C        2.4161490     0.3504860    -0.3416810
  C       -0.6569180    -0.3697370     1.5418350
  C       -2.9537840     0.4422600    -0.2148440
  H        0.4401460    -1.2024090    -1.5488290
  H        0.0974590    -2.2384020    -0.1488000
  H       -0.6659240     1.8829090     0.1439630
  H       -0.0118010     1.2353730    -1.3742740
  H        2.5349810    -1.8144250    -0.4785470
  H        2.0170420    -1.2344280     1.0876600
  H        1.4907670     1.4297660     1.3002730
  H        1.7427260     2.4044990    -0.1312730
  H       -1.6076080    -0.3598680    -1.7054840
  H       -2.0575360    -1.5131640    -0.4404110
  H        3.4221240     0.5100020     0.0566650
  H        2.4871430     0.4507070    -1.4320070
  H        0.3126810    -0.3486860     2.0312100
  H       -1.2698770     0.4499320     1.9127640
  H       -1.1475680    -1.3248790     1.7354010
  H       -3.8251770     0.1584960    -0.8113200
  H       -3.2293180     0.3182590     0.8332870
  H       -2.7570620     1.4961540    -0.4168730
units angstrom
no_reorient  #important for SAPT in psi4, default
symmetry c1  #important for SAPT in psi4, default
}

set PROPERTIES_ORIGIN ["COM"]
properties('MP2/aug-cc-pvtz', properties = ['dipole'])
--------------------------------------------------------------------------

    Molecular point group: c1
  Charge       = 1
  Multiplicity = 1
  Basis Set: AUG-CC-PVTZ
    Blend: AUG-CC-PVTZ
  Basis Set: (AUG-CC-PVTZ AUX)
    Blend: AUG-CC-PVTZ-JKFIT

    Orbital Energies [Eh]
    ---------------------

    Doubly Occupied:

       1A    -15.842562     2A    -11.442984     3A    -11.438577
       4A    -11.438274     5A    -11.432471     6A    -11.377595
       7A    -11.377548     8A    -11.374668     9A    -11.366165
      10A     -1.483465    11A     -1.249951    12A     -1.199588
      13A     -1.190210    14A     -1.141911    15A     -1.056307
      16A     -1.028420    17A     -0.986436    18A     -0.926082
      19A     -0.867399    20A     -0.839956    21A     -0.815934
      22A     -0.804230    23A     -0.773032    24A     -0.752896
      25A     -0.743401    26A     -0.720590    27A     -0.719068
      28A     -0.704792    29A     -0.701855    30A     -0.679082
      31A     -0.671975    32A     -0.664802    33A     -0.661515
      34A     -0.617570    35A     -0.613694    36A     -0.611728

  @DF-RHF Final Energy:  -367.79656462040072

   => Energetics <=

    Nuclear Repulsion Energy =            526.1248086288098875
    One-Electron Energy =               -1527.2092781860096693
    Two-Electron Energy =                 633.2879049367990092
    Total Energy =                       -367.7965646204007726
  Basis Set: (AUG-CC-PVTZ AUX)
    Blend: AUG-CC-PVTZ-RI
    Molecular point group: c1

    Geometry (in Angstrom), charge = 1, multiplicity = 1:

       Center              X                  Y                   Z               Mass
    ------------   -----------------  -----------------  -----------------  -----------------
         N           -0.492220311677    -0.224226729042     0.088046254764    14.003074004430
         C            0.476772788323    -1.263336229042    -0.455468745236    12.000000000000
         C            0.018858788323     1.166593770958    -0.280550745236    12.000000000000
         C            1.906746788323    -1.046760229042     0.014556254764    12.000000000000
         C            1.439618788323     1.405549770958     0.207811254764    12.000000000000
         C           -1.829017211677    -0.462464229042    -0.635073745236    12.000000000000
         C            2.399786788323     0.353562770958    -0.339651745236    12.000000000000
         C           -0.673280211677    -0.366660229042     1.543864254764    12.000000000000
         C           -2.970146211677     0.445336770958    -0.212814745236    12.000000000000
         H            0.423783788323    -1.199332229042    -1.546799745236     1.007825032230
         H            0.081096788323    -2.235325229042    -0.146770745236     1.007825032230
         H           -0.682286211677     1.885985770958     0.145992254764     1.007825032230
         H           -0.028163211677     1.238449770958    -1.372244745236     1.007825032230
         H            2.518618788323    -1.811348229042    -0.476517745236     1.007825032230
         H            2.000679788323    -1.231351229042     1.089689254764     1.007825032230
         H            1.474404788323     1.432842770958     1.302302254764     1.007825032230
         H            1.726363788323     2.407575770958    -0.129243745236     1.007825032230
         H           -1.623970211677    -0.356791229042    -1.703454745236     1.007825032230
         H           -2.073898211677    -1.510087229042    -0.438381745236     1.007825032230
         H            3.405761788323     0.513078770958     0.058694254764     1.007825032230
         H            2.470780788323     0.453783770958    -1.429977745236     1.007825032230
         H            0.296318788323    -0.345609229042     2.033239254764     1.007825032230
         H           -1.286239211677     0.453008770958     1.914793254764     1.007825032230
         H           -1.163930211677    -1.321802229042     1.737430254764     1.007825032230
         H           -3.841539211677     0.161572770958    -0.809290745236     1.007825032230
         H           -3.245680211677     0.321335770958     0.835316254764     1.007825032230
         H           -2.773424211677     1.499230770958    -0.414843745236     1.007825032230

  Basis Set: AUG-CC-PVTZ
    Blend: AUG-CC-PVTZ
  Basis Set: (AUG-CC-PVTZ AUX)
    Blend: AUG-CC-PVTZ-JKFIT
	 Reference Energy          =    -367.7965646204007157 [Eh]
	 Singles Energy            =      -0.0000000000000000 [Eh]
	 Same-Spin Energy          =      -0.3937957556848556 [Eh]
	 Opposite-Spin Energy      =      -1.4092748177816097 [Eh]
	 Correlation Energy        =      -1.8030705734664654 [Eh]
	 Total Energy              =    -369.5996351938671864 [Eh]

	 ================> DF-SCS-MP2 Energies <==================
	-----------------------------------------------------------
	 SCS Same-Spin Scale       =       0.3333333333333333 [-]
	 SCS Opposite-Spin Scale   =       1.2000000000000000 [-]
	 SCS Same-Spin Energy      =      -0.1312652518949519 [Eh]
	 SCS Opposite-Spin Energy  =      -1.6911297813379316 [Eh]
	 SCS Correlation Energy    =      -1.8223950332328833 [Eh]
	 SCS Total Energy          =    -369.6189596536336239 [Eh]
	-----------------------------------------------------------

  Dipole Moment: [D]
     X:    -1.5121      Y:    -0.5359      Z:     0.1618     Total:     1.6124

*** Psi4 exiting successfully. Buy a developer a beer!
