                               Psi4 1.4a3.dev225

  ==> Input File <==

--------------------------------------------------------------------------
#psi4
#
memory 32 gb

molecule  {
1 1
  N       -0.4820890    -0.2204400     0.0611380
  C        0.4610810    -1.2320335    -0.4404513
  C        0.0352210     1.1635170    -0.2825800
  C        1.9231090    -1.0498370     0.0125270
  C        1.4559810     1.4024730     0.2057820
  C       -1.8126550    -0.4655410    -0.6371030
  C        2.4161490     0.3504860    -0.3416810
  C       -0.6569180    -0.3697370     1.5418350
  C       -2.9537840     0.4422600    -0.2148440
  H        0.4401460    -1.2024090    -1.5488290
  H        0.0974590    -2.2384020    -0.1488000
  H       -0.6659240     1.8829090     0.1439630
  H       -0.0118010     1.2353730    -1.3742740
  H        2.5349810    -1.8144250    -0.4785470
  H        2.0170420    -1.2344280     1.0876600
  H        1.4907670     1.4297660     1.3002730
  H        1.7427260     2.4044990    -0.1312730
  H       -1.6076080    -0.3598680    -1.7054840
  H       -2.0575360    -1.5131640    -0.4404110
  H        3.4221240     0.5100020     0.0566650
  H        2.4871430     0.4507070    -1.4320070
  H        0.3126810    -0.3486860     2.0312100
  H       -1.2698770     0.4499320     1.9127640
  H       -1.1475680    -1.3248790     1.7354010
  H       -3.8251770     0.1584960    -0.8113200
  H       -3.2293180     0.3182590     0.8332870
  H       -2.7570620     1.4961540    -0.4168730
units angstrom
no_reorient  #important for SAPT in psi4, default
symmetry c1  #important for SAPT in psi4, default
}

set PROPERTIES_ORIGIN ["COM"]
properties('MP2/aug-cc-pvtz', properties = ['dipole'])
--------------------------------------------------------------------------

    Molecular point group: c1
  Charge       = 1
  Multiplicity = 1
  Basis Set: AUG-CC-PVTZ
    Blend: AUG-CC-PVTZ
  Basis Set: (AUG-CC-PVTZ AUX)
    Blend: AUG-CC-PVTZ-JKFIT

    Orbital Energies [Eh]
    ---------------------

    Doubly Occupied:

       1A    -15.845991     2A    -11.442947     3A    -11.438903
       4A    -11.436548     5A    -11.436159     6A    -11.378325
       7A    -11.378094     8A    -11.375349     9A    -11.365258
      10A     -1.493972    11A     -1.249348    12A     -1.199899
      13A     -1.189336    14A     -1.144733    15A     -1.057853
      16A     -1.030432    17A     -0.989288    18A     -0.925194
      19A     -0.869845    20A     -0.841203    21A     -0.819057
      22A     -0.802589    23A     -0.771842    24A     -0.753129
      25A     -0.743021    26A     -0.724891    27A     -0.720686
      28A     -0.705421    29A     -0.696047    30A     -0.681144
      31A     -0.672941    32A     -0.662423    33A     -0.661916
      34A     -0.616559    35A     -0.614447    36A     -0.609905

  @DF-RHF Final Energy:  -367.79539055191759

   => Energetics <=

    Nuclear Repulsion Energy =            526.9580859118584613
    One-Electron Energy =               -1528.8175648793262553
    Two-Electron Energy =                 634.0640884155501453
    Total Energy =                       -367.7953905519176487
  Basis Set: (AUG-CC-PVTZ AUX)
    Blend: AUG-CC-PVTZ-RI
    Molecular point group: c1

    Geometry (in Angstrom), charge = 1, multiplicity = 1:

       Center              X                  Y                   Z               Mass
    ------------   -----------------  -----------------  -----------------  -----------------
         N           -0.494768635578    -0.221332703990     0.064289602770    14.003074004430
         C            0.448401364422    -1.232926203990    -0.437299697230    12.000000000000
         C            0.022541364422     1.162624296010    -0.279428397230    12.000000000000
         C            1.910429364422    -1.050729703990     0.015678602770    12.000000000000
         C            1.443301364422     1.401580296010     0.208933602770    12.000000000000
         C           -1.825334635578    -0.466433703990    -0.633951397230    12.000000000000
         C            2.403469364422     0.349593296010    -0.338529397230    12.000000000000
         C           -0.669597635578    -0.370629703990     1.544986602770    12.000000000000
         C           -2.966463635578     0.441367296010    -0.211692397230    12.000000000000
         H            0.427466364422    -1.203301703990    -1.545677397230     1.007825032230
         H            0.084779364422    -2.239294703990    -0.145648397230     1.007825032230
         H           -0.678603635578     1.882016296010     0.147114602770     1.007825032230
         H           -0.024480635578     1.234480296010    -1.371122397230     1.007825032230
         H            2.522301364422    -1.815317703990    -0.475395397230     1.007825032230
         H            2.004362364422    -1.235320703990     1.090811602770     1.007825032230
         H            1.478087364422     1.428873296010     1.303424602770     1.007825032230
         H            1.730046364422     2.403606296010    -0.128121397230     1.007825032230
         H           -1.620287635578    -0.360760703990    -1.702332397230     1.007825032230
         H           -2.070215635578    -1.514056703990    -0.437259397230     1.007825032230
         H            3.409444364422     0.509109296010     0.059816602770     1.007825032230
         H            2.474463364422     0.449814296010    -1.428855397230     1.007825032230
         H            0.300001364422    -0.349578703990     2.034361602770     1.007825032230
         H           -1.282556635578     0.449039296010     1.915915602770     1.007825032230
         H           -1.160247635578    -1.325771703990     1.738552602770     1.007825032230
         H           -3.837856635578     0.157603296010    -0.808168397230     1.007825032230
         H           -3.241997635578     0.317366296010     0.836438602770     1.007825032230
         H           -2.769741635578     1.495261296010    -0.413721397230     1.007825032230

  Basis Set: AUG-CC-PVTZ
    Blend: AUG-CC-PVTZ
  Basis Set: (AUG-CC-PVTZ AUX)
    Blend: AUG-CC-PVTZ-JKFIT
	 Reference Energy          =    -367.7953905519175919 [Eh]
	 Singles Energy            =      -0.0000000000000000 [Eh]
	 Same-Spin Energy          =      -0.3939806411631304 [Eh]
	 Opposite-Spin Energy      =      -1.4092429853521087 [Eh]
	 Correlation Energy        =      -1.8032236265152390 [Eh]
	 Total Energy              =    -369.5986141784328538 [Eh]

	 ================> DF-SCS-MP2 Energies <==================
	-----------------------------------------------------------
	 SCS Same-Spin Scale       =       0.3333333333333333 [-]
	 SCS Opposite-Spin Scale   =       1.2000000000000000 [-]
	 SCS Same-Spin Energy      =      -0.1313268803877101 [Eh]
	 SCS Opposite-Spin Energy  =      -1.6910915824225303 [Eh]
	 SCS Correlation Energy    =      -1.8224184628102404 [Eh]
	 SCS Total Energy          =    -369.6178090147278112 [Eh]
	-----------------------------------------------------------

  Dipole Moment: [D]
     X:    -1.5652      Y:    -0.4959      Z:     0.2402     Total:     1.6593

*** Psi4 exiting successfully. Buy a developer a beer!
