                               Psi4 1.3.2 release

  ==> Input File <==

--------------------------------------------------------------------------
#psi4
#
memory 32 gb

molecule  {
1 1
  N       -0.4820890    -0.2204400     0.0611380
  C        0.4931350    -1.2664130    -0.4574980
  C        0.0352210     1.1635170    -0.2825800
  C        1.9231090    -1.0498370     0.0125270
  C        1.4559810     1.4024730     0.2057820
  C       -1.7361785    -0.4382538    -0.7742288
  C        2.4161490     0.3504860    -0.3416810
  C       -0.6569180    -0.3697370     1.5418350
  C       -2.9537840     0.4422600    -0.2148440
  H        0.4401460    -1.2024090    -1.5488290
  H        0.0974590    -2.2384020    -0.1488000
  H       -0.6659240     1.8829090     0.1439630
  H       -0.0118010     1.2353730    -1.3742740
  H        2.5349810    -1.8144250    -0.4785470
  H        2.0170420    -1.2344280     1.0876600
  H        1.4907670     1.4297660     1.3002730
  H        1.7427260     2.4044990    -0.1312730
  H       -1.6076080    -0.3598680    -1.7054840
  H       -2.0575360    -1.5131640    -0.4404110
  H        3.4221240     0.5100020     0.0566650
  H        2.4871430     0.4507070    -1.4320070
  H        0.3126810    -0.3486860     2.0312100
  H       -1.2698770     0.4499320     1.9127640
  H       -1.1475680    -1.3248790     1.7354010
  H       -3.8251770     0.1584960    -0.8113200
  H       -3.2293180     0.3182590     0.8332870
  H       -2.7570620     1.4961540    -0.4168730
units angstrom
no_reorient  #important for SAPT in psi4, default
symmetry c1  #important for SAPT in psi4, default
}

set PROPERTIES_ORIGIN ["COM"]
properties('MP2/aug-cc-pvtz', properties = ['dipole'])
--------------------------------------------------------------------------

    Molecular point group: c1
  Charge       = 1
  Multiplicity = 1
  Basis Set: AUG-CC-PVTZ
    Blend: AUG-CC-PVTZ
  Basis Set: (AUG-CC-PVTZ AUX)
    Blend: AUG-CC-PVTZ-JKFIT

    Orbital Energies [Eh]
    ---------------------

    Doubly Occupied:

       1A    -15.844289     2A    -11.441002     3A    -11.438013
       4A    -11.437297     5A    -11.437266     6A    -11.378005
       7A    -11.377295     8A    -11.377196     9A    -11.366100
      10A     -1.484102    11A     -1.247723    12A     -1.199835
      13A     -1.185296    14A     -1.139354    15A     -1.056764
      16A     -1.029937    17A     -0.997724    18A     -0.926415
      19A     -0.880573    20A     -0.835939    21A     -0.818235
      22A     -0.800961    23A     -0.773045    24A     -0.752134
      25A     -0.741774    26A     -0.729762    27A     -0.721777
      28A     -0.702626    29A     -0.698871    30A     -0.688839
      31A     -0.670010    32A     -0.664968    33A     -0.640825
      34A     -0.617566    35A     -0.613070    36A     -0.608010

  @DF-RHF Final Energy:  -367.76339898984230

   => Energetics <=

    Nuclear Repulsion Energy =            525.8705032428636059
    One-Electron Energy =               -1526.6226086835974911
    Two-Electron Energy =                 632.9887064508915273
    Total Energy =                       -367.7633989898423579
  Basis Set: (AUG-CC-PVTZ AUX)
    Blend: AUG-CC-PVTZ-RI
    Molecular point group: c1

    Geometry (in Angstrom), charge = 1, multiplicity = 1:

       Center              X                  Y                   Z               Mass
    ------------   -----------------  -----------------  -----------------  -----------------
         N           -0.504931942221    -0.220668547650     0.078727041033    14.003074004430
         C            0.470292057779    -1.266641547650    -0.439908958967    12.000000000000
         C            0.012378057779     1.163288452350    -0.264990958967    12.000000000000
         C            1.900266057779    -1.050065547650     0.030116041033    12.000000000000
         C            1.433138057779     1.402244452350     0.223371041033    12.000000000000
         C           -1.759021442221    -0.438482347650    -0.756639758967    12.000000000000
         C            2.393306057779     0.350257452350    -0.324091958967    12.000000000000
         C           -0.679760942221    -0.369965547650     1.559424041033    12.000000000000
         C           -2.976626942221     0.442031452350    -0.197254958967    12.000000000000
         H            0.417303057779    -1.202637547650    -1.531239958967     1.007825032230
         H            0.074616057779    -2.238630547650    -0.131210958967     1.007825032230
         H           -0.688766942221     1.882680452350     0.161552041033     1.007825032230
         H           -0.034643942221     1.235144452350    -1.356684958967     1.007825032230
         H            2.512138057779    -1.814653547650    -0.460957958967     1.007825032230
         H            1.994199057779    -1.234656547650     1.105249041033     1.007825032230
         H            1.467924057779     1.429537452350     1.317862041033     1.007825032230
         H            1.719883057779     2.404270452350    -0.113683958967     1.007825032230
         H           -1.630450942221    -0.360096547650    -1.687894958967     1.007825032230
         H           -2.080378942221    -1.513392547650    -0.422821958967     1.007825032230
         H            3.399281057779     0.509773452350     0.074254041033     1.007825032230
         H            2.464300057779     0.450478452350    -1.414417958967     1.007825032230
         H            0.289838057779    -0.348914547650     2.048799041033     1.007825032230
         H           -1.292719942221     0.449703452350     1.930353041033     1.007825032230
         H           -1.170410942221    -1.325107547650     1.752990041033     1.007825032230
         H           -3.848019942221     0.158267452350    -0.793730958967     1.007825032230
         H           -3.252160942221     0.318030452350     0.850876041033     1.007825032230
         H           -2.779904942221     1.495925452350    -0.399283958967     1.007825032230

  Basis Set: AUG-CC-PVTZ
    Blend: AUG-CC-PVTZ
  Basis Set: (AUG-CC-PVTZ AUX)
    Blend: AUG-CC-PVTZ-JKFIT
	 Reference Energy          =    -367.7633989898423010 [Eh]
	 Singles Energy            =      -0.0000000000000000 [Eh]
	 Same-Spin Energy          =      -0.3936940072429727 [Eh]
	 Opposite-Spin Energy      =      -1.4104341043359689 [Eh]
	 Correlation Energy        =      -1.8041281115789416 [Eh]
	 Total Energy              =    -369.5675271014212626 [Eh]

	 ================> DF-SCS-MP2 Energies <==================
	-----------------------------------------------------------
	 SCS Same-Spin Scale       =       0.3333333333333333 [-]
	 SCS Opposite-Spin Scale   =       1.2000000000000000 [-]
	 SCS Same-Spin Energy      =      -0.1312313357476576 [Eh]
	 SCS Opposite-Spin Energy  =      -1.6925209252031628 [Eh]
	 SCS Correlation Energy    =      -1.8237522609508203 [Eh]
	 SCS Total Energy          =    -369.5871512507931129 [Eh]
	-----------------------------------------------------------

  Dipole Moment: [D]
     X:    -1.4569      Y:    -0.5486      Z:     0.2607     Total:     1.5785

*** Psi4 exiting successfully. Buy a developer a beer!
