                               Psi4 1.3.2 release

  ==> Input File <==

--------------------------------------------------------------------------
#psi4
#
memory 32 gb

molecule  {
1 1
  N       -0.4932933    -0.2007934     0.0750868
  C        0.4931350    -1.2664130    -0.4574980
  C        0.0352210     1.1635170    -0.2825800
  C        1.9231090    -1.0498370     0.0125270
  C        1.4559810     1.4024730     0.2057820
  C       -1.8126550    -0.4655410    -0.6371030
  C        2.4161490     0.3504860    -0.3416810
  C       -0.6569180    -0.3697370     1.5418350
  C       -2.9537840     0.4422600    -0.2148440
  H        0.4401460    -1.2024090    -1.5488290
  H        0.0974590    -2.2384020    -0.1488000
  H       -0.6659240     1.8829090     0.1439630
  H       -0.0118010     1.2353730    -1.3742740
  H        2.5349810    -1.8144250    -0.4785470
  H        2.0170420    -1.2344280     1.0876600
  H        1.4907670     1.4297660     1.3002730
  H        1.7427260     2.4044990    -0.1312730
  H       -1.6076080    -0.3598680    -1.7054840
  H       -2.0575360    -1.5131640    -0.4404110
  H        3.4221240     0.5100020     0.0566650
  H        2.4871430     0.4507070    -1.4320070
  H        0.3126810    -0.3486860     2.0312100
  H       -1.2698770     0.4499320     1.9127640
  H       -1.1475680    -1.3248790     1.7354010
  H       -3.8251770     0.1584960    -0.8113200
  H       -3.2293180     0.3182590     0.8332870
  H       -2.7570620     1.4961540    -0.4168730
units angstrom
no_reorient  #important for SAPT in psi4, default
symmetry c1  #important for SAPT in psi4, default
}

set PROPERTIES_ORIGIN ["COM"]
properties('MP2/aug-cc-pvtz', properties = ['dipole'])
--------------------------------------------------------------------------

    Molecular point group: c1
  Charge       = 1
  Multiplicity = 1
  Basis Set: AUG-CC-PVTZ
    Blend: AUG-CC-PVTZ
  Basis Set: (AUG-CC-PVTZ AUX)
    Blend: AUG-CC-PVTZ-JKFIT

    Orbital Energies [Eh]
    ---------------------

    Doubly Occupied:

       1A    -15.842733     2A    -11.441684     3A    -11.440774
       4A    -11.436491     5A    -11.433435     6A    -11.378462
       7A    -11.377817     8A    -11.373577     9A    -11.366423
      10A     -1.483301    11A     -1.250609    12A     -1.199032
      13A     -1.189773    14A     -1.141240    15A     -1.057613
      16A     -1.030120    17A     -0.984632    18A     -0.926188
      19A     -0.867510    20A     -0.838462    21A     -0.817941
      22A     -0.804036    23A     -0.771136    24A     -0.753622
      25A     -0.743846    26A     -0.722336    27A     -0.720141
      28A     -0.704429    29A     -0.699714    30A     -0.678392
      31A     -0.671503    32A     -0.664647    33A     -0.661197
      34A     -0.617929    35A     -0.616124    36A     -0.610648

  @DF-RHF Final Energy:  -367.79660752179740

   => Energetics <=

    Nuclear Repulsion Energy =            526.1030557731224917
    One-Electron Energy =               -1527.1642957744873002
    Two-Electron Energy =                 633.2646324795673536
    Total Energy =                       -367.7966075217974549
  Basis Set: (AUG-CC-PVTZ AUX)
    Blend: AUG-CC-PVTZ-RI
    Molecular point group: c1

    Geometry (in Angstrom), charge = 1, multiplicity = 1:

       Center              X                  Y                   Z               Mass
    ------------   -----------------  -----------------  -----------------  -----------------
         N           -0.507750260244    -0.200613550557     0.078310464878    14.003074004430
         C            0.478678039756    -1.266233150557    -0.454274335122    12.000000000000
         C            0.020764039756     1.163696849443    -0.279356335122    12.000000000000
         C            1.908652039756    -1.049657150557     0.015750664878    12.000000000000
         C            1.441524039756     1.402652849443     0.209005664878    12.000000000000
         C           -1.827111960244    -0.465361150557    -0.633879335122    12.000000000000
         C            2.401692039756     0.350665849443    -0.338457335122    12.000000000000
         C           -0.671374960244    -0.369557150557     1.545058664878    12.000000000000
         C           -2.968240960244     0.442439849443    -0.211620335122    12.000000000000
         H            0.425689039756    -1.202229150557    -1.545605335122     1.007825032230
         H            0.083002039756    -2.238222150557    -0.145576335122     1.007825032230
         H           -0.680380960244     1.883088849443     0.147186664878     1.007825032230
         H           -0.026257960244     1.235552849443    -1.371050335122     1.007825032230
         H            2.520524039756    -1.814245150557    -0.475323335122     1.007825032230
         H            2.002585039756    -1.234248150557     1.090883664878     1.007825032230
         H            1.476310039756     1.429945849443     1.303496664878     1.007825032230
         H            1.728269039756     2.404678849443    -0.128049335122     1.007825032230
         H           -1.622064960244    -0.359688150557    -1.702260335122     1.007825032230
         H           -2.071992960244    -1.512984150557    -0.437187335122     1.007825032230
         H            3.407667039756     0.510181849443     0.059888664878     1.007825032230
         H            2.472686039756     0.450886849443    -1.428783335122     1.007825032230
         H            0.298224039756    -0.348506150557     2.034433664878     1.007825032230
         H           -1.284333960244     0.450111849443     1.915987664878     1.007825032230
         H           -1.162024960244    -1.324699150557     1.738624664878     1.007825032230
         H           -3.839633960244     0.158675849443    -0.808096335122     1.007825032230
         H           -3.243774960244     0.318438849443     0.836510664878     1.007825032230
         H           -2.771518960244     1.496333849443    -0.413649335122     1.007825032230

  Basis Set: AUG-CC-PVTZ
    Blend: AUG-CC-PVTZ
  Basis Set: (AUG-CC-PVTZ AUX)
    Blend: AUG-CC-PVTZ-JKFIT
	 Reference Energy          =    -367.7966075217973980 [Eh]
	 Singles Energy            =      -0.0000000000000000 [Eh]
	 Same-Spin Energy          =      -0.3937807737210557 [Eh]
	 Opposite-Spin Energy      =      -1.4092748963088511 [Eh]
	 Correlation Energy        =      -1.8030556700299067 [Eh]
	 Total Energy              =    -369.5996631918272897 [Eh]

	 ================> DF-SCS-MP2 Energies <==================
	-----------------------------------------------------------
	 SCS Same-Spin Scale       =       0.3333333333333333 [-]
	 SCS Opposite-Spin Scale   =       1.2000000000000000 [-]
	 SCS Same-Spin Energy      =      -0.1312602579070186 [Eh]
	 SCS Opposite-Spin Energy  =      -1.6911298755706212 [Eh]
	 SCS Correlation Energy    =      -1.8223901334776398 [Eh]
	 SCS Total Energy          =    -369.6189976552750522 [Eh]
	-----------------------------------------------------------

  Dipole Moment: [D]
     X:    -1.4599      Y:    -0.5975      Z:     0.1827     Total:     1.5879

*** Psi4 exiting successfully. Buy a developer a beer!
