                               Psi4 1.3.2 release

  ==> Input File <==

--------------------------------------------------------------------------
#psi4
#
memory 32 gb

molecule  {
1 1
  N       -0.4820890    -0.2204400     0.0611380
  C        0.4959073    -1.2757398    -0.4327953
  C        0.0352210     1.1635170    -0.2825800
  C        1.9231090    -1.0498370     0.0125270
  C        1.4559810     1.4024730     0.2057820
  C       -1.8126550    -0.4655410    -0.6371030
  C        2.4161490     0.3504860    -0.3416810
  C       -0.6569180    -0.3697370     1.5418350
  C       -2.9537840     0.4422600    -0.2148440
  H        0.4401460    -1.2024090    -1.5488290
  H        0.0974590    -2.2384020    -0.1488000
  H       -0.6659240     1.8829090     0.1439630
  H       -0.0118010     1.2353730    -1.3742740
  H        2.5349810    -1.8144250    -0.4785470
  H        2.0170420    -1.2344280     1.0876600
  H        1.4907670     1.4297660     1.3002730
  H        1.7427260     2.4044990    -0.1312730
  H       -1.6076080    -0.3598680    -1.7054840
  H       -2.0575360    -1.5131640    -0.4404110
  H        3.4221240     0.5100020     0.0566650
  H        2.4871430     0.4507070    -1.4320070
  H        0.3126810    -0.3486860     2.0312100
  H       -1.2698770     0.4499320     1.9127640
  H       -1.1475680    -1.3248790     1.7354010
  H       -3.8251770     0.1584960    -0.8113200
  H       -3.2293180     0.3182590     0.8332870
  H       -2.7570620     1.4961540    -0.4168730
units angstrom
no_reorient  #important for SAPT in psi4, default
symmetry c1  #important for SAPT in psi4, default
}

set PROPERTIES_ORIGIN ["COM"]
properties('MP2/aug-cc-pvtz', properties = ['dipole'])
--------------------------------------------------------------------------

    Molecular point group: c1
  Charge       = 1
  Multiplicity = 1
  Basis Set: AUG-CC-PVTZ
    Blend: AUG-CC-PVTZ
  Basis Set: (AUG-CC-PVTZ AUX)
    Blend: AUG-CC-PVTZ-JKFIT

    Orbital Energies [Eh]
    ---------------------

    Doubly Occupied:

       1A    -15.843217     2A    -11.441795     3A    -11.439235
       4A    -11.437625     5A    -11.434277     6A    -11.378037
       7A    -11.377789     8A    -11.374558     9A    -11.366751
      10A     -1.483519    11A     -1.250763    12A     -1.201012
      13A     -1.188808    14A     -1.140426    15A     -1.058716
      16A     -1.030221    17A     -0.986672    18A     -0.924862
      19A     -0.867914    20A     -0.837202    21A     -0.816324
      22A     -0.804967    23A     -0.771057    24A     -0.755026
      25A     -0.744001    26A     -0.723171    27A     -0.719763
      28A     -0.707647    29A     -0.694894    30A     -0.680858
      31A     -0.671559    32A     -0.661279    33A     -0.660945
      34A     -0.617688    35A     -0.616822    36A     -0.612772

  @DF-RHF Final Energy:  -367.79633415530003

   => Energetics <=

    Nuclear Repulsion Energy =            526.1586122647458978
    One-Electron Energy =               -1527.2655520062992309
    Two-Electron Energy =                 633.3106055862533594
    Total Energy =                       -367.7963341552999736
  Basis Set: (AUG-CC-PVTZ AUX)
    Blend: AUG-CC-PVTZ-RI
    Molecular point group: c1

    Geometry (in Angstrom), charge = 1, multiplicity = 1:

       Center              X                  Y                   Z               Mass
    ------------   -----------------  -----------------  -----------------  -----------------
         N           -0.498029934164    -0.217239840426     0.063572658909    14.003074004430
         C            0.479966365836    -1.272539640426    -0.430360641091    12.000000000000
         C            0.019280065836     1.166717159574    -0.280145341091    12.000000000000
         C            1.907168065836    -1.046636840426     0.014961658909    12.000000000000
         C            1.440040065836     1.405673159574     0.208216658909    12.000000000000
         C           -1.828595934164    -0.462340840426    -0.634668341091    12.000000000000
         C            2.400208065836     0.353686159574    -0.339246341091    12.000000000000
         C           -0.672858934164    -0.366536840426     1.544269658909    12.000000000000
         C           -2.969724934164     0.445460159574    -0.212409341091    12.000000000000
         H            0.424205065836    -1.199208840426    -1.546394341091     1.007825032230
         H            0.081518065836    -2.235201840426    -0.146365341091     1.007825032230
         H           -0.681864934164     1.886109159574     0.146397658909     1.007825032230
         H           -0.027741934164     1.238573159574    -1.371839341091     1.007825032230
         H            2.519040065836    -1.811224840426    -0.476112341091     1.007825032230
         H            2.001101065836    -1.231227840426     1.090094658909     1.007825032230
         H            1.474826065836     1.432966159574     1.302707658909     1.007825032230
         H            1.726785065836     2.407699159574    -0.128838341091     1.007825032230
         H           -1.623548934164    -0.356667840426    -1.703049341091     1.007825032230
         H           -2.073476934164    -1.509963840426    -0.437976341091     1.007825032230
         H            3.406183065836     0.513202159574     0.059099658909     1.007825032230
         H            2.471202065836     0.453907159574    -1.429572341091     1.007825032230
         H            0.296740065836    -0.345485840426     2.033644658909     1.007825032230
         H           -1.285817934164     0.453132159574     1.915198658909     1.007825032230
         H           -1.163508934164    -1.321678840426     1.737835658909     1.007825032230
         H           -3.841117934164     0.161696159574    -0.808885341091     1.007825032230
         H           -3.245258934164     0.321459159574     0.835721658909     1.007825032230
         H           -2.773002934164     1.499354159574    -0.414438341091     1.007825032230

  Basis Set: AUG-CC-PVTZ
    Blend: AUG-CC-PVTZ
  Basis Set: (AUG-CC-PVTZ AUX)
    Blend: AUG-CC-PVTZ-JKFIT
	 Reference Energy          =    -367.7963341553000305 [Eh]
	 Singles Energy            =      -0.0000000000000000 [Eh]
	 Same-Spin Energy          =      -0.3938406884440684 [Eh]
	 Opposite-Spin Energy      =      -1.4093483136278651 [Eh]
	 Correlation Energy        =      -1.8031890020719334 [Eh]
	 Total Energy              =    -369.5995231573719479 [Eh]

	 ================> DF-SCS-MP2 Energies <==================
	-----------------------------------------------------------
	 SCS Same-Spin Scale       =       0.3333333333333333 [-]
	 SCS Opposite-Spin Scale   =       1.2000000000000000 [-]
	 SCS Same-Spin Energy      =      -0.1312802294813561 [Eh]
	 SCS Opposite-Spin Energy  =      -1.6912179763534381 [Eh]
	 SCS Correlation Energy    =      -1.8224982058347943 [Eh]
	 SCS Total Energy          =    -369.6188323611348210 [Eh]
	-----------------------------------------------------------

  Dipole Moment: [D]
     X:    -1.4902      Y:    -0.5466      Z:     0.2142     Total:     1.6016

*** Psi4 exiting successfully. Buy a developer a beer!
