                               Psi4 1.4a3.dev225

  ==> Input File <==

--------------------------------------------------------------------------
#psi4
#
memory 32 gb

molecule  {
1 1
  N       -0.4820890    -0.2204400     0.0611380
  C        0.4803134    -1.2526612    -0.4506793
  C        0.0352210     1.1635170    -0.2825800
  C        1.9231090    -1.0498370     0.0125270
  C        1.4559810     1.4024730     0.2057820
  C       -1.8126550    -0.4655410    -0.6371030
  C        2.4161490     0.3504860    -0.3416810
  C       -0.6569180    -0.3697370     1.5418350
  C       -2.9537840     0.4422600    -0.2148440
  H        0.4401460    -1.2024090    -1.5488290
  H        0.0974590    -2.2384020    -0.1488000
  H       -0.6659240     1.8829090     0.1439630
  H       -0.0118010     1.2353730    -1.3742740
  H        2.5349810    -1.8144250    -0.4785470
  H        2.0170420    -1.2344280     1.0876600
  H        1.4907670     1.4297660     1.3002730
  H        1.7427260     2.4044990    -0.1312730
  H       -1.6076080    -0.3598680    -1.7054840
  H       -2.0575360    -1.5131640    -0.4404110
  H        3.4221240     0.5100020     0.0566650
  H        2.4871430     0.4507070    -1.4320070
  H        0.3126810    -0.3486860     2.0312100
  H       -1.2698770     0.4499320     1.9127640
  H       -1.1475680    -1.3248790     1.7354010
  H       -3.8251770     0.1584960    -0.8113200
  H       -3.2293180     0.3182590     0.8332870
  H       -2.7570620     1.4961540    -0.4168730
units angstrom
no_reorient  #important for SAPT in psi4, default
symmetry c1  #important for SAPT in psi4, default
}

set PROPERTIES_ORIGIN ["COM"]
properties('MP2/aug-cc-pvtz', properties = ['dipole'])
--------------------------------------------------------------------------

    Molecular point group: c1
  Charge       = 1
  Multiplicity = 1
  Basis Set: AUG-CC-PVTZ
    Blend: AUG-CC-PVTZ
  Basis Set: (AUG-CC-PVTZ AUX)
    Blend: AUG-CC-PVTZ-JKFIT

    Orbital Energies [Eh]
    ---------------------

    Doubly Occupied:

       1A    -15.844384     2A    -11.442187     3A    -11.438037
       4A    -11.437693     5A    -11.435202     6A    -11.378060
       7A    -11.378020     8A    -11.374805     9A    -11.365875
      10A     -1.487510    11A     -1.249868    12A     -1.199774
      13A     -1.189072    14A     -1.142591    15A     -1.057997
      16A     -1.030058    17A     -0.987448    18A     -0.925678
      19A     -0.868158    20A     -0.839702    21A     -0.817452
      22A     -0.803385    23A     -0.771383    24A     -0.753409
      25A     -0.743412    26A     -0.723768    27A     -0.720176
      28A     -0.705136    29A     -0.697363    30A     -0.680704
      31A     -0.672090    32A     -0.663618    33A     -0.661707
      34A     -0.617132    35A     -0.613809    36A     -0.612774

  @DF-RHF Final Energy:  -367.79707108376277

   => Energetics <=

    Nuclear Repulsion Energy =            526.4546310205599866
    One-Electron Energy =               -1527.8445304623262473
    Two-Electron Energy =                 633.5928283580035441
    Total Energy =                       -367.7970710837627166
  Basis Set: (AUG-CC-PVTZ AUX)
    Blend: AUG-CC-PVTZ-RI
    Molecular point group: c1

    Geometry (in Angstrom), charge = 1, multiplicity = 1:

       Center              X                  Y                   Z               Mass
    ------------   -----------------  -----------------  -----------------  -----------------
         N           -0.496569648000    -0.219401029112     0.065247400811    14.003074004430
         C            0.465832752000    -1.251622229112    -0.446569899189    12.000000000000
         C            0.020740352000     1.164555970888    -0.278470599189    12.000000000000
         C            1.908628352000    -1.048798029112     0.016636400811    12.000000000000
         C            1.441500352000     1.403511970888     0.209891400811    12.000000000000
         C           -1.827135648000    -0.464502029112    -0.632993599189    12.000000000000
         C            2.401668352000     0.351524970888    -0.337571599189    12.000000000000
         C           -0.671398648000    -0.368698029112     1.545944400811    12.000000000000
         C           -2.968264648000     0.443298970888    -0.210734599189    12.000000000000
         H            0.425665352000    -1.201370029112    -1.544719599189     1.007825032230
         H            0.082978352000    -2.237363029112    -0.144690599189     1.007825032230
         H           -0.680404648000     1.883947970888     0.148072400811     1.007825032230
         H           -0.026281648000     1.236411970888    -1.370164599189     1.007825032230
         H            2.520500352000    -1.813386029112    -0.474437599189     1.007825032230
         H            2.002561352000    -1.233389029112     1.091769400811     1.007825032230
         H            1.476286352000     1.430804970888     1.304382400811     1.007825032230
         H            1.728245352000     2.405537970888    -0.127163599189     1.007825032230
         H           -1.622088648000    -0.358829029112    -1.701374599189     1.007825032230
         H           -2.072016648000    -1.512125029112    -0.436301599189     1.007825032230
         H            3.407643352000     0.511040970888     0.060774400811     1.007825032230
         H            2.472662352000     0.451745970888    -1.427897599189     1.007825032230
         H            0.298200352000    -0.347647029112     2.035319400811     1.007825032230
         H           -1.284357648000     0.450970970888     1.916873400811     1.007825032230
         H           -1.162048648000    -1.323840029112     1.739510400811     1.007825032230
         H           -3.839657648000     0.159534970888    -0.807210599189     1.007825032230
         H           -3.243798648000     0.319297970888     0.837396400811     1.007825032230
         H           -2.771542648000     1.497192970888    -0.412763599189     1.007825032230

  Basis Set: AUG-CC-PVTZ
    Blend: AUG-CC-PVTZ
  Basis Set: (AUG-CC-PVTZ AUX)
    Blend: AUG-CC-PVTZ-JKFIT
	 Reference Energy          =    -367.7970710837627735 [Eh]
	 Singles Energy            =      -0.0000000000000000 [Eh]
	 Same-Spin Energy          =      -0.3938152664971608 [Eh]
	 Opposite-Spin Energy      =      -1.4091879487894703 [Eh]
	 Correlation Energy        =      -1.8030032152866311 [Eh]
	 Total Energy              =    -369.6000742990494246 [Eh]

	 ================> DF-SCS-MP2 Energies <==================
	-----------------------------------------------------------
	 SCS Same-Spin Scale       =       0.3333333333333333 [-]
	 SCS Opposite-Spin Scale   =       1.2000000000000000 [-]
	 SCS Same-Spin Energy      =      -0.1312717554990536 [Eh]
	 SCS Opposite-Spin Energy  =      -1.6910255385473643 [Eh]
	 SCS Correlation Energy    =      -1.8222972940464179 [Eh]
	 SCS Total Energy          =    -369.6193683778091668 [Eh]
	-----------------------------------------------------------

  Dipole Moment: [D]
     X:    -1.5223      Y:    -0.5281      Z:     0.2239     Total:     1.6268

*** Psi4 exiting successfully. Buy a developer a beer!
