                               Psi4 1.3.2 release

  ==> Input File <==

--------------------------------------------------------------------------
#psi4
#
memory 32 gb

molecule  {
1 1
  N       -0.4413572    -0.2997126     0.0032594
  C        0.4931350    -1.2664130    -0.4574980
  C        0.0352210     1.1635170    -0.2825800
  C        1.9231090    -1.0498370     0.0125270
  C        1.4559810     1.4024730     0.2057820
  C       -1.8126550    -0.4655410    -0.6371030
  C        2.4161490     0.3504860    -0.3416810
  C       -0.6569180    -0.3697370     1.5418350
  C       -2.9537840     0.4422600    -0.2148440
  H        0.4401460    -1.2024090    -1.5488290
  H        0.0974590    -2.2384020    -0.1488000
  H       -0.6659240     1.8829090     0.1439630
  H       -0.0118010     1.2353730    -1.3742740
  H        2.5349810    -1.8144250    -0.4785470
  H        2.0170420    -1.2344280     1.0876600
  H        1.4907670     1.4297660     1.3002730
  H        1.7427260     2.4044990    -0.1312730
  H       -1.6076080    -0.3598680    -1.7054840
  H       -2.0575360    -1.5131640    -0.4404110
  H        3.4221240     0.5100020     0.0566650
  H        2.4871430     0.4507070    -1.4320070
  H        0.3126810    -0.3486860     2.0312100
  H       -1.2698770     0.4499320     1.9127640
  H       -1.1475680    -1.3248790     1.7354010
  H       -3.8251770     0.1584960    -0.8113200
  H       -3.2293180     0.3182590     0.8332870
  H       -2.7570620     1.4961540    -0.4168730
units angstrom
no_reorient  #important for SAPT in psi4, default
symmetry c1  #important for SAPT in psi4, default
}

set PROPERTIES_ORIGIN ["COM"]
properties('MP2/aug-cc-pvtz', properties = ['dipole'])
--------------------------------------------------------------------------

    Molecular point group: c1
  Charge       = 1
  Multiplicity = 1
  Basis Set: AUG-CC-PVTZ
    Blend: AUG-CC-PVTZ
  Basis Set: (AUG-CC-PVTZ AUX)
    Blend: AUG-CC-PVTZ-JKFIT

    Orbital Energies [Eh]
    ---------------------

    Doubly Occupied:

       1A    -15.842961     2A    -11.441875     3A    -11.441804
       4A    -11.439285     5A    -11.429665     6A    -11.378374
       7A    -11.377756     8A    -11.376818     9A    -11.366052
      10A     -1.486922    11A     -1.249265    12A     -1.206456
      13A     -1.183564    14A     -1.140334    15A     -1.059957
      16A     -1.030583    17A     -0.990650    18A     -0.925562
      19A     -0.865887    20A     -0.840907    21A     -0.810768
      22A     -0.804237    23A     -0.774259    24A     -0.753820
      25A     -0.742270    26A     -0.728683    27A     -0.719508
      28A     -0.714059    29A     -0.688250    30A     -0.681205
      31A     -0.668940    32A     -0.663504    33A     -0.658981
      34A     -0.617464    35A     -0.616273    36A     -0.609013

  @DF-RHF Final Energy:  -367.78505144458330

   => Energetics <=

    Nuclear Repulsion Energy =            526.1823659379361970
    One-Electron Energy =               -1527.2830199409816032
    Two-Electron Energy =                 633.3156025584621602
    Total Energy =                       -367.7850514445832459
  Basis Set: (AUG-CC-PVTZ AUX)
    Blend: AUG-CC-PVTZ-RI
    Molecular point group: c1

    Geometry (in Angstrom), charge = 1, multiplicity = 1:

       Center              X                  Y                   Z               Mass
    ------------   -----------------  -----------------  -----------------  -----------------
         N           -0.461489537006    -0.288723241776     0.014332086210    14.003074004430
         C            0.473002662994    -1.255423641776    -0.446425313790    12.000000000000
         C            0.015088662994     1.174506358224    -0.271507313790    12.000000000000
         C            1.902976662994    -1.038847641776     0.023599686210    12.000000000000
         C            1.435848662994     1.413462358224     0.216854686210    12.000000000000
         C           -1.832787337006    -0.454551641776    -0.626030313790    12.000000000000
         C            2.396016662994     0.361475358224    -0.330608313790    12.000000000000
         C           -0.677050337006    -0.358747641776     1.552907686210    12.000000000000
         C           -2.973916337006     0.453249358224    -0.203771313790    12.000000000000
         H            0.420013662994    -1.191419641776    -1.537756313790     1.007825032230
         H            0.077326662994    -2.227412641776    -0.137727313790     1.007825032230
         H           -0.686056337006     1.893898358224     0.155035686210     1.007825032230
         H           -0.031933337006     1.246362358224    -1.363201313790     1.007825032230
         H            2.514848662994    -1.803435641776    -0.467474313790     1.007825032230
         H            1.996909662994    -1.223438641776     1.098732686210     1.007825032230
         H            1.470634662994     1.440755358224     1.311345686210     1.007825032230
         H            1.722593662994     2.415488358224    -0.120200313790     1.007825032230
         H           -1.627740337006    -0.348878641776    -1.694411313790     1.007825032230
         H           -2.077668337006    -1.502174641776    -0.429338313790     1.007825032230
         H            3.401991662994     0.520991358224     0.067737686210     1.007825032230
         H            2.467010662994     0.461696358224    -1.420934313790     1.007825032230
         H            0.292548662994    -0.337696641776     2.042282686210     1.007825032230
         H           -1.290009337006     0.460921358224     1.923836686210     1.007825032230
         H           -1.167700337006    -1.313889641776     1.746473686210     1.007825032230
         H           -3.845309337006     0.169485358224    -0.800247313790     1.007825032230
         H           -3.249450337006     0.329248358224     0.844359686210     1.007825032230
         H           -2.777194337006     1.507143358224    -0.405800313790     1.007825032230

  Basis Set: AUG-CC-PVTZ
    Blend: AUG-CC-PVTZ
  Basis Set: (AUG-CC-PVTZ AUX)
    Blend: AUG-CC-PVTZ-JKFIT
	 Reference Energy          =    -367.7850514445833028 [Eh]
	 Singles Energy            =      -0.0000000000000000 [Eh]
	 Same-Spin Energy          =      -0.3943327011821516 [Eh]
	 Opposite-Spin Energy      =      -1.4103658872697928 [Eh]
	 Correlation Energy        =      -1.8046985884519444 [Eh]
	 Total Energy              =    -369.5897500330352727 [Eh]

	 ================> DF-SCS-MP2 Energies <==================
	-----------------------------------------------------------
	 SCS Same-Spin Scale       =       0.3333333333333333 [-]
	 SCS Opposite-Spin Scale   =       1.2000000000000000 [-]
	 SCS Same-Spin Energy      =      -0.1314442337273838 [Eh]
	 SCS Opposite-Spin Energy  =      -1.6924390647237513 [Eh]
	 SCS Correlation Energy    =      -1.8238832984511351 [Eh]
	 SCS Total Energy          =    -369.6089347430344105 [Eh]
	-----------------------------------------------------------

  Dipole Moment: [D]
     X:    -1.5985      Y:    -0.3610      Z:     0.3326     Total:     1.6722

*** Psi4 exiting successfully. Buy a developer a beer!
