                               Psi4 1.3.2 release

  ==> Input File <==

--------------------------------------------------------------------------
#psi4
#
memory 32 gb

molecule  {
1 1
  N       -0.4820890    -0.2204400     0.0611380
  C        0.4774112    -1.2855136    -0.4478632
  C        0.0352210     1.1635170    -0.2825800
  C        1.9231090    -1.0498370     0.0125270
  C        1.4559810     1.4024730     0.2057820
  C       -1.8126550    -0.4655410    -0.6371030
  C        2.4161490     0.3504860    -0.3416810
  C       -0.6569180    -0.3697370     1.5418350
  C       -2.9537840     0.4422600    -0.2148440
  H        0.4401460    -1.2024090    -1.5488290
  H        0.0974590    -2.2384020    -0.1488000
  H       -0.6659240     1.8829090     0.1439630
  H       -0.0118010     1.2353730    -1.3742740
  H        2.5349810    -1.8144250    -0.4785470
  H        2.0170420    -1.2344280     1.0876600
  H        1.4907670     1.4297660     1.3002730
  H        1.7427260     2.4044990    -0.1312730
  H       -1.6076080    -0.3598680    -1.7054840
  H       -2.0575360    -1.5131640    -0.4404110
  H        3.4221240     0.5100020     0.0566650
  H        2.4871430     0.4507070    -1.4320070
  H        0.3126810    -0.3486860     2.0312100
  H       -1.2698770     0.4499320     1.9127640
  H       -1.1475680    -1.3248790     1.7354010
  H       -3.8251770     0.1584960    -0.8113200
  H       -3.2293180     0.3182590     0.8332870
  H       -2.7570620     1.4961540    -0.4168730
units angstrom
no_reorient  #important for SAPT in psi4, default
symmetry c1  #important for SAPT in psi4, default
}

set PROPERTIES_ORIGIN ["COM"]
properties('MP2/aug-cc-pvtz', properties = ['dipole'])
--------------------------------------------------------------------------

    Molecular point group: c1
  Charge       = 1
  Multiplicity = 1
  Basis Set: AUG-CC-PVTZ
    Blend: AUG-CC-PVTZ
  Basis Set: (AUG-CC-PVTZ AUX)
    Blend: AUG-CC-PVTZ-JKFIT

    Orbital Energies [Eh]
    ---------------------

    Doubly Occupied:

       1A    -15.843157     2A    -11.441472     3A    -11.438023
       4A    -11.437788     5A    -11.434427     6A    -11.378625
       7A    -11.377868     8A    -11.374223     9A    -11.366591
      10A     -1.483344    11A     -1.248845    12A     -1.199774
      13A     -1.188378    14A     -1.140878    15A     -1.057757
      16A     -1.031384    17A     -0.985842    18A     -0.925189
      19A     -0.867889    20A     -0.838125    21A     -0.817100
      22A     -0.804576    23A     -0.770711    24A     -0.755522
      25A     -0.743133    26A     -0.723139    27A     -0.719683
      28A     -0.707155    29A     -0.696314    30A     -0.679133
      31A     -0.671523    32A     -0.663209    33A     -0.661176
      34A     -0.617691    35A     -0.615919    36A     -0.611860

  @DF-RHF Final Energy:  -367.79673594640633

   => Energetics <=

    Nuclear Repulsion Energy =            525.9160349876225382
    One-Electron Energy =               -1526.7906935998553308
    Two-Electron Energy =                 633.0779226658264633
    Total Energy =                       -367.7967359464063293
  Basis Set: (AUG-CC-PVTZ AUX)
    Blend: AUG-CC-PVTZ-RI
    Molecular point group: c1

    Geometry (in Angstrom), charge = 1, multiplicity = 1:

       Center              X                  Y                   Z               Mass
    ------------   -----------------  -----------------  -----------------  -----------------
         N           -0.496297872338    -0.216324575809     0.064983687958    14.003074004430
         C            0.463202327662    -1.281398175809    -0.444017512042    12.000000000000
         C            0.021012127662     1.167632424191    -0.278734312042    12.000000000000
         C            1.908900127662    -1.045721575809     0.016372687958    12.000000000000
         C            1.441772127662     1.406588424191     0.209627687958    12.000000000000
         C           -1.826863872338    -0.461425575809    -0.633257312042    12.000000000000
         C            2.401940127662     0.354601424191    -0.337835312042    12.000000000000
         C           -0.671126872338    -0.365621575809     1.545680687958    12.000000000000
         C           -2.967992872338     0.446375424191    -0.210998312042    12.000000000000
         H            0.425937127662    -1.198293575809    -1.544983312042     1.007825032230
         H            0.083250127662    -2.234286575809    -0.144954312042     1.007825032230
         H           -0.680132872338     1.887024424191     0.147808687958     1.007825032230
         H           -0.026009872338     1.239488424191    -1.370428312042     1.007825032230
         H            2.520772127662    -1.810309575809    -0.474701312042     1.007825032230
         H            2.002833127662    -1.230312575809     1.091505687958     1.007825032230
         H            1.476558127662     1.433881424191     1.304118687958     1.007825032230
         H            1.728517127662     2.408614424191    -0.127427312042     1.007825032230
         H           -1.621816872338    -0.355752575809    -1.701638312042     1.007825032230
         H           -2.071744872338    -1.509048575809    -0.436565312042     1.007825032230
         H            3.407915127662     0.514117424191     0.060510687958     1.007825032230
         H            2.472934127662     0.454822424191    -1.428161312042     1.007825032230
         H            0.298472127662    -0.344570575809     2.035055687958     1.007825032230
         H           -1.284085872338     0.454047424191     1.916609687958     1.007825032230
         H           -1.161776872338    -1.320763575809     1.739246687958     1.007825032230
         H           -3.839385872338     0.162611424191    -0.807474312042     1.007825032230
         H           -3.243526872338     0.322374424191     0.837132687958     1.007825032230
         H           -2.771270872338     1.500269424191    -0.413027312042     1.007825032230

  Basis Set: AUG-CC-PVTZ
    Blend: AUG-CC-PVTZ
  Basis Set: (AUG-CC-PVTZ AUX)
    Blend: AUG-CC-PVTZ-JKFIT
	 Reference Energy          =    -367.7967359464063293 [Eh]
	 Singles Energy            =      -0.0000000000000000 [Eh]
	 Same-Spin Energy          =      -0.3936037522845350 [Eh]
	 Opposite-Spin Energy      =      -1.4091248957485254 [Eh]
	 Correlation Energy        =      -1.8027286480330604 [Eh]
	 Total Energy              =    -369.5994645944393824 [Eh]

	 ================> DF-SCS-MP2 Energies <==================
	-----------------------------------------------------------
	 SCS Same-Spin Scale       =       0.3333333333333333 [-]
	 SCS Opposite-Spin Scale   =       1.2000000000000000 [-]
	 SCS Same-Spin Energy      =      -0.1312012507615117 [Eh]
	 SCS Opposite-Spin Energy  =      -1.6909498748982303 [Eh]
	 SCS Correlation Energy    =      -1.8221511256597420 [Eh]
	 SCS Total Energy          =    -369.6188870720660589 [Eh]
	-----------------------------------------------------------

  Dipole Moment: [D]
     X:    -1.4925      Y:    -0.5478      Z:     0.2135     Total:     1.6041

*** Psi4 exiting successfully. Buy a developer a beer!
