                               Psi4 1.3.2 release

  ==> Input File <==

--------------------------------------------------------------------------
#psi4
#
memory 32 gb

molecule  {
1 1
  N       -0.4820890    -0.2204400     0.0611380
  C        0.4900656    -1.2567676    -0.4820427
  C        0.0352210     1.1635170    -0.2825800
  C        1.9231090    -1.0498370     0.0125270
  C        1.4559810     1.4024730     0.2057820
  C       -1.8126550    -0.4655410    -0.6371030
  C        2.4161490     0.3504860    -0.3416810
  C       -0.6569180    -0.3697370     1.5418350
  C       -2.9537840     0.4422600    -0.2148440
  H        0.4401460    -1.2024090    -1.5488290
  H        0.0974590    -2.2384020    -0.1488000
  H       -0.6659240     1.8829090     0.1439630
  H       -0.0118010     1.2353730    -1.3742740
  H        2.5349810    -1.8144250    -0.4785470
  H        2.0170420    -1.2344280     1.0876600
  H        1.4907670     1.4297660     1.3002730
  H        1.7427260     2.4044990    -0.1312730
  H       -1.6076080    -0.3598680    -1.7054840
  H       -2.0575360    -1.5131640    -0.4404110
  H        3.4221240     0.5100020     0.0566650
  H        2.4871430     0.4507070    -1.4320070
  H        0.3126810    -0.3486860     2.0312100
  H       -1.2698770     0.4499320     1.9127640
  H       -1.1475680    -1.3248790     1.7354010
  H       -3.8251770     0.1584960    -0.8113200
  H       -3.2293180     0.3182590     0.8332870
  H       -2.7570620     1.4961540    -0.4168730
units angstrom
no_reorient  #important for SAPT in psi4, default
symmetry c1  #important for SAPT in psi4, default
}

set PROPERTIES_ORIGIN ["COM"]
properties('MP2/aug-cc-pvtz', properties = ['dipole'])
--------------------------------------------------------------------------

    Molecular point group: c1
  Charge       = 1
  Multiplicity = 1
  Basis Set: AUG-CC-PVTZ
    Blend: AUG-CC-PVTZ
  Basis Set: (AUG-CC-PVTZ AUX)
    Blend: AUG-CC-PVTZ-JKFIT

    Orbital Energies [Eh]
    ---------------------

    Doubly Occupied:

       1A    -15.843116     2A    -11.441507     3A    -11.438155
       4A    -11.437278     5A    -11.434856     6A    -11.378422
       7A    -11.377751     8A    -11.374266     9A    -11.365899
      10A     -1.483386    11A     -1.249843    12A     -1.198903
      13A     -1.188598    14A     -1.142053    15A     -1.057512
      16A     -1.029712    17A     -0.985763    18A     -0.927413
      19A     -0.866312    20A     -0.840452    21A     -0.816656
      22A     -0.802985    23A     -0.771227    24A     -0.752539
      25A     -0.743205    26A     -0.723249    27A     -0.719844
      28A     -0.702743    29A     -0.701585    30A     -0.679505
      31A     -0.671396    32A     -0.667267    33A     -0.661124
      34A     -0.618303    35A     -0.612597    36A     -0.611771

  @DF-RHF Final Energy:  -367.79660315261691

   => Energetics <=

    Nuclear Repulsion Energy =            526.0897708208648282
    One-Electron Energy =               -1527.1383593922614637
    Two-Electron Energy =                 633.2519854187797819
    Total Energy =                       -367.7966031526168535
  Basis Set: (AUG-CC-PVTZ AUX)
    Blend: AUG-CC-PVTZ-RI
    Molecular point group: c1

    Geometry (in Angstrom), charge = 1, multiplicity = 1:

       Center              X                  Y                   Z               Mass
    ------------   -----------------  -----------------  -----------------  -----------------
         N           -0.497482889891    -0.219016486495     0.068184417148    14.003074004430
         C            0.474671710109    -1.255344086495    -0.474996282852    12.000000000000
         C            0.019827110109     1.164940513505    -0.275533582852    12.000000000000
         C            1.907715110109    -1.048413486495     0.019573417148    12.000000000000
         C            1.440587110109     1.403896513505     0.212828417148    12.000000000000
         C           -1.828048889891    -0.464117486495    -0.630056582852    12.000000000000
         C            2.400755110109     0.351909513505    -0.334634582852    12.000000000000
         C           -0.672311889891    -0.368313486495     1.548881417148    12.000000000000
         C           -2.969177889891     0.443683513505    -0.207797582852    12.000000000000
         H            0.424752110109    -1.200985486495    -1.541782582852     1.007825032230
         H            0.082065110109    -2.236978486495    -0.141753582852     1.007825032230
         H           -0.681317889891     1.884332513505     0.151009417148     1.007825032230
         H           -0.027194889891     1.236796513505    -1.367227582852     1.007825032230
         H            2.519587110109    -1.813001486495    -0.471500582852     1.007825032230
         H            2.001648110109    -1.233004486495     1.094706417148     1.007825032230
         H            1.475373110109     1.431189513505     1.307319417148     1.007825032230
         H            1.727332110109     2.405922513505    -0.124226582852     1.007825032230
         H           -1.623001889891    -0.358444486495    -1.698437582852     1.007825032230
         H           -2.072929889891    -1.511740486495    -0.433364582852     1.007825032230
         H            3.406730110109     0.511425513505     0.063711417148     1.007825032230
         H            2.471749110109     0.452130513505    -1.424960582852     1.007825032230
         H            0.297287110109    -0.347262486495     2.038256417148     1.007825032230
         H           -1.285270889891     0.451355513505     1.919810417148     1.007825032230
         H           -1.162961889891    -1.323455486495     1.742447417148     1.007825032230
         H           -3.840570889891     0.159919513505    -0.804273582852     1.007825032230
         H           -3.244711889891     0.319682513505     0.840333417148     1.007825032230
         H           -2.772455889891     1.497577513505    -0.409826582852     1.007825032230

  Basis Set: AUG-CC-PVTZ
    Blend: AUG-CC-PVTZ
  Basis Set: (AUG-CC-PVTZ AUX)
    Blend: AUG-CC-PVTZ-JKFIT
	 Reference Energy          =    -367.7966031526169104 [Eh]
	 Singles Energy            =      -0.0000000000000000 [Eh]
	 Same-Spin Energy          =      -0.3936834999910738 [Eh]
	 Opposite-Spin Energy      =      -1.4091789890066519 [Eh]
	 Correlation Energy        =      -1.8028624889977256 [Eh]
	 Total Energy              =    -369.5994656416146427 [Eh]

	 ================> DF-SCS-MP2 Energies <==================
	-----------------------------------------------------------
	 SCS Same-Spin Scale       =       0.3333333333333333 [-]
	 SCS Opposite-Spin Scale   =       1.2000000000000000 [-]
	 SCS Same-Spin Energy      =      -0.1312278333303579 [Eh]
	 SCS Opposite-Spin Energy  =      -1.6910147868079823 [Eh]
	 SCS Correlation Energy    =      -1.8222426201383404 [Eh]
	 SCS Total Energy          =    -369.6188457727552645 [Eh]
	-----------------------------------------------------------

  Dipole Moment: [D]
     X:    -1.4921      Y:    -0.5526      Z:     0.2136     Total:     1.6055

*** Psi4 exiting successfully. Buy a developer a beer!
