                               Psi4 1.4a3.dev225

  ==> Input File <==

--------------------------------------------------------------------------
#psi4
#
memory 32 gb

molecule  {
1 1
  N       -0.4820890    -0.2204400     0.0611380
  C        0.5251890    -1.3007925    -0.4745447
  C        0.0352210     1.1635170    -0.2825800
  C        1.9231090    -1.0498370     0.0125270
  C        1.4559810     1.4024730     0.2057820
  C       -1.8126550    -0.4655410    -0.6371030
  C        2.4161490     0.3504860    -0.3416810
  C       -0.6569180    -0.3697370     1.5418350
  C       -2.9537840     0.4422600    -0.2148440
  H        0.4401460    -1.2024090    -1.5488290
  H        0.0974590    -2.2384020    -0.1488000
  H       -0.6659240     1.8829090     0.1439630
  H       -0.0118010     1.2353730    -1.3742740
  H        2.5349810    -1.8144250    -0.4785470
  H        2.0170420    -1.2344280     1.0876600
  H        1.4907670     1.4297660     1.3002730
  H        1.7427260     2.4044990    -0.1312730
  H       -1.6076080    -0.3598680    -1.7054840
  H       -2.0575360    -1.5131640    -0.4404110
  H        3.4221240     0.5100020     0.0566650
  H        2.4871430     0.4507070    -1.4320070
  H        0.3126810    -0.3486860     2.0312100
  H       -1.2698770     0.4499320     1.9127640
  H       -1.1475680    -1.3248790     1.7354010
  H       -3.8251770     0.1584960    -0.8113200
  H       -3.2293180     0.3182590     0.8332870
  H       -2.7570620     1.4961540    -0.4168730
units angstrom
no_reorient  #important for SAPT in psi4, default
symmetry c1  #important for SAPT in psi4, default
}

set PROPERTIES_ORIGIN ["COM"]
properties('MP2/aug-cc-pvtz', properties = ['dipole'])
--------------------------------------------------------------------------

    Molecular point group: c1
  Charge       = 1
  Multiplicity = 1
  Basis Set: AUG-CC-PVTZ
    Blend: AUG-CC-PVTZ
  Basis Set: (AUG-CC-PVTZ AUX)
    Blend: AUG-CC-PVTZ-JKFIT

    Orbital Energies [Eh]
    ---------------------

    Doubly Occupied:

       1A    -15.839329     2A    -11.441490     3A    -11.440170
       4A    -11.435856     5A    -11.432773     6A    -11.378426
       7A    -11.377443     8A    -11.373304     9A    -11.367508
      10A     -1.473870    11A     -1.251640    12A     -1.200925
      13A     -1.187177    14A     -1.137930    15A     -1.058317
      16A     -1.029630    17A     -0.983108    18A     -0.926986
      19A     -0.864147    20A     -0.836540    21A     -0.813882
      22A     -0.806200    23A     -0.770782    24A     -0.755346
      25A     -0.743700    26A     -0.721348    27A     -0.718729
      28A     -0.706063    29A     -0.699726    30A     -0.678048
      31A     -0.670066    32A     -0.665622    33A     -0.659775
      34A     -0.620090    35A     -0.618154    36A     -0.609206

  @DF-RHF Final Energy:  -367.79526451421538

   => Energetics <=

    Nuclear Repulsion Energy =            525.3132070905612636
    One-Electron Energy =               -1525.6303278009002042
    Two-Electron Energy =                 632.5218561961235082
    Total Energy =                       -367.7952645142154324
  Basis Set: (AUG-CC-PVTZ AUX)
    Blend: AUG-CC-PVTZ-RI
    Molecular point group: c1

    Geometry (in Angstrom), charge = 1, multiplicity = 1:

       Center              X                  Y                   Z               Mass
    ------------   -----------------  -----------------  -----------------  -----------------
         N           -0.500772010319    -0.214893787728     0.067482269151    14.003074004430
         C            0.506505989681    -1.295246287728    -0.468200430849    12.000000000000
         C            0.016537989681     1.169063212272    -0.276235730849    12.000000000000
         C            1.904425989681    -1.044290787728     0.018871269151    12.000000000000
         C            1.437297989681     1.408019212272     0.212126269151    12.000000000000
         C           -1.831338010319    -0.459994787728    -0.630758730849    12.000000000000
         C            2.397465989681     0.356032212272    -0.335336730849    12.000000000000
         C           -0.675601010319    -0.364190787728     1.548179269151    12.000000000000
         C           -2.972467010319     0.447806212272    -0.208499730849    12.000000000000
         H            0.421462989681    -1.196862787728    -1.542484730849     1.007825032230
         H            0.078775989681    -2.232855787728    -0.142455730849     1.007825032230
         H           -0.684607010319     1.888455212272     0.150307269151     1.007825032230
         H           -0.030484010319     1.240919212272    -1.367929730849     1.007825032230
         H            2.516297989681    -1.808878787728    -0.472202730849     1.007825032230
         H            1.998358989681    -1.228881787728     1.094004269151     1.007825032230
         H            1.472083989681     1.435312212272     1.306617269151     1.007825032230
         H            1.724042989681     2.410045212272    -0.124928730849     1.007825032230
         H           -1.626291010319    -0.354321787728    -1.699139730849     1.007825032230
         H           -2.076219010319    -1.507617787728    -0.434066730849     1.007825032230
         H            3.403440989681     0.515548212272     0.063009269151     1.007825032230
         H            2.468459989681     0.456253212272    -1.425662730849     1.007825032230
         H            0.293997989681    -0.343139787728     2.037554269151     1.007825032230
         H           -1.288560010319     0.455478212272     1.919108269151     1.007825032230
         H           -1.166251010319    -1.319332787728     1.741745269151     1.007825032230
         H           -3.843860010319     0.164042212272    -0.804975730849     1.007825032230
         H           -3.248001010319     0.323805212272     0.839631269151     1.007825032230
         H           -2.775745010319     1.501700212272    -0.410528730849     1.007825032230

  Basis Set: AUG-CC-PVTZ
    Blend: AUG-CC-PVTZ
  Basis Set: (AUG-CC-PVTZ AUX)
    Blend: AUG-CC-PVTZ-JKFIT
	 Reference Energy          =    -367.7952645142153756 [Eh]
	 Singles Energy            =      -0.0000000000000000 [Eh]
	 Same-Spin Energy          =      -0.3936934856994161 [Eh]
	 Opposite-Spin Energy      =      -1.4094701639087619 [Eh]
	 Correlation Energy        =      -1.8031636496081780 [Eh]
	 Total Energy              =    -369.5984281638235416 [Eh]

	 ================> DF-SCS-MP2 Energies <==================
	-----------------------------------------------------------
	 SCS Same-Spin Scale       =       0.3333333333333333 [-]
	 SCS Opposite-Spin Scale   =       1.2000000000000000 [-]
	 SCS Same-Spin Energy      =      -0.1312311618998054 [Eh]
	 SCS Opposite-Spin Energy  =      -1.6913641966905142 [Eh]
	 SCS Correlation Energy    =      -1.8225953585903196 [Eh]
	 SCS Total Energy          =    -369.6178598728056954 [Eh]
	-----------------------------------------------------------

  Dipole Moment: [D]
     X:    -1.4037      Y:    -0.6101      Z:     0.1832     Total:     1.5415

*** Psi4 exiting successfully. Buy a developer a beer!
