                               Psi4 1.3.2 release

  ==> Input File <==

--------------------------------------------------------------------------
#psi4
#
memory 32 gb

molecule  {
1 1
  N       -0.4936578    -0.2076708     0.0109136
  C        0.4931350    -1.2664130    -0.4574980
  C        0.0352210     1.1635170    -0.2825800
  C        1.9231090    -1.0498370     0.0125270
  C        1.4559810     1.4024730     0.2057820
  C       -1.8126550    -0.4655410    -0.6371030
  C        2.4161490     0.3504860    -0.3416810
  C       -0.6569180    -0.3697370     1.5418350
  C       -2.9537840     0.4422600    -0.2148440
  H        0.4401460    -1.2024090    -1.5488290
  H        0.0974590    -2.2384020    -0.1488000
  H       -0.6659240     1.8829090     0.1439630
  H       -0.0118010     1.2353730    -1.3742740
  H        2.5349810    -1.8144250    -0.4785470
  H        2.0170420    -1.2344280     1.0876600
  H        1.4907670     1.4297660     1.3002730
  H        1.7427260     2.4044990    -0.1312730
  H       -1.6076080    -0.3598680    -1.7054840
  H       -2.0575360    -1.5131640    -0.4404110
  H        3.4221240     0.5100020     0.0566650
  H        2.4871430     0.4507070    -1.4320070
  H        0.3126810    -0.3486860     2.0312100
  H       -1.2698770     0.4499320     1.9127640
  H       -1.1475680    -1.3248790     1.7354010
  H       -3.8251770     0.1584960    -0.8113200
  H       -3.2293180     0.3182590     0.8332870
  H       -2.7570620     1.4961540    -0.4168730
units angstrom
no_reorient  #important for SAPT in psi4, default
symmetry c1  #important for SAPT in psi4, default
}

set PROPERTIES_ORIGIN ["COM"]
properties('MP2/aug-cc-pvtz', properties = ['dipole'])
--------------------------------------------------------------------------

    Molecular point group: c1
  Charge       = 1
  Multiplicity = 1
  Basis Set: AUG-CC-PVTZ
    Blend: AUG-CC-PVTZ
  Basis Set: (AUG-CC-PVTZ AUX)
    Blend: AUG-CC-PVTZ-JKFIT

    Orbital Energies [Eh]
    ---------------------

    Doubly Occupied:

       1A    -15.843814     2A    -11.439116     3A    -11.438817
       4A    -11.438496     5A    -11.436019     6A    -11.378958
       7A    -11.378614     8A    -11.373983     9A    -11.366629
      10A     -1.484176    11A     -1.251380    12A     -1.200803
      13A     -1.185953    14A     -1.139486    15A     -1.061720
      16A     -1.032659    17A     -0.985747    18A     -0.925858
      19A     -0.866412    20A     -0.837167    21A     -0.817272
      22A     -0.803648    23A     -0.768302    24A     -0.755581
      25A     -0.744373    26A     -0.727986    27A     -0.721576
      28A     -0.706032    29A     -0.690860    30A     -0.682096
      31A     -0.669932    32A     -0.663770    33A     -0.658304
      34A     -0.618738    35A     -0.616844    36A     -0.613106

  @DF-RHF Final Energy:  -367.79437041210849

   => Energetics <=

    Nuclear Repulsion Energy =            526.1183796610371246
    One-Electron Energy =               -1527.1770473186090840
    Two-Electron Energy =                 633.2642972454634673
    Total Energy =                       -367.7943704121084920
  Basis Set: (AUG-CC-PVTZ AUX)
    Blend: AUG-CC-PVTZ-RI
    Molecular point group: c1

    Geometry (in Angstrom), charge = 1, multiplicity = 1:

       Center              X                  Y                   Z               Mass
    ------------   -----------------  -----------------  -----------------  -----------------
         N           -0.508074929089    -0.206739414802     0.021149864746    14.003074004430
         C            0.478717870911    -1.265481614802    -0.447261735254    12.000000000000
         C            0.020803870911     1.164448385198    -0.272343735254    12.000000000000
         C            1.908691870911    -1.048905614802     0.022763264746    12.000000000000
         C            1.441563870911     1.403404385198     0.216018264746    12.000000000000
         C           -1.827072129089    -0.464609614802    -0.626866735254    12.000000000000
         C            2.401731870911     0.351417385198    -0.331444735254    12.000000000000
         C           -0.671335129089    -0.368805614802     1.552071264746    12.000000000000
         C           -2.968201129089     0.443191385198    -0.204607735254    12.000000000000
         H            0.425728870911    -1.201477614802    -1.538592735254     1.007825032230
         H            0.083041870911    -2.237470614802    -0.138563735254     1.007825032230
         H           -0.680341129089     1.883840385198     0.154199264746     1.007825032230
         H           -0.026218129089     1.236304385198    -1.364037735254     1.007825032230
         H            2.520563870911    -1.813493614802    -0.468310735254     1.007825032230
         H            2.002624870911    -1.233496614802     1.097896264746     1.007825032230
         H            1.476349870911     1.430697385198     1.310509264746     1.007825032230
         H            1.728308870911     2.405430385198    -0.121036735254     1.007825032230
         H           -1.622025129089    -0.358936614802    -1.695247735254     1.007825032230
         H           -2.071953129089    -1.512232614802    -0.430174735254     1.007825032230
         H            3.407706870911     0.510933385198     0.066901264746     1.007825032230
         H            2.472725870911     0.451638385198    -1.421770735254     1.007825032230
         H            0.298263870911    -0.347754614802     2.041446264746     1.007825032230
         H           -1.284294129089     0.450863385198     1.923000264746     1.007825032230
         H           -1.161985129089    -1.323947614802     1.745637264746     1.007825032230
         H           -3.839594129089     0.159427385198    -0.801083735254     1.007825032230
         H           -3.243735129089     0.319190385198     0.843523264746     1.007825032230
         H           -2.771479129089     1.497085385198    -0.406636735254     1.007825032230

  Basis Set: AUG-CC-PVTZ
    Blend: AUG-CC-PVTZ
  Basis Set: (AUG-CC-PVTZ AUX)
    Blend: AUG-CC-PVTZ-JKFIT
	 Reference Energy          =    -367.7943704121084920 [Eh]
	 Singles Energy            =      -0.0000000000000000 [Eh]
	 Same-Spin Energy          =      -0.3938540491464030 [Eh]
	 Opposite-Spin Energy      =      -1.4095077720109577 [Eh]
	 Correlation Energy        =      -1.8033618211573605 [Eh]
	 Total Energy              =    -369.5977322332658446 [Eh]

	 ================> DF-SCS-MP2 Energies <==================
	-----------------------------------------------------------
	 SCS Same-Spin Scale       =       0.3333333333333333 [-]
	 SCS Opposite-Spin Scale   =       1.2000000000000000 [-]
	 SCS Same-Spin Energy      =      -0.1312846830488010 [Eh]
	 SCS Opposite-Spin Energy  =      -1.6914093264131491 [Eh]
	 SCS Correlation Energy    =      -1.8226940094619501 [Eh]
	 SCS Total Energy          =    -369.6170644215704328 [Eh]
	-----------------------------------------------------------

  Dipole Moment: [D]
     X:    -1.4506      Y:    -0.5762      Z:     0.3125     Total:     1.5918

*** Psi4 exiting successfully. Buy a developer a beer!
