                               Psi4 1.3.2 release

  ==> Input File <==

--------------------------------------------------------------------------
#psi4
#
memory 32 gb

molecule  {
1 1
  N       -0.5340110    -0.2234862     0.0556241
  C        0.4931350    -1.2664130    -0.4574980
  C        0.0352210     1.1635170    -0.2825800
  C        1.9231090    -1.0498370     0.0125270
  C        1.4559810     1.4024730     0.2057820
  C       -1.8126550    -0.4655410    -0.6371030
  C        2.4161490     0.3504860    -0.3416810
  C       -0.6569180    -0.3697370     1.5418350
  C       -2.9537840     0.4422600    -0.2148440
  H        0.4401460    -1.2024090    -1.5488290
  H        0.0974590    -2.2384020    -0.1488000
  H       -0.6659240     1.8829090     0.1439630
  H       -0.0118010     1.2353730    -1.3742740
  H        2.5349810    -1.8144250    -0.4785470
  H        2.0170420    -1.2344280     1.0876600
  H        1.4907670     1.4297660     1.3002730
  H        1.7427260     2.4044990    -0.1312730
  H       -1.6076080    -0.3598680    -1.7054840
  H       -2.0575360    -1.5131640    -0.4404110
  H        3.4221240     0.5100020     0.0566650
  H        2.4871430     0.4507070    -1.4320070
  H        0.3126810    -0.3486860     2.0312100
  H       -1.2698770     0.4499320     1.9127640
  H       -1.1475680    -1.3248790     1.7354010
  H       -3.8251770     0.1584960    -0.8113200
  H       -3.2293180     0.3182590     0.8332870
  H       -2.7570620     1.4961540    -0.4168730
units angstrom
no_reorient  #important for SAPT in psi4, default
symmetry c1  #important for SAPT in psi4, default
}

set PROPERTIES_ORIGIN ["COM"]
properties('MP2/aug-cc-pvtz', properties = ['dipole'])
--------------------------------------------------------------------------

    Molecular point group: c1
  Charge       = 1
  Multiplicity = 1
  Basis Set: AUG-CC-PVTZ
    Blend: AUG-CC-PVTZ
  Basis Set: (AUG-CC-PVTZ AUX)
    Blend: AUG-CC-PVTZ-JKFIT

    Orbital Energies [Eh]
    ---------------------

    Doubly Occupied:

       1A    -15.842786     2A    -11.441250     3A    -11.439125
       4A    -11.437229     5A    -11.434518     6A    -11.380143
       7A    -11.379811     8A    -11.372487     9A    -11.367278
      10A     -1.483659    11A     -1.253196    12A     -1.197613
      13A     -1.188859    14A     -1.139592    15A     -1.063235
      16A     -1.029611    17A     -0.983388    18A     -0.926903
      19A     -0.867181    20A     -0.839803    21A     -0.816933
      22A     -0.804830    23A     -0.770104    24A     -0.755331
      25A     -0.743479    26A     -0.723786    27A     -0.720446
      28A     -0.704335    29A     -0.696532    30A     -0.679462
      31A     -0.670480    32A     -0.663999    33A     -0.658472
      34A     -0.620637    35A     -0.618293    36A     -0.611121

  @DF-RHF Final Energy:  -367.79460683157407

   => Energetics <=

    Nuclear Repulsion Energy =            525.8684434099425289
    One-Electron Energy =               -1526.6742869341678670
    Two-Electron Energy =                 633.0112366926513232
    Total Energy =                       -367.7946068315740149
  Basis Set: (AUG-CC-PVTZ AUX)
    Blend: AUG-CC-PVTZ-RI
    Molecular point group: c1

    Geometry (in Angstrom), charge = 1, multiplicity = 1:

       Center              X                  Y                   Z               Mass
    ------------   -----------------  -----------------  -----------------  -----------------
         N           -0.544018486980    -0.220826568868     0.060974573693    14.003074004430
         C            0.483127513020    -1.263753368868    -0.452147526307    12.000000000000
         C            0.025213513020     1.166176631132    -0.277229526307    12.000000000000
         C            1.913101513020    -1.047177368868     0.017877473693    12.000000000000
         C            1.445973513020     1.405132631132     0.211132473693    12.000000000000
         C           -1.822662486980    -0.462881368868    -0.631752526307    12.000000000000
         C            2.406141513020     0.353145631132    -0.336330526307    12.000000000000
         C           -0.666925486980    -0.367077368868     1.547185473693    12.000000000000
         C           -2.963791486980     0.444919631132    -0.209493526307    12.000000000000
         H            0.430138513020    -1.199749368868    -1.543478526307     1.007825032230
         H            0.087451513020    -2.235742368868    -0.143449526307     1.007825032230
         H           -0.675931486980     1.885568631132     0.149313473693     1.007825032230
         H           -0.021808486980     1.238032631132    -1.368923526307     1.007825032230
         H            2.524973513020    -1.811765368868    -0.473196526307     1.007825032230
         H            2.007034513020    -1.231768368868     1.093010473693     1.007825032230
         H            1.480759513020     1.432425631132     1.305623473693     1.007825032230
         H            1.732718513020     2.407158631132    -0.125922526307     1.007825032230
         H           -1.617615486980    -0.357208368868    -1.700133526307     1.007825032230
         H           -2.067543486980    -1.510504368868    -0.435060526307     1.007825032230
         H            3.412116513020     0.512661631132     0.062015473693     1.007825032230
         H            2.477135513020     0.453366631132    -1.426656526307     1.007825032230
         H            0.302673513020    -0.346026368868     2.036560473693     1.007825032230
         H           -1.279884486980     0.452591631132     1.918114473693     1.007825032230
         H           -1.157575486980    -1.322219368868     1.740751473693     1.007825032230
         H           -3.835184486980     0.161155631132    -0.805969526307     1.007825032230
         H           -3.239325486980     0.320918631132     0.838637473693     1.007825032230
         H           -2.767069486980     1.498813631132    -0.411522526307     1.007825032230

  Basis Set: AUG-CC-PVTZ
    Blend: AUG-CC-PVTZ
  Basis Set: (AUG-CC-PVTZ AUX)
    Blend: AUG-CC-PVTZ-JKFIT
	 Reference Energy          =    -367.7946068315740717 [Eh]
	 Singles Energy            =      -0.0000000000000000 [Eh]
	 Same-Spin Energy          =      -0.3938599192402891 [Eh]
	 Opposite-Spin Energy      =      -1.4094094345574417 [Eh]
	 Correlation Energy        =      -1.8032693537977309 [Eh]
	 Total Energy              =    -369.5978761853717742 [Eh]

	 ================> DF-SCS-MP2 Energies <==================
	-----------------------------------------------------------
	 SCS Same-Spin Scale       =       0.3333333333333333 [-]
	 SCS Opposite-Spin Scale   =       1.2000000000000000 [-]
	 SCS Same-Spin Energy      =      -0.1312866397467630 [Eh]
	 SCS Opposite-Spin Energy  =      -1.6912913214689300 [Eh]
	 SCS Correlation Energy    =      -1.8225779612156932 [Eh]
	 SCS Total Energy          =    -369.6171847927897716 [Eh]
	-----------------------------------------------------------

  Dipole Moment: [D]
     X:    -1.3375      Y:    -0.5438      Z:     0.2262     Total:     1.4614

*** Psi4 exiting successfully. Buy a developer a beer!
