                               Psi4 1.3.2 release

  ==> Input File <==

--------------------------------------------------------------------------
#psi4
#
memory 32 gb

molecule  {
1 1
  N       -0.5293032    -0.1423615     0.1156148
  C        0.4931350    -1.2664130    -0.4574980
  C        0.0352210     1.1635170    -0.2825800
  C        1.9231090    -1.0498370     0.0125270
  C        1.4559810     1.4024730     0.2057820
  C       -1.8126550    -0.4655410    -0.6371030
  C        2.4161490     0.3504860    -0.3416810
  C       -0.6569180    -0.3697370     1.5418350
  C       -2.9537840     0.4422600    -0.2148440
  H        0.4401460    -1.2024090    -1.5488290
  H        0.0974590    -2.2384020    -0.1488000
  H       -0.6659240     1.8829090     0.1439630
  H       -0.0118010     1.2353730    -1.3742740
  H        2.5349810    -1.8144250    -0.4785470
  H        2.0170420    -1.2344280     1.0876600
  H        1.4907670     1.4297660     1.3002730
  H        1.7427260     2.4044990    -0.1312730
  H       -1.6076080    -0.3598680    -1.7054840
  H       -2.0575360    -1.5131640    -0.4404110
  H        3.4221240     0.5100020     0.0566650
  H        2.4871430     0.4507070    -1.4320070
  H        0.3126810    -0.3486860     2.0312100
  H       -1.2698770     0.4499320     1.9127640
  H       -1.1475680    -1.3248790     1.7354010
  H       -3.8251770     0.1584960    -0.8113200
  H       -3.2293180     0.3182590     0.8332870
  H       -2.7570620     1.4961540    -0.4168730
units angstrom
no_reorient  #important for SAPT in psi4, default
symmetry c1  #important for SAPT in psi4, default
}

set PROPERTIES_ORIGIN ["COM"]
properties('MP2/aug-cc-pvtz', properties = ['dipole'])
--------------------------------------------------------------------------

    Molecular point group: c1
  Charge       = 1
  Multiplicity = 1
  Basis Set: AUG-CC-PVTZ
    Blend: AUG-CC-PVTZ
  Basis Set: (AUG-CC-PVTZ AUX)
    Blend: AUG-CC-PVTZ-JKFIT

    Orbital Energies [Eh]
    ---------------------

    Doubly Occupied:

       1A    -15.840710     2A    -11.446980     3A    -11.442013
       4A    -11.434097     5A    -11.430467     6A    -11.379939
       7A    -11.377734     8A    -11.371111     9A    -11.366854
      10A     -1.484122    11A     -1.251702    12A     -1.198220
      13A     -1.192420    14A     -1.140896    15A     -1.056032
      16A     -1.031486    17A     -0.979430    18A     -0.926744
      19A     -0.869225    20A     -0.838499    21A     -0.822164
      22A     -0.804378    23A     -0.772418    24A     -0.753109
      25A     -0.744298    26A     -0.723697    27A     -0.721660
      28A     -0.707164    29A     -0.697161    30A     -0.673935
      31A     -0.668783    32A     -0.664631    33A     -0.659915
      34A     -0.619028    35A     -0.618151    36A     -0.603066

  @DF-RHF Final Energy:  -367.78640477619194

   => Energetics <=

    Nuclear Repulsion Energy =            526.0131191523587404
    One-Electron Energy =               -1526.9745679907962312
    Two-Electron Energy =                 633.1750440622455471
    Total Energy =                       -367.7864047761919437
  Basis Set: (AUG-CC-PVTZ AUX)
    Blend: AUG-CC-PVTZ-RI
    Molecular point group: c1

    Geometry (in Angstrom), charge = 1, multiplicity = 1:

       Center              X                  Y                   Z               Mass
    ------------   -----------------  -----------------  -----------------  -----------------
         N           -0.539825137213    -0.148566863298     0.114409721298    14.003074004430
         C            0.482613062787    -1.272618363298    -0.458703078702    12.000000000000
         C            0.024699062787     1.157311636702    -0.283785078702    12.000000000000
         C            1.912587062787    -1.056042363298     0.011321921298    12.000000000000
         C            1.445459062787     1.396267636702     0.204576921298    12.000000000000
         C           -1.823176937213    -0.471746363298    -0.638308078702    12.000000000000
         C            2.405627062787     0.344280636702    -0.342886078702    12.000000000000
         C           -0.667439937213    -0.375942363298     1.540629921298    12.000000000000
         C           -2.964305937213     0.436054636702    -0.216049078702    12.000000000000
         H            0.429624062787    -1.208614363298    -1.550034078702     1.007825032230
         H            0.086937062787    -2.244607363298    -0.150005078702     1.007825032230
         H           -0.676445937213     1.876703636702     0.142757921298     1.007825032230
         H           -0.022322937213     1.229167636702    -1.375479078702     1.007825032230
         H            2.524459062787    -1.820630363298    -0.479752078702     1.007825032230
         H            2.006520062787    -1.240633363298     1.086454921298     1.007825032230
         H            1.480245062787     1.423560636702     1.299067921298     1.007825032230
         H            1.732204062787     2.398293636702    -0.132478078702     1.007825032230
         H           -1.618129937213    -0.366073363298    -1.706689078702     1.007825032230
         H           -2.068057937213    -1.519369363298    -0.441616078702     1.007825032230
         H            3.411602062787     0.503796636702     0.055459921298     1.007825032230
         H            2.476621062787     0.444501636702    -1.433212078702     1.007825032230
         H            0.302159062787    -0.354891363298     2.030004921298     1.007825032230
         H           -1.280398937213     0.443726636702     1.911558921298     1.007825032230
         H           -1.158089937213    -1.331084363298     1.734195921298     1.007825032230
         H           -3.835698937213     0.152290636702    -0.812525078702     1.007825032230
         H           -3.239839937213     0.312053636702     0.832081921298     1.007825032230
         H           -2.767583937213     1.489948636702    -0.418078078702     1.007825032230

  Basis Set: AUG-CC-PVTZ
    Blend: AUG-CC-PVTZ
  Basis Set: (AUG-CC-PVTZ AUX)
    Blend: AUG-CC-PVTZ-JKFIT
	 Reference Energy          =    -367.7864047761919437 [Eh]
	 Singles Energy            =      -0.0000000000000000 [Eh]
	 Same-Spin Energy          =      -0.3942989230820260 [Eh]
	 Opposite-Spin Energy      =      -1.4102694078000944 [Eh]
	 Correlation Energy        =      -1.8045683308821203 [Eh]
	 Total Energy              =    -369.5909731070740918 [Eh]

	 ================> DF-SCS-MP2 Energies <==================
	-----------------------------------------------------------
	 SCS Same-Spin Scale       =       0.3333333333333333 [-]
	 SCS Opposite-Spin Scale   =       1.2000000000000000 [-]
	 SCS Same-Spin Energy      =      -0.1314329743606753 [Eh]
	 SCS Opposite-Spin Energy  =      -1.6923232893601132 [Eh]
	 SCS Correlation Energy    =      -1.8237562637207885 [Eh]
	 SCS Total Energy          =    -369.6101610399127253 [Eh]
	-----------------------------------------------------------

  Dipole Moment: [D]
     X:    -1.3594      Y:    -0.7336      Z:     0.0957     Total:     1.5477

*** Psi4 exiting successfully. Buy a developer a beer!
