                               Psi4 1.3.2 release

  ==> Input File <==

--------------------------------------------------------------------------
#psi4
#
memory 32 gb

molecule  {
1 1
  N       -0.4820890    -0.2204400     0.0611380
  C        0.4931350    -1.2664130    -0.4574980
  C        0.0352210     1.1635170    -0.2825800
  C        1.9231090    -1.0498370     0.0125270
  C        1.4559810     1.4024730     0.2057820
  C       -1.7632419    -0.4476301    -0.7294648
  C        2.4161490     0.3504860    -0.3416810
  C       -0.6569180    -0.3697370     1.5418350
  C       -2.9537840     0.4422600    -0.2148440
  H        0.4401460    -1.2024090    -1.5488290
  H        0.0974590    -2.2384020    -0.1488000
  H       -0.6659240     1.8829090     0.1439630
  H       -0.0118010     1.2353730    -1.3742740
  H        2.5349810    -1.8144250    -0.4785470
  H        2.0170420    -1.2344280     1.0876600
  H        1.4907670     1.4297660     1.3002730
  H        1.7427260     2.4044990    -0.1312730
  H       -1.6076080    -0.3598680    -1.7054840
  H       -2.0575360    -1.5131640    -0.4404110
  H        3.4221240     0.5100020     0.0566650
  H        2.4871430     0.4507070    -1.4320070
  H        0.3126810    -0.3486860     2.0312100
  H       -1.2698770     0.4499320     1.9127640
  H       -1.1475680    -1.3248790     1.7354010
  H       -3.8251770     0.1584960    -0.8113200
  H       -3.2293180     0.3182590     0.8332870
  H       -2.7570620     1.4961540    -0.4168730
units angstrom
no_reorient  #important for SAPT in psi4, default
symmetry c1  #important for SAPT in psi4, default
}

set PROPERTIES_ORIGIN ["COM"]
properties('MP2/aug-cc-pvtz', properties = ['dipole'])
--------------------------------------------------------------------------

    Molecular point group: c1
  Charge       = 1
  Multiplicity = 1
  Basis Set: AUG-CC-PVTZ
    Blend: AUG-CC-PVTZ
  Basis Set: (AUG-CC-PVTZ AUX)
    Blend: AUG-CC-PVTZ-JKFIT

    Orbital Energies [Eh]
    ---------------------

    Doubly Occupied:

       1A    -15.843601     2A    -11.440597     3A    -11.438154
       4A    -11.437232     5A    -11.436168     6A    -11.377454
       7A    -11.377443     8A    -11.376530     9A    -11.366136
      10A     -1.483670    11A     -1.248433    12A     -1.199758
      13A     -1.185392    14A     -1.140262    15A     -1.057030
      16A     -1.029816    17A     -0.992443    18A     -0.926302
      19A     -0.875106    20A     -0.836719    21A     -0.816242
      22A     -0.802965    23A     -0.772648    24A     -0.752438
      25A     -0.742214    26A     -0.725892    27A     -0.722094
      28A     -0.703378    29A     -0.698572    30A     -0.684485
      31A     -0.672428    32A     -0.664744    33A     -0.650492
      34A     -0.617571    35A     -0.613746    36A     -0.610100

  @DF-RHF Final Energy:  -367.78327433237149

   => Energetics <=

    Nuclear Repulsion Energy =            525.9374293757541636
    One-Electron Energy =               -1526.8048942368175176
    Two-Electron Energy =                 633.0841905286918063
    Total Energy =                       -367.7832743323715476
  Basis Set: (AUG-CC-PVTZ AUX)
    Blend: AUG-CC-PVTZ-RI
    Molecular point group: c1

    Geometry (in Angstrom), charge = 1, multiplicity = 1:

       Center              X                  Y                   Z               Mass
    ------------   -----------------  -----------------  -----------------  -----------------
         N           -0.502397598115    -0.219790506804     0.074535129464    14.003074004430
         C            0.472826401885    -1.265763506804    -0.444100870536    12.000000000000
         C            0.014912401885     1.164166493196    -0.269182870536    12.000000000000
         C            1.902800401885    -1.049187506804     0.025924129464    12.000000000000
         C            1.435672401885     1.403122493196     0.219179129464    12.000000000000
         C           -1.783550498115    -0.446980606804    -0.716067670536    12.000000000000
         C            2.395840401885     0.351135493196    -0.328283870536    12.000000000000
         C           -0.677226598115    -0.369087506804     1.555232129464    12.000000000000
         C           -2.974092598115     0.442909493196    -0.201446870536    12.000000000000
         H            0.419837401885    -1.201759506804    -1.535431870536     1.007825032230
         H            0.077150401885    -2.237752506804    -0.135402870536     1.007825032230
         H           -0.686232598115     1.883558493196     0.157360129464     1.007825032230
         H           -0.032109598115     1.236022493196    -1.360876870536     1.007825032230
         H            2.514672401885    -1.813775506804    -0.465149870536     1.007825032230
         H            1.996733401885    -1.233778506804     1.101057129464     1.007825032230
         H            1.470458401885     1.430415493196     1.313670129464     1.007825032230
         H            1.722417401885     2.405148493196    -0.117875870536     1.007825032230
         H           -1.627916598115    -0.359218506804    -1.692086870536     1.007825032230
         H           -2.077844598115    -1.512514506804    -0.427013870536     1.007825032230
         H            3.401815401885     0.510651493196     0.070062129464     1.007825032230
         H            2.466834401885     0.451356493196    -1.418609870536     1.007825032230
         H            0.292372401885    -0.348036506804     2.044607129464     1.007825032230
         H           -1.290185598115     0.450581493196     1.926161129464     1.007825032230
         H           -1.167876598115    -1.324229506804     1.748798129464     1.007825032230
         H           -3.845485598115     0.159145493196    -0.797922870536     1.007825032230
         H           -3.249626598115     0.318908493196     0.846684129464     1.007825032230
         H           -2.777370598115     1.496803493196    -0.403475870536     1.007825032230

  Basis Set: AUG-CC-PVTZ
    Blend: AUG-CC-PVTZ
  Basis Set: (AUG-CC-PVTZ AUX)
    Blend: AUG-CC-PVTZ-JKFIT
	 Reference Energy          =    -367.7832743323714908 [Eh]
	 Singles Energy            =      -0.0000000000000000 [Eh]
	 Same-Spin Energy          =      -0.3935475606827501 [Eh]
	 Opposite-Spin Energy      =      -1.4095827951078870 [Eh]
	 Correlation Energy        =      -1.8031303557906371 [Eh]
	 Total Energy              =    -369.5864046881621334 [Eh]

	 ================> DF-SCS-MP2 Energies <==================
	-----------------------------------------------------------
	 SCS Same-Spin Scale       =       0.3333333333333333 [-]
	 SCS Opposite-Spin Scale   =       1.2000000000000000 [-]
	 SCS Same-Spin Energy      =      -0.1311825202275834 [Eh]
	 SCS Opposite-Spin Energy  =      -1.6914993541294643 [Eh]
	 SCS Correlation Energy    =      -1.8226818743570476 [Eh]
	 SCS Total Energy          =    -369.6059562067285356 [Eh]
	-----------------------------------------------------------

  Dipole Moment: [D]
     X:    -1.4722      Y:    -0.5531      Z:     0.2336     Total:     1.5899

*** Psi4 exiting successfully. Buy a developer a beer!
