                               Psi4 1.3.2 release

  ==> Input File <==

--------------------------------------------------------------------------
#psi4
#
memory 32 gb

molecule  {
1 1
  N       -0.4303800    -0.2175757     0.0684559
  C        0.4931350    -1.2664130    -0.4574980
  C        0.0352210     1.1635170    -0.2825800
  C        1.9231090    -1.0498370     0.0125270
  C        1.4559810     1.4024730     0.2057820
  C       -1.8126550    -0.4655410    -0.6371030
  C        2.4161490     0.3504860    -0.3416810
  C       -0.6569180    -0.3697370     1.5418350
  C       -2.9537840     0.4422600    -0.2148440
  H        0.4401460    -1.2024090    -1.5488290
  H        0.0974590    -2.2384020    -0.1488000
  H       -0.6659240     1.8829090     0.1439630
  H       -0.0118010     1.2353730    -1.3742740
  H        2.5349810    -1.8144250    -0.4785470
  H        2.0170420    -1.2344280     1.0876600
  H        1.4907670     1.4297660     1.3002730
  H        1.7427260     2.4044990    -0.1312730
  H       -1.6076080    -0.3598680    -1.7054840
  H       -2.0575360    -1.5131640    -0.4404110
  H        3.4221240     0.5100020     0.0566650
  H        2.4871430     0.4507070    -1.4320070
  H        0.3126810    -0.3486860     2.0312100
  H       -1.2698770     0.4499320     1.9127640
  H       -1.1475680    -1.3248790     1.7354010
  H       -3.8251770     0.1584960    -0.8113200
  H       -3.2293180     0.3182590     0.8332870
  H       -2.7570620     1.4961540    -0.4168730
units angstrom
no_reorient  #important for SAPT in psi4, default
symmetry c1  #important for SAPT in psi4, default
}

set PROPERTIES_ORIGIN ["COM"]
properties('MP2/aug-cc-pvtz', properties = ['dipole'])
--------------------------------------------------------------------------

    Molecular point group: c1
  Charge       = 1
  Multiplicity = 1
  Basis Set: AUG-CC-PVTZ
    Blend: AUG-CC-PVTZ
  Basis Set: (AUG-CC-PVTZ AUX)
    Blend: AUG-CC-PVTZ-JKFIT

    Orbital Energies [Eh]
    ---------------------

    Doubly Occupied:

       1A    -15.842690     2A    -11.445924     3A    -11.436141
       4A    -11.435992     5A    -11.434689     6A    -11.376319
       7A    -11.375959     8A    -11.375945     9A    -11.365372
      10A     -1.484098    11A     -1.247511    12A     -1.202518
      13A     -1.188872    14A     -1.142566    15A     -1.053155
      16A     -1.029701    17A     -0.988918    18A     -0.925494
      19A     -0.866841    20A     -0.838429    21A     -0.815819
      22A     -0.803588    23A     -0.772203    24A     -0.752601
      25A     -0.743585    26A     -0.725807    27A     -0.718084
      28A     -0.706197    29A     -0.699176    30A     -0.681101
      31A     -0.670073    32A     -0.664455    33A     -0.663290
      34A     -0.616152    35A     -0.613004    36A     -0.609036

  @DF-RHF Final Energy:  -367.79465149318673

   => Energetics <=

    Nuclear Repulsion Energy =            526.3926197576786308
    One-Electron Energy =               -1527.7519281777874767
    Two-Electron Energy =                 633.5646569269221118
    Total Energy =                       -367.7946514931867341
  Basis Set: (AUG-CC-PVTZ AUX)
    Blend: AUG-CC-PVTZ-RI
    Molecular point group: c1

    Geometry (in Angstrom), charge = 1, multiplicity = 1:

       Center              X                  Y                   Z               Mass
    ------------   -----------------  -----------------  -----------------  -----------------
         N           -0.451711883098    -0.215561945519     0.072404164063    14.003074004430
         C            0.471803116902    -1.264399245519    -0.453549735937    12.000000000000
         C            0.013889116902     1.165530754481    -0.278631735937    12.000000000000
         C            1.901777116902    -1.047823245519     0.016475264063    12.000000000000
         C            1.434649116902     1.404486754481     0.209730264063    12.000000000000
         C           -1.833986883098    -0.463527245519    -0.633154735937    12.000000000000
         C            2.394817116902     0.352499754481    -0.337732735937    12.000000000000
         C           -0.678249883098    -0.367723245519     1.545783264063    12.000000000000
         C           -2.975115883098     0.444273754481    -0.210895735937    12.000000000000
         H            0.418814116902    -1.200395245519    -1.544880735937     1.007825032230
         H            0.076127116902    -2.236388245519    -0.144851735937     1.007825032230
         H           -0.687255883098     1.884922754481     0.147911264063     1.007825032230
         H           -0.033132883098     1.237386754481    -1.370325735937     1.007825032230
         H            2.513649116902    -1.812411245519    -0.474598735937     1.007825032230
         H            1.995710116902    -1.232414245519     1.091608264063     1.007825032230
         H            1.469435116902     1.431779754481     1.304221264063     1.007825032230
         H            1.721394116902     2.406512754481    -0.127324735937     1.007825032230
         H           -1.628939883098    -0.357854245519    -1.701535735937     1.007825032230
         H           -2.078867883098    -1.511150245519    -0.436462735937     1.007825032230
         H            3.400792116902     0.512015754481     0.060613264063     1.007825032230
         H            2.465811116902     0.452720754481    -1.428058735937     1.007825032230
         H            0.291349116902    -0.346672245519     2.035158264063     1.007825032230
         H           -1.291208883098     0.451945754481     1.916712264063     1.007825032230
         H           -1.168899883098    -1.322865245519     1.739349264063     1.007825032230
         H           -3.846508883098     0.160509754481    -0.807371735937     1.007825032230
         H           -3.250649883098     0.320272754481     0.837235264063     1.007825032230
         H           -2.778393883098     1.498167754481    -0.412924735937     1.007825032230

  Basis Set: AUG-CC-PVTZ
    Blend: AUG-CC-PVTZ
  Basis Set: (AUG-CC-PVTZ AUX)
    Blend: AUG-CC-PVTZ-JKFIT
	 Reference Energy          =    -367.7946514931867341 [Eh]
	 Singles Energy            =      -0.0000000000000000 [Eh]
	 Same-Spin Energy          =      -0.3939241331177556 [Eh]
	 Opposite-Spin Energy      =      -1.4095650601594885 [Eh]
	 Correlation Energy        =      -1.8034891932772441 [Eh]
	 Total Energy              =    -369.5981406864639780 [Eh]

	 ================> DF-SCS-MP2 Energies <==================
	-----------------------------------------------------------
	 SCS Same-Spin Scale       =       0.3333333333333333 [-]
	 SCS Opposite-Spin Scale   =       1.2000000000000000 [-]
	 SCS Same-Spin Energy      =      -0.1313080443725852 [Eh]
	 SCS Opposite-Spin Energy  =      -1.6914780721913860 [Eh]
	 SCS Correlation Energy    =      -1.8227861165639712 [Eh]
	 SCS Total Energy          =    -369.6174376097507093 [Eh]
	-----------------------------------------------------------

  Dipole Moment: [D]
     X:    -1.6428      Y:    -0.5553      Z:     0.1961     Total:     1.7451

*** Psi4 exiting successfully. Buy a developer a beer!
