                               Psi4 1.3.2 release

  ==> Input File <==

--------------------------------------------------------------------------
#psi4
#
memory 32 gb

molecule  {
1 1
  N       -0.4820890    -0.2204400     0.0611380
  C        0.4931350    -1.2664130    -0.4574980
  C        0.0352210     1.1635170    -0.2825800
  C        1.9231090    -1.0498370     0.0125270
  C        1.4559810     1.4024730     0.2057820
  C       -1.8349445    -0.4740539    -0.5896176
  C        2.4161490     0.3504860    -0.3416810
  C       -0.6569180    -0.3697370     1.5418350
  C       -2.9537840     0.4422600    -0.2148440
  H        0.4401460    -1.2024090    -1.5488290
  H        0.0974590    -2.2384020    -0.1488000
  H       -0.6659240     1.8829090     0.1439630
  H       -0.0118010     1.2353730    -1.3742740
  H        2.5349810    -1.8144250    -0.4785470
  H        2.0170420    -1.2344280     1.0876600
  H        1.4907670     1.4297660     1.3002730
  H        1.7427260     2.4044990    -0.1312730
  H       -1.6076080    -0.3598680    -1.7054840
  H       -2.0575360    -1.5131640    -0.4404110
  H        3.4221240     0.5100020     0.0566650
  H        2.4871430     0.4507070    -1.4320070
  H        0.3126810    -0.3486860     2.0312100
  H       -1.2698770     0.4499320     1.9127640
  H       -1.1475680    -1.3248790     1.7354010
  H       -3.8251770     0.1584960    -0.8113200
  H       -3.2293180     0.3182590     0.8332870
  H       -2.7570620     1.4961540    -0.4168730
units angstrom
no_reorient  #important for SAPT in psi4, default
symmetry c1  #important for SAPT in psi4, default
}

set PROPERTIES_ORIGIN ["COM"]
properties('MP2/aug-cc-pvtz', properties = ['dipole'])
--------------------------------------------------------------------------

    Molecular point group: c1
  Charge       = 1
  Multiplicity = 1
  Basis Set: AUG-CC-PVTZ
    Blend: AUG-CC-PVTZ
  Basis Set: (AUG-CC-PVTZ AUX)
    Blend: AUG-CC-PVTZ-JKFIT

    Orbital Energies [Eh]
    ---------------------

    Doubly Occupied:

       1A    -15.843344     2A    -11.443145     3A    -11.438922
       4A    -11.437670     5A    -11.434060     6A    -11.378388
       7A    -11.378172     8A    -11.373849     9A    -11.366452
      10A     -1.483638    11A     -1.251455    12A     -1.200248
      13A     -1.191344    14A     -1.141380    15A     -1.058847
      16A     -1.030048    17A     -0.984867    18A     -0.925941
      19A     -0.865102    20A     -0.839562    21A     -0.817597
      22A     -0.803671    23A     -0.770508    24A     -0.754947
      25A     -0.744340    26A     -0.723746    27A     -0.719076
      28A     -0.706351    29A     -0.697935    30A     -0.686038
      31A     -0.672600    32A     -0.664465    33A     -0.650234
      34A     -0.617759    35A     -0.616026    36A     -0.612915

  @DF-RHF Final Energy:  -367.79362805296580

   => Energetics <=

    Nuclear Repulsion Energy =            526.2347410996012513
    One-Electron Energy =               -1527.4074534203236908
    Two-Electron Energy =                 633.3790842677566388
    Total Energy =                       -367.7936280529658006
  Basis Set: (AUG-CC-PVTZ AUX)
    Blend: AUG-CC-PVTZ-RI
    Molecular point group: c1

    Geometry (in Angstrom), charge = 1, multiplicity = 1:

       Center              X                  Y                   Z               Mass
    ------------   -----------------  -----------------  -----------------  -----------------
         N           -0.495683029299    -0.217316057851     0.061439179691    14.003074004430
         C            0.479540970701    -1.263289057851    -0.457196820309    12.000000000000
         C            0.021626970701     1.166640942149    -0.282278820309    12.000000000000
         C            1.909514970701    -1.046713057851     0.012828179691    12.000000000000
         C            1.442386970701     1.405596942149     0.206083179691    12.000000000000
         C           -1.848538529299    -0.470929957851    -0.589316420309    12.000000000000
         C            2.402554970701     0.353609942149    -0.341379820309    12.000000000000
         C           -0.670512029299    -0.366613057851     1.542136179691    12.000000000000
         C           -2.967378029299     0.445383942149    -0.214542820309    12.000000000000
         H            0.426551970701    -1.199285057851    -1.548527820309     1.007825032230
         H            0.083864970701    -2.235278057851    -0.148498820309     1.007825032230
         H           -0.679518029299     1.886032942149     0.144264179691     1.007825032230
         H           -0.025395029299     1.238496942149    -1.373972820309     1.007825032230
         H            2.521386970701    -1.811301057851    -0.478245820309     1.007825032230
         H            2.003447970701    -1.231304057851     1.087961179691     1.007825032230
         H            1.477172970701     1.432889942149     1.300574179691     1.007825032230
         H            1.729131970701     2.407622942149    -0.130971820309     1.007825032230
         H           -1.621202029299    -0.356744057851    -1.705182820309     1.007825032230
         H           -2.071130029299    -1.510040057851    -0.440109820309     1.007825032230
         H            3.408529970701     0.513125942149     0.056966179691     1.007825032230
         H            2.473548970701     0.453830942149    -1.431705820309     1.007825032230
         H            0.299086970701    -0.345562057851     2.031511179691     1.007825032230
         H           -1.283471029299     0.453055942149     1.913065179691     1.007825032230
         H           -1.161162029299    -1.321755057851     1.735702179691     1.007825032230
         H           -3.838771029299     0.161619942149    -0.811018820309     1.007825032230
         H           -3.242912029299     0.321382942149     0.833588179691     1.007825032230
         H           -2.770656029299     1.499277942149    -0.416571820309     1.007825032230

  Basis Set: AUG-CC-PVTZ
    Blend: AUG-CC-PVTZ
  Basis Set: (AUG-CC-PVTZ AUX)
    Blend: AUG-CC-PVTZ-JKFIT
	 Reference Energy          =    -367.7936280529658006 [Eh]
	 Singles Energy            =      -0.0000000000000000 [Eh]
	 Same-Spin Energy          =      -0.3940726217695019 [Eh]
	 Opposite-Spin Energy      =      -1.4096447003828714 [Eh]
	 Correlation Energy        =      -1.8037173221523732 [Eh]
	 Total Energy              =    -369.5973453751181523 [Eh]

	 ================> DF-SCS-MP2 Energies <==================
	-----------------------------------------------------------
	 SCS Same-Spin Scale       =       0.3333333333333333 [-]
	 SCS Opposite-Spin Scale   =       1.2000000000000000 [-]
	 SCS Same-Spin Energy      =      -0.1313575405898340 [Eh]
	 SCS Opposite-Spin Energy  =      -1.6915736404594457 [Eh]
	 SCS Correlation Energy    =      -1.8229311810492796 [Eh]
	 SCS Total Energy          =    -369.6165592340150852 [Eh]
	-----------------------------------------------------------

  Dipole Moment: [D]
     X:    -1.4954      Y:    -0.5439      Z:     0.2187     Total:     1.6062

*** Psi4 exiting successfully. Buy a developer a beer!
