                               Psi4 1.3.2 release

  ==> Input File <==

--------------------------------------------------------------------------
#psi4
#
memory 32 gb

molecule  {
1 1
  N       -0.4820890    -0.2204400     0.0611380
  C        0.4931350    -1.2664130    -0.4574980
  C        0.0352210     1.1635170    -0.2825800
  C        1.9231090    -1.0498370     0.0125270
  C        1.4559810     1.4024730     0.2057820
  C       -1.8126550    -0.4655410    -0.6371030
  C        2.4161490     0.3504860    -0.3416810
  C       -0.6569180    -0.3697370     1.5418350
  C       -2.9537840     0.4422600    -0.2148440
  H        0.4401460    -1.2024090    -1.5488290
  H        0.0974590    -2.2384020    -0.1488000
  H       -0.6659240     1.8829090     0.1439630
  H       -0.0118010     1.2353730    -1.3742740
  H        2.5349810    -1.8144250    -0.4785470
  H        2.0170420    -1.2344280     1.0876600
  H        1.4907670     1.4297660     1.3002730
  H        1.7427260     2.4044990    -0.1312730
  H       -1.6076080    -0.3598680    -1.7054840
  H       -2.0575360    -1.5131640    -0.4404110
  H        3.4221240     0.5100020     0.0566650
  H        2.4871430     0.4507070    -1.4320070
  H        0.3126810    -0.3486860     2.0312100
  H       -1.2698770     0.4499320     1.9127640
  H       -1.1475680    -1.3248790     1.7354010
  H       -3.8251770     0.1584960    -0.8113200
  H       -3.2293180     0.3182590     0.8332870
  H       -2.7570620     1.4961540    -0.4168730
units angstrom
no_reorient  #important for SAPT in psi4, default
symmetry c1  #important for SAPT in psi4, default
}

set PROPERTIES_ORIGIN ["COM"]
properties('MP2/aug-cc-pvtz', properties = ['dipole'])
--------------------------------------------------------------------------

    Molecular point group: c1
  Charge       = 1
  Multiplicity = 1
  Basis Set: AUG-CC-PVTZ
    Blend: AUG-CC-PVTZ
  Basis Set: (AUG-CC-PVTZ AUX)
    Blend: AUG-CC-PVTZ-JKFIT

    Orbital Energies [Eh]
    ---------------------

    Doubly Occupied:

       1A    -15.843127     2A    -11.441647     3A    -11.438614
       4A    -11.437438     5A    -11.434537     6A    -11.378050
       7A    -11.377884     8A    -11.374410     9A    -11.366314
      10A     -1.483424    11A     -1.250292    12A     -1.199934
      13A     -1.188689    14A     -1.141212    15A     -1.058095
      16A     -1.029881    17A     -0.986202    18A     -0.926031
      19A     -0.867021    20A     -0.838745    21A     -0.816410
      22A     -0.804054    23A     -0.771146    24A     -0.753801
      25A     -0.743586    26A     -0.723031    27A     -0.719809
      28A     -0.705254    29A     -0.698050    30A     -0.680163
      31A     -0.671490    32A     -0.664508    33A     -0.661199
      34A     -0.617667    35A     -0.615235    36A     -0.612280

  @DF-RHF Final Energy:  -367.79732002172483

   => Energetics <=

    Nuclear Repulsion Energy =            526.1241254796834710
    One-Electron Energy =               -1527.2044322645024295
    Two-Electron Energy =                 633.2829867630940726
    Total Energy =                       -367.7973200217248859
  Basis Set: (AUG-CC-PVTZ AUX)
    Blend: AUG-CC-PVTZ-RI
    Molecular point group: c1

    Geometry (in Angstrom), charge = 1, multiplicity = 1:

       Center              X                  Y                   Z               Mass
    ------------   -----------------  -----------------  -----------------  -----------------
         N           -0.497770322949    -0.218113245859     0.065885935960    14.003074004430
         C            0.477453677051    -1.264086245859    -0.452750064040    12.000000000000
         C            0.019539677051     1.165843754141    -0.277832064040    12.000000000000
         C            1.907427677051    -1.047510245859     0.017274935960    12.000000000000
         C            1.440299677051     1.404799754141     0.210529935960    12.000000000000
         C           -1.828336322949    -0.463214245859    -0.632355064040    12.000000000000
         C            2.400467677051     0.352812754141    -0.336933064040    12.000000000000
         C           -0.672599322949    -0.367410245859     1.546582935960    12.000000000000
         C           -2.969465322949     0.444586754141    -0.210096064040    12.000000000000
         H            0.424464677051    -1.200082245859    -1.544081064040     1.007825032230
         H            0.081777677051    -2.236075245859    -0.144052064040     1.007825032230
         H           -0.681605322949     1.885235754141     0.148710935960     1.007825032230
         H           -0.027482322949     1.237699754141    -1.369526064040     1.007825032230
         H            2.519299677051    -1.812098245859    -0.473799064040     1.007825032230
         H            2.001360677051    -1.232101245859     1.092407935960     1.007825032230
         H            1.475085677051     1.432092754141     1.305020935960     1.007825032230
         H            1.727044677051     2.406825754141    -0.126525064040     1.007825032230
         H           -1.623289322949    -0.357541245859    -1.700736064040     1.007825032230
         H           -2.073217322949    -1.510837245859    -0.435663064040     1.007825032230
         H            3.406442677051     0.512328754141     0.061412935960     1.007825032230
         H            2.471461677051     0.453033754141    -1.427259064040     1.007825032230
         H            0.296999677051    -0.346359245859     2.035957935960     1.007825032230
         H           -1.285558322949     0.452258754141     1.917511935960     1.007825032230
         H           -1.163249322949    -1.322552245859     1.740148935960     1.007825032230
         H           -3.840858322949     0.160822754141    -0.806572064040     1.007825032230
         H           -3.244999322949     0.320585754141     0.838034935960     1.007825032230
         H           -2.772743322949     1.498480754141    -0.412125064040     1.007825032230

  Basis Set: AUG-CC-PVTZ
    Blend: AUG-CC-PVTZ
  Basis Set: (AUG-CC-PVTZ AUX)
    Blend: AUG-CC-PVTZ-JKFIT
	 Reference Energy          =    -367.7973200217248291 [Eh]
	 Singles Energy            =      -0.0000000000000000 [Eh]
	 Same-Spin Energy          =      -0.3937446000050564 [Eh]
	 Opposite-Spin Energy      =      -1.4092136704713056 [Eh]
	 Correlation Energy        =      -1.8029582704763620 [Eh]
	 Total Energy              =    -369.6002782922012102 [Eh]

	 ================> DF-SCS-MP2 Energies <==================
	-----------------------------------------------------------
	 SCS Same-Spin Scale       =       0.3333333333333333 [-]
	 SCS Opposite-Spin Scale   =       1.2000000000000000 [-]
	 SCS Same-Spin Energy      =      -0.1312482000016855 [Eh]
	 SCS Opposite-Spin Energy  =      -1.6910564045655667 [Eh]
	 SCS Correlation Energy    =      -1.8223046045672522 [Eh]
	 SCS Total Energy          =    -369.6196246262920795 [Eh]
	-----------------------------------------------------------

  Dipole Moment: [D]
     X:    -1.4911      Y:    -0.5505      Z:     0.2126     Total:     1.6037

*** Psi4 exiting successfully. Buy a developer a beer!
