                               Psi4 1.3.2 release

  ==> Input File <==

--------------------------------------------------------------------------
#psi4
#
memory 32 gb

molecule  {
1 1
  N       -0.4712900    -0.2401612     0.0469765
  C        0.4931350    -1.2664130    -0.4574980
  C        0.0352210     1.1635170    -0.2825800
  C        1.9231090    -1.0498370     0.0125270
  C        1.4559810     1.4024730     0.2057820
  C       -1.8126550    -0.4655410    -0.6371030
  C        2.4161490     0.3504860    -0.3416810
  C       -0.6569180    -0.3697370     1.5418350
  C       -2.9537840     0.4422600    -0.2148440
  H        0.4401460    -1.2024090    -1.5488290
  H        0.0974590    -2.2384020    -0.1488000
  H       -0.6659240     1.8829090     0.1439630
  H       -0.0118010     1.2353730    -1.3742740
  H        2.5349810    -1.8144250    -0.4785470
  H        2.0170420    -1.2344280     1.0876600
  H        1.4907670     1.4297660     1.3002730
  H        1.7427260     2.4044990    -0.1312730
  H       -1.6076080    -0.3598680    -1.7054840
  H       -2.0575360    -1.5131640    -0.4404110
  H        3.4221240     0.5100020     0.0566650
  H        2.4871430     0.4507070    -1.4320070
  H        0.3126810    -0.3486860     2.0312100
  H       -1.2698770     0.4499320     1.9127640
  H       -1.1475680    -1.3248790     1.7354010
  H       -3.8251770     0.1584960    -0.8113200
  H       -3.2293180     0.3182590     0.8332870
  H       -2.7570620     1.4961540    -0.4168730
units angstrom
no_reorient  #important for SAPT in psi4, default
symmetry c1  #important for SAPT in psi4, default
}

set PROPERTIES_ORIGIN ["COM"]
properties('MP2/aug-cc-pvtz', properties = ['dipole'])
--------------------------------------------------------------------------

    Molecular point group: c1
  Charge       = 1
  Multiplicity = 1
  Basis Set: AUG-CC-PVTZ
    Blend: AUG-CC-PVTZ
  Basis Set: (AUG-CC-PVTZ AUX)
    Blend: AUG-CC-PVTZ-JKFIT

    Orbital Energies [Eh]
    ---------------------

    Doubly Occupied:

       1A    -15.843357     2A    -11.441647     3A    -11.438451
       4A    -11.436415     5A    -11.435684     6A    -11.377972
       7A    -11.377679     8A    -11.375246     9A    -11.366222
      10A     -1.483808    11A     -1.249999    12A     -1.201150
      13A     -1.187514    14A     -1.141105    15A     -1.058563
      16A     -1.029789    17A     -0.987626    18A     -0.925890
      19A     -0.866597    20A     -0.839148    21A     -0.814874
      22A     -0.804115    23A     -0.771453    24A     -0.753926
      25A     -0.743289    26A     -0.724034    27A     -0.719609
      28A     -0.707314    29A     -0.695089    30A     -0.681546
      31A     -0.671188    32A     -0.664354    33A     -0.661045
      34A     -0.617389    35A     -0.614844    36A     -0.612990

  @DF-RHF Final Energy:  -367.79658363655176

   => Energetics <=

    Nuclear Repulsion Energy =            526.1419339616114712
    One-Electron Energy =               -1527.2351978214890096
    Two-Electron Energy =                 633.2966802233257795
    Total Energy =                       -367.7965836365517589
  Basis Set: (AUG-CC-PVTZ AUX)
    Blend: AUG-CC-PVTZ-RI
    Molecular point group: c1

    Geometry (in Angstrom), charge = 1, multiplicity = 1:

       Center              X                  Y                   Z               Mass
    ------------   -----------------  -----------------  -----------------  -----------------
         N           -0.488151396032    -0.235679389160     0.053271950079    14.003074004430
         C            0.476273603968    -1.261931189160    -0.451202549921    12.000000000000
         C            0.018359603968     1.167998810840    -0.276284549921    12.000000000000
         C            1.906247603968    -1.045355189160     0.018822450079    12.000000000000
         C            1.439119603968     1.406954810840     0.212077450079    12.000000000000
         C           -1.829516396032    -0.461059189160    -0.630807549921    12.000000000000
         C            2.399287603968     0.354967810840    -0.335385549921    12.000000000000
         C           -0.673779396032    -0.365255189160     1.548130450079    12.000000000000
         C           -2.970645396032     0.446741810840    -0.208548549921    12.000000000000
         H            0.423284603968    -1.197927189160    -1.542533549921     1.007825032230
         H            0.080597603968    -2.233920189160    -0.142504549921     1.007825032230
         H           -0.682785396032     1.887390810840     0.150258450079     1.007825032230
         H           -0.028662396032     1.239854810840    -1.367978549921     1.007825032230
         H            2.518119603968    -1.809943189160    -0.472251549921     1.007825032230
         H            2.000180603968    -1.229946189160     1.093955450079     1.007825032230
         H            1.473905603968     1.434247810840     1.306568450079     1.007825032230
         H            1.725864603968     2.408980810840    -0.124977549921     1.007825032230
         H           -1.624469396032    -0.355386189160    -1.699188549921     1.007825032230
         H           -2.074397396032    -1.508682189160    -0.434115549921     1.007825032230
         H            3.405262603968     0.514483810840     0.062960450079     1.007825032230
         H            2.470281603968     0.455188810840    -1.425711549921     1.007825032230
         H            0.295819603968    -0.344204189160     2.037505450079     1.007825032230
         H           -1.286738396032     0.454413810840     1.919059450079     1.007825032230
         H           -1.164429396032    -1.320397189160     1.741696450079     1.007825032230
         H           -3.842038396032     0.162977810840    -0.805024549921     1.007825032230
         H           -3.246179396032     0.322740810840     0.839582450079     1.007825032230
         H           -2.773923396032     1.500635810840    -0.410577549921     1.007825032230

  Basis Set: AUG-CC-PVTZ
    Blend: AUG-CC-PVTZ
  Basis Set: (AUG-CC-PVTZ AUX)
    Blend: AUG-CC-PVTZ-JKFIT
	 Reference Energy          =    -367.7965836365517589 [Eh]
	 Singles Energy            =      -0.0000000000000000 [Eh]
	 Same-Spin Energy          =      -0.3937797201251684 [Eh]
	 Opposite-Spin Energy      =      -1.4092908724005717 [Eh]
	 Correlation Energy        =      -1.8030705925257400 [Eh]
	 Total Energy              =    -369.5996542290774869 [Eh]

	 ================> DF-SCS-MP2 Energies <==================
	-----------------------------------------------------------
	 SCS Same-Spin Scale       =       0.3333333333333333 [-]
	 SCS Opposite-Spin Scale   =       1.2000000000000000 [-]
	 SCS Same-Spin Energy      =      -0.1312599067083894 [Eh]
	 SCS Opposite-Spin Energy  =      -1.6911490468806860 [Eh]
	 SCS Correlation Energy    =      -1.8224089535890755 [Eh]
	 SCS Total Energy          =    -369.6189925901408060 [Eh]
	-----------------------------------------------------------

  Dipole Moment: [D]
     X:    -1.5209      Y:    -0.5031      Z:     0.2428     Total:     1.6202

*** Psi4 exiting successfully. Buy a developer a beer!
