                               Psi4 1.3.2 release

  ==> Input File <==

--------------------------------------------------------------------------
#psi4
#
memory 32 gb

molecule  {
1 1
  N       -0.4820890    -0.2204400     0.0611380
  C        0.5572431    -1.3351719    -0.4915915
  C        0.0352210     1.1635170    -0.2825800
  C        1.9231090    -1.0498370     0.0125270
  C        1.4559810     1.4024730     0.2057820
  C       -1.8126550    -0.4655410    -0.6371030
  C        2.4161490     0.3504860    -0.3416810
  C       -0.6569180    -0.3697370     1.5418350
  C       -2.9537840     0.4422600    -0.2148440
  H        0.4401460    -1.2024090    -1.5488290
  H        0.0974590    -2.2384020    -0.1488000
  H       -0.6659240     1.8829090     0.1439630
  H       -0.0118010     1.2353730    -1.3742740
  H        2.5349810    -1.8144250    -0.4785470
  H        2.0170420    -1.2344280     1.0876600
  H        1.4907670     1.4297660     1.3002730
  H        1.7427260     2.4044990    -0.1312730
  H       -1.6076080    -0.3598680    -1.7054840
  H       -2.0575360    -1.5131640    -0.4404110
  H        3.4221240     0.5100020     0.0566650
  H        2.4871430     0.4507070    -1.4320070
  H        0.3126810    -0.3486860     2.0312100
  H       -1.2698770     0.4499320     1.9127640
  H       -1.1475680    -1.3248790     1.7354010
  H       -3.8251770     0.1584960    -0.8113200
  H       -3.2293180     0.3182590     0.8332870
  H       -2.7570620     1.4961540    -0.4168730
units angstrom
no_reorient  #important for SAPT in psi4, default
symmetry c1  #important for SAPT in psi4, default
}

set PROPERTIES_ORIGIN ["COM"]
properties('MP2/aug-cc-pvtz', properties = ['dipole'])
--------------------------------------------------------------------------

    Molecular point group: c1
  Charge       = 1
  Multiplicity = 1
  Basis Set: AUG-CC-PVTZ
    Blend: AUG-CC-PVTZ
  Basis Set: (AUG-CC-PVTZ AUX)
    Blend: AUG-CC-PVTZ-JKFIT

    Orbital Energies [Eh]
    ---------------------

    Doubly Occupied:

       1A    -15.834595     2A    -11.445207     3A    -11.438492
       4A    -11.434134     5A    -11.430841     6A    -11.379262
       7A    -11.376996     8A    -11.372014     9A    -11.368839
      10A     -1.465089    11A     -1.253441    12A     -1.202334
      13A     -1.185179    14A     -1.134863    15A     -1.058462
      16A     -1.029573    17A     -0.980165    18A     -0.927978
      19A     -0.861260    20A     -0.834690    21A     -0.811550
      22A     -0.808779    23A     -0.770757    24A     -0.757254
      25A     -0.743472    26A     -0.720062    27A     -0.717353
      28A     -0.706793    29A     -0.701759    30A     -0.675657
      31A     -0.669287    32A     -0.664510    33A     -0.658034
      34A     -0.623250    35A     -0.619395    36A     -0.605053

  @DF-RHF Final Energy:  -367.78996606756760

   => Energetics <=

    Nuclear Repulsion Energy =            524.5199840945851975
    One-Electron Energy =               -1524.0871473145243726
    Two-Electron Energy =                 631.7771971523715138
    Total Energy =                       -367.7899660675676614
  Basis Set: (AUG-CC-PVTZ AUX)
    Blend: AUG-CC-PVTZ-RI
    Molecular point group: c1

    Geometry (in Angstrom), charge = 1, multiplicity = 1:

       Center              X                  Y                   Z               Mass
    ------------   -----------------  -----------------  -----------------  -----------------
         N           -0.503773707054    -0.211674338961     0.069078611706    14.003074004430
         C            0.535558392946    -1.326406238961    -0.483650888294    12.000000000000
         C            0.013536292946     1.172282661039    -0.274639388294    12.000000000000
         C            1.901424292946    -1.041071338961     0.020467611706    12.000000000000
         C            1.434296292946     1.411238661039     0.213722611706    12.000000000000
         C           -1.834339707054    -0.456775338961    -0.629162388294    12.000000000000
         C            2.394464292946     0.359251661039    -0.333740388294    12.000000000000
         C           -0.678602707054    -0.360971338961     1.549775611706    12.000000000000
         C           -2.975468707054     0.451025661039    -0.206903388294    12.000000000000
         H            0.418461292946    -1.193643338961    -1.540888388294     1.007825032230
         H            0.075774292946    -2.229636338961    -0.140859388294     1.007825032230
         H           -0.687608707054     1.891674661039     0.151903611706     1.007825032230
         H           -0.033485707054     1.244138661039    -1.366333388294     1.007825032230
         H            2.513296292946    -1.805659338961    -0.470606388294     1.007825032230
         H            1.995357292946    -1.225662338961     1.095600611706     1.007825032230
         H            1.469082292946     1.438531661039     1.308213611706     1.007825032230
         H            1.721041292946     2.413264661039    -0.123332388294     1.007825032230
         H           -1.629292707054    -0.351102338961    -1.697543388294     1.007825032230
         H           -2.079220707054    -1.504398338961    -0.432470388294     1.007825032230
         H            3.400439292946     0.518767661039     0.064605611706     1.007825032230
         H            2.465458292946     0.459472661039    -1.424066388294     1.007825032230
         H            0.290996292946    -0.339920338961     2.039150611706     1.007825032230
         H           -1.291561707054     0.458697661039     1.920704611706     1.007825032230
         H           -1.169252707054    -1.316113338961     1.743341611706     1.007825032230
         H           -3.846861707054     0.167261661039    -0.803379388294     1.007825032230
         H           -3.251002707054     0.327024661039     0.841227611706     1.007825032230
         H           -2.778746707054     1.504919661039    -0.408932388294     1.007825032230

  Basis Set: AUG-CC-PVTZ
    Blend: AUG-CC-PVTZ
  Basis Set: (AUG-CC-PVTZ AUX)
    Blend: AUG-CC-PVTZ-JKFIT
	 Reference Energy          =    -367.7899660675676046 [Eh]
	 Singles Energy            =      -0.0000000000000000 [Eh]
	 Same-Spin Energy          =      -0.3937984605696502 [Eh]
	 Opposite-Spin Energy      =      -1.4099527443944480 [Eh]
	 Correlation Energy        =      -1.8037512049640982 [Eh]
	 Total Energy              =    -369.5937172725317055 [Eh]

	 ================> DF-SCS-MP2 Energies <==================
	-----------------------------------------------------------
	 SCS Same-Spin Scale       =       0.3333333333333333 [-]
	 SCS Opposite-Spin Scale   =       1.2000000000000000 [-]
	 SCS Same-Spin Energy      =      -0.1312661535232167 [Eh]
	 SCS Opposite-Spin Energy  =      -1.6919432932733376 [Eh]
	 SCS Correlation Energy    =      -1.8232094467965543 [Eh]
	 SCS Total Energy          =    -369.6131755143641726 [Eh]
	-----------------------------------------------------------

  Dipole Moment: [D]
     X:    -1.3028      Y:    -0.6752      Z:     0.1519     Total:     1.4752

*** Psi4 exiting successfully. Buy a developer a beer!
