                               Psi4 1.4a3.dev225

  ==> Input File <==

--------------------------------------------------------------------------
#psi4
#
memory 32 gb

molecule  {
1 1
  N       -0.4820890    -0.2204400     0.0611380
  C        0.4931350    -1.2664130    -0.4574980
  C        0.0352210     1.1635170    -0.2825800
  C        1.9231090    -1.0498370     0.0125270
  C        1.4559810     1.4024730     0.2057820
  C       -1.8126550    -0.4655410    -0.6371030
  C        2.4161490     0.3504860    -0.3416810
  C       -0.6510843    -0.3647552     1.4924270
  C       -2.9537840     0.4422600    -0.2148440
  H        0.4401460    -1.2024090    -1.5488290
  H        0.0974590    -2.2384020    -0.1488000
  H       -0.6659240     1.8829090     0.1439630
  H       -0.0118010     1.2353730    -1.3742740
  H        2.5349810    -1.8144250    -0.4785470
  H        2.0170420    -1.2344280     1.0876600
  H        1.4907670     1.4297660     1.3002730
  H        1.7427260     2.4044990    -0.1312730
  H       -1.6076080    -0.3598680    -1.7054840
  H       -2.0575360    -1.5131640    -0.4404110
  H        3.4221240     0.5100020     0.0566650
  H        2.4871430     0.4507070    -1.4320070
  H        0.3126810    -0.3486860     2.0312100
  H       -1.2698770     0.4499320     1.9127640
  H       -1.1475680    -1.3248790     1.7354010
  H       -3.8251770     0.1584960    -0.8113200
  H       -3.2293180     0.3182590     0.8332870
  H       -2.7570620     1.4961540    -0.4168730
units angstrom
no_reorient  #important for SAPT in psi4, default
symmetry c1  #important for SAPT in psi4, default
}

set PROPERTIES_ORIGIN ["COM"]
properties('MP2/aug-cc-pvtz', properties = ['dipole'])
--------------------------------------------------------------------------

    Molecular point group: c1
  Charge       = 1
  Multiplicity = 1
  Basis Set: AUG-CC-PVTZ
    Blend: AUG-CC-PVTZ
  Basis Set: (AUG-CC-PVTZ AUX)
    Blend: AUG-CC-PVTZ-JKFIT

    Orbital Energies [Eh]
    ---------------------

    Doubly Occupied:

       1A    -15.844633     2A    -11.442735     3A    -11.439757
       4A    -11.438586     5A    -11.433597     6A    -11.378438
       7A    -11.378300     8A    -11.374745     9A    -11.366702
      10A     -1.493839    11A     -1.251778    12A     -1.201458
      13A     -1.191414    14A     -1.140456    15A     -1.059019
      16A     -1.031210    17A     -0.986966    18A     -0.926829
      19A     -0.869844    20A     -0.841072    21A     -0.820390
      22A     -0.804150    23A     -0.774283    24A     -0.754720
      25A     -0.743170    26A     -0.716362    27A     -0.713000
      28A     -0.705164    29A     -0.699654    30A     -0.680004
      31A     -0.672117    32A     -0.663805    33A     -0.662058
      34A     -0.617576    35A     -0.616039    36A     -0.612940

  @DF-RHF Final Energy:  -367.79482445223391

   => Energetics <=

    Nuclear Repulsion Energy =            527.2231678356506563
    One-Electron Energy =               -1529.3423689255982936
    Two-Electron Energy =                 634.3243766377137263
    Total Energy =                       -367.7948244522339110
  Basis Set: (AUG-CC-PVTZ AUX)
    Blend: AUG-CC-PVTZ-RI
    Molecular point group: c1

    Geometry (in Angstrom), charge = 1, multiplicity = 1:

       Center              X                  Y                   Z               Mass
    ------------   -----------------  -----------------  -----------------  -----------------
         N           -0.498316618063    -0.218579765050     0.070512733539    14.003074004430
         C            0.476907381937    -1.264552765050    -0.448123266461    12.000000000000
         C            0.018993381937     1.165377234950    -0.273205266461    12.000000000000
         C            1.906881381937    -1.047976765050     0.021901733539    12.000000000000
         C            1.439753381937     1.404333234950     0.215156733539    12.000000000000
         C           -1.828882618063    -0.463680765050    -0.627728266461    12.000000000000
         C            2.399921381937     0.352346234950    -0.332306266461    12.000000000000
         C           -0.667311918063    -0.362894965050     1.501801733539    12.000000000000
         C           -2.970011618063     0.444120234950    -0.205469266461    12.000000000000
         H            0.423918381937    -1.200548765050    -1.539454266461     1.007825032230
         H            0.081231381937    -2.236541765050    -0.139425266461     1.007825032230
         H           -0.682151618063     1.884769234950     0.153337733539     1.007825032230
         H           -0.028028618063     1.237233234950    -1.364899266461     1.007825032230
         H            2.518753381937    -1.812564765050    -0.469172266461     1.007825032230
         H            2.000814381937    -1.232567765050     1.097034733539     1.007825032230
         H            1.474539381937     1.431626234950     1.309647733539     1.007825032230
         H            1.726498381937     2.406359234950    -0.121898266461     1.007825032230
         H           -1.623835618063    -0.358007765050    -1.696109266461     1.007825032230
         H           -2.073763618063    -1.511303765050    -0.431036266461     1.007825032230
         H            3.405896381937     0.511862234950     0.066039733539     1.007825032230
         H            2.470915381937     0.452567234950    -1.422632266461     1.007825032230
         H            0.296453381937    -0.346825765050     2.040584733539     1.007825032230
         H           -1.286104618063     0.451792234950     1.922138733539     1.007825032230
         H           -1.163795618063    -1.323018765050     1.744775733539     1.007825032230
         H           -3.841404618063     0.160356234950    -0.801945266461     1.007825032230
         H           -3.245545618063     0.320119234950     0.842661733539     1.007825032230
         H           -2.773289618063     1.498014234950    -0.407498266461     1.007825032230

  Basis Set: AUG-CC-PVTZ
    Blend: AUG-CC-PVTZ
  Basis Set: (AUG-CC-PVTZ AUX)
    Blend: AUG-CC-PVTZ-JKFIT
	 Reference Energy          =    -367.7948244522339110 [Eh]
	 Singles Energy            =      -0.0000000000000000 [Eh]
	 Same-Spin Energy          =      -0.3942481932627226 [Eh]
	 Opposite-Spin Energy      =      -1.4093943643304634 [Eh]
	 Correlation Energy        =      -1.8036425575931860 [Eh]
	 Total Energy              =    -369.5984670098271181 [Eh]

	 ================> DF-SCS-MP2 Energies <==================
	-----------------------------------------------------------
	 SCS Same-Spin Scale       =       0.3333333333333333 [-]
	 SCS Opposite-Spin Scale   =       1.2000000000000000 [-]
	 SCS Same-Spin Energy      =      -0.1314160644209075 [Eh]
	 SCS Opposite-Spin Energy  =      -1.6912732371965560 [Eh]
	 SCS Correlation Energy    =      -1.8226893016174635 [Eh]
	 SCS Total Energy          =    -369.6175137538513695 [Eh]
	-----------------------------------------------------------

  Dipole Moment: [D]
     X:    -1.4774      Y:    -0.5413      Z:     0.1580     Total:     1.5813

*** Psi4 exiting successfully. Buy a developer a beer!
