                               Psi4 1.3.2 release

  ==> Input File <==

--------------------------------------------------------------------------
#psi4
#
memory 32 gb

molecule  {
1 1
  N       -0.4820890    -0.2204400     0.0611380
  C        0.4931350    -1.2664130    -0.4574980
  C        0.0352210     1.1635170    -0.2825800
  C        1.9231090    -1.0498370     0.0125270
  C        1.4559810     1.4024730     0.2057820
  C       -1.8126550    -0.4655410    -0.6371030
  C        2.4161490     0.3504860    -0.3416810
  C       -0.6452506    -0.3597735     1.4430190
  C       -2.9537840     0.4422600    -0.2148440
  H        0.4401460    -1.2024090    -1.5488290
  H        0.0974590    -2.2384020    -0.1488000
  H       -0.6659240     1.8829090     0.1439630
  H       -0.0118010     1.2353730    -1.3742740
  H        2.5349810    -1.8144250    -0.4785470
  H        2.0170420    -1.2344280     1.0876600
  H        1.4907670     1.4297660     1.3002730
  H        1.7427260     2.4044990    -0.1312730
  H       -1.6076080    -0.3598680    -1.7054840
  H       -2.0575360    -1.5131640    -0.4404110
  H        3.4221240     0.5100020     0.0566650
  H        2.4871430     0.4507070    -1.4320070
  H        0.3126810    -0.3486860     2.0312100
  H       -1.2698770     0.4499320     1.9127640
  H       -1.1475680    -1.3248790     1.7354010
  H       -3.8251770     0.1584960    -0.8113200
  H       -3.2293180     0.3182590     0.8332870
  H       -2.7570620     1.4961540    -0.4168730
units angstrom
no_reorient  #important for SAPT in psi4, default
symmetry c1  #important for SAPT in psi4, default
}

set PROPERTIES_ORIGIN ["COM"]
properties('MP2/aug-cc-pvtz', properties = ['dipole'])
--------------------------------------------------------------------------

    Molecular point group: c1
  Charge       = 1
  Multiplicity = 1
  Basis Set: AUG-CC-PVTZ
    Blend: AUG-CC-PVTZ
  Basis Set: (AUG-CC-PVTZ AUX)
    Blend: AUG-CC-PVTZ-JKFIT

    Orbital Energies [Eh]
    ---------------------

    Doubly Occupied:

       1A    -15.845459     2A    -11.443792     3A    -11.440872
       4A    -11.439709     5A    -11.433523     6A    -11.378804
       7A    -11.378692     8A    -11.375055     9A    -11.367064
      10A     -1.505761    11A     -1.253378    12A     -1.203053
      13A     -1.194519    14A     -1.140289    15A     -1.059904
      16A     -1.032541    17A     -0.987492    18A     -0.927492
      19A     -0.873019    20A     -0.843899    21A     -0.824900
      22A     -0.804477    23A     -0.777389    24A     -0.755742
      25A     -0.743615    26A     -0.715108    27A     -0.709411
      28A     -0.704101    29A     -0.694370    30A     -0.678196
      31A     -0.671623    32A     -0.663396    33A     -0.660874
      34A     -0.617430    35A     -0.616508    36A     -0.613470

  @DF-RHF Final Energy:  -367.78706410082333

   => Energetics <=

    Nuclear Repulsion Energy =            528.3574425500548841
    One-Electron Energy =               -1531.5391612635651200
    Two-Electron Energy =                 635.3946546126868498
    Total Energy =                       -367.7870641008233861
  Basis Set: (AUG-CC-PVTZ AUX)
    Blend: AUG-CC-PVTZ-RI
    Molecular point group: c1

    Geometry (in Angstrom), charge = 1, multiplicity = 1:

       Center              X                  Y                   Z               Mass
    ------------   -----------------  -----------------  -----------------  -----------------
         N           -0.498862913178    -0.219046274876     0.075139531118    14.003074004430
         C            0.476361086822    -1.265019274876    -0.443496468882    12.000000000000
         C            0.018447086822     1.164910725124    -0.268578468882    12.000000000000
         C            1.906335086822    -1.048443274876     0.026528531118    12.000000000000
         C            1.439207086822     1.403866725124     0.219783531118    12.000000000000
         C           -1.829428913178    -0.464147274876    -0.623101468882    12.000000000000
         C            2.399375086822     0.351879725124    -0.327679468882    12.000000000000
         C           -0.662024513178    -0.358379774876     1.457020531118    12.000000000000
         C           -2.970557913178     0.443653725124    -0.200842468882    12.000000000000
         H            0.423372086822    -1.201015274876    -1.534827468882     1.007825032230
         H            0.080685086822    -2.237008274876    -0.134798468882     1.007825032230
         H           -0.682697913178     1.884302725124     0.157964531118     1.007825032230
         H           -0.028574913178     1.236766725124    -1.360272468882     1.007825032230
         H            2.518207086822    -1.813031274876    -0.464545468882     1.007825032230
         H            2.000268086822    -1.233034274876     1.101661531118     1.007825032230
         H            1.473993086822     1.431159725124     1.314274531118     1.007825032230
         H            1.725952086822     2.405892725124    -0.117271468882     1.007825032230
         H           -1.624381913178    -0.358474274876    -1.691482468882     1.007825032230
         H           -2.074309913178    -1.511770274876    -0.426409468882     1.007825032230
         H            3.405350086822     0.511395725124     0.070666531118     1.007825032230
         H            2.470369086822     0.452100725124    -1.418005468882     1.007825032230
         H            0.295907086822    -0.347292274876     2.045211531118     1.007825032230
         H           -1.286650913178     0.451325725124     1.926765531118     1.007825032230
         H           -1.164341913178    -1.323485274876     1.749402531118     1.007825032230
         H           -3.841950913178     0.159889725124    -0.797318468882     1.007825032230
         H           -3.246091913178     0.319652725124     0.847288531118     1.007825032230
         H           -2.773835913178     1.497547725124    -0.402871468882     1.007825032230

  Basis Set: AUG-CC-PVTZ
    Blend: AUG-CC-PVTZ
  Basis Set: (AUG-CC-PVTZ AUX)
    Blend: AUG-CC-PVTZ-JKFIT
	 Reference Energy          =    -367.7870641008233292 [Eh]
	 Singles Energy            =      -0.0000000000000000 [Eh]
	 Same-Spin Energy          =      -0.3949541175135839 [Eh]
	 Opposite-Spin Energy      =      -1.4099005343987567 [Eh]
	 Correlation Energy        =      -1.8048546519123407 [Eh]
	 Total Energy              =    -369.5919187527356939 [Eh]

	 ================> DF-SCS-MP2 Energies <==================
	-----------------------------------------------------------
	 SCS Same-Spin Scale       =       0.3333333333333333 [-]
	 SCS Opposite-Spin Scale   =       1.2000000000000000 [-]
	 SCS Same-Spin Energy      =      -0.1316513725045280 [Eh]
	 SCS Opposite-Spin Energy  =      -1.6918806412785081 [Eh]
	 SCS Correlation Energy    =      -1.8235320137830362 [Eh]
	 SCS Total Energy          =    -369.6105961146063805 [Eh]
	-----------------------------------------------------------

  Dipole Moment: [D]
     X:    -1.4636      Y:    -0.5323      Z:     0.1075     Total:     1.5611

*** Psi4 exiting successfully. Buy a developer a beer!
