                               Psi4 1.3.2 release

  ==> Input File <==

--------------------------------------------------------------------------
#psi4
#
memory 32 gb

molecule  {
1 1
  N       -0.4820890    -0.2204400     0.0611380
  C        0.5024340    -1.3017807    -0.3578148
  C        0.0352210     1.1635170    -0.2825800
  C        1.9231090    -1.0498370     0.0125270
  C        1.4559810     1.4024730     0.2057820
  C       -1.8126550    -0.4655410    -0.6371030
  C        2.4161490     0.3504860    -0.3416810
  C       -0.6569180    -0.3697370     1.5418350
  C       -2.9537840     0.4422600    -0.2148440
  H        0.4401460    -1.2024090    -1.5488290
  H        0.0974590    -2.2384020    -0.1488000
  H       -0.6659240     1.8829090     0.1439630
  H       -0.0118010     1.2353730    -1.3742740
  H        2.5349810    -1.8144250    -0.4785470
  H        2.0170420    -1.2344280     1.0876600
  H        1.4907670     1.4297660     1.3002730
  H        1.7427260     2.4044990    -0.1312730
  H       -1.6076080    -0.3598680    -1.7054840
  H       -2.0575360    -1.5131640    -0.4404110
  H        3.4221240     0.5100020     0.0566650
  H        2.4871430     0.4507070    -1.4320070
  H        0.3126810    -0.3486860     2.0312100
  H       -1.2698770     0.4499320     1.9127640
  H       -1.1475680    -1.3248790     1.7354010
  H       -3.8251770     0.1584960    -0.8113200
  H       -3.2293180     0.3182590     0.8332870
  H       -2.7570620     1.4961540    -0.4168730
units angstrom
no_reorient  #important for SAPT in psi4, default
symmetry c1  #important for SAPT in psi4, default
}

set PROPERTIES_ORIGIN ["COM"]
properties('MP2/aug-cc-pvtz', properties = ['dipole'])
--------------------------------------------------------------------------

    Molecular point group: c1
  Charge       = 1
  Multiplicity = 1
  Basis Set: AUG-CC-PVTZ
    Blend: AUG-CC-PVTZ
  Basis Set: (AUG-CC-PVTZ AUX)
    Blend: AUG-CC-PVTZ-JKFIT

    Orbital Energies [Eh]
    ---------------------

    Doubly Occupied:

       1A    -15.843954     2A    -11.442284     3A    -11.442115
       4A    -11.438340     5A    -11.433855     6A    -11.378610
       7A    -11.377690     8A    -11.375021     9A    -11.368172
      10A     -1.484164    11A     -1.252277    12A     -1.204432
      13A     -1.189325    14A     -1.138423    15A     -1.060724
      16A     -1.032079    17A     -0.988224    18A     -0.922697
      19A     -0.871353    20A     -0.833790    21A     -0.817319
      22A     -0.806259    23A     -0.770801    24A     -0.758333
      25A     -0.745491    26A     -0.725400    27A     -0.719700
      28A     -0.713574    29A     -0.688838    30A     -0.682898
      31A     -0.671653    32A     -0.661498    33A     -0.647099
      34A     -0.623977    35A     -0.614427    36A     -0.611489

  @DF-RHF Final Energy:  -367.78432047199897

   => Energetics <=

    Nuclear Repulsion Energy =            526.2578468462701267
    One-Electron Energy =               -1527.4117676749922339
    Two-Electron Energy =                 633.3696003567231401
    Total Energy =                       -367.7843204719989672
  Basis Set: (AUG-CC-PVTZ AUX)
    Blend: AUG-CC-PVTZ-RI
    Molecular point group: c1

    Geometry (in Angstrom), charge = 1, multiplicity = 1:

       Center              X                  Y                   Z               Mass
    ------------   -----------------  -----------------  -----------------  -----------------
         N           -0.498641125059    -0.214801248030     0.056551132115    14.003074004430
         C            0.485881874941    -1.296141948030    -0.362401667885    12.000000000000
         C            0.018668874941     1.169155751970    -0.287166867885    12.000000000000
         C            1.906556874941    -1.044198248030     0.007940132115    12.000000000000
         C            1.439428874941     1.408111751970     0.201195132115    12.000000000000
         C           -1.829207125059    -0.459902248030    -0.641689867885    12.000000000000
         C            2.399596874941     0.356124751970    -0.346267867885    12.000000000000
         C           -0.673470125059    -0.364098248030     1.537248132115    12.000000000000
         C           -2.970336125059     0.447898751970    -0.219430867885    12.000000000000
         H            0.423593874941    -1.196770248030    -1.553415867885     1.007825032230
         H            0.080906874941    -2.232763248030    -0.153386867885     1.007825032230
         H           -0.682476125059     1.888547751970     0.139376132115     1.007825032230
         H           -0.028353125059     1.241011751970    -1.378860867885     1.007825032230
         H            2.518428874941    -1.808786248030    -0.483133867885     1.007825032230
         H            2.000489874941    -1.228789248030     1.083073132115     1.007825032230
         H            1.474214874941     1.435404751970     1.295686132115     1.007825032230
         H            1.726173874941     2.410137751970    -0.135859867885     1.007825032230
         H           -1.624160125059    -0.354229248030    -1.710070867885     1.007825032230
         H           -2.074088125059    -1.507525248030    -0.444997867885     1.007825032230
         H            3.405571874941     0.515640751970     0.052078132115     1.007825032230
         H            2.470590874941     0.456345751970    -1.436593867885     1.007825032230
         H            0.296128874941    -0.343047248030     2.026623132115     1.007825032230
         H           -1.286429125059     0.455570751970     1.908177132115     1.007825032230
         H           -1.164120125059    -1.319240248030     1.730814132115     1.007825032230
         H           -3.841729125059     0.164134751970    -0.815906867885     1.007825032230
         H           -3.245870125059     0.323897751970     0.828700132115     1.007825032230
         H           -2.773614125059     1.501792751970    -0.421459867885     1.007825032230

  Basis Set: AUG-CC-PVTZ
    Blend: AUG-CC-PVTZ
  Basis Set: (AUG-CC-PVTZ AUX)
    Blend: AUG-CC-PVTZ-JKFIT
	 Reference Energy          =    -367.7843204719989672 [Eh]
	 Singles Energy            =      -0.0000000000000000 [Eh]
	 Same-Spin Energy          =      -0.3943330113486838 [Eh]
	 Opposite-Spin Energy      =      -1.4103138502124708 [Eh]
	 Correlation Energy        =      -1.8046468615611546 [Eh]
	 Total Energy              =    -369.5889673335601060 [Eh]

	 ================> DF-SCS-MP2 Energies <==================
	-----------------------------------------------------------
	 SCS Same-Spin Scale       =       0.3333333333333333 [-]
	 SCS Opposite-Spin Scale   =       1.2000000000000000 [-]
	 SCS Same-Spin Energy      =      -0.1314443371162279 [Eh]
	 SCS Opposite-Spin Energy  =      -1.6923766202549648 [Eh]
	 SCS Correlation Energy    =      -1.8238209573711928 [Eh]
	 SCS Total Energy          =    -369.6081414293701641 [Eh]
	-----------------------------------------------------------

  Dipole Moment: [D]
     X:    -1.4874      Y:    -0.5252      Z:     0.2339     Total:     1.5946

*** Psi4 exiting successfully. Buy a developer a beer!
