                               Psi4 1.3.2 release

  ==> Input File <==

--------------------------------------------------------------------------
#psi4
#
memory 32 gb

molecule  {
1 1
  N       -0.5552706    -0.1038891     0.1414939
  C        0.4931350    -1.2664130    -0.4574980
  C        0.0352210     1.1635170    -0.2825800
  C        1.9231090    -1.0498370     0.0125270
  C        1.4559810     1.4024730     0.2057820
  C       -1.8126550    -0.4655410    -0.6371030
  C        2.4161490     0.3504860    -0.3416810
  C       -0.6569180    -0.3697370     1.5418350
  C       -2.9537840     0.4422600    -0.2148440
  H        0.4401460    -1.2024090    -1.5488290
  H        0.0974590    -2.2384020    -0.1488000
  H       -0.6659240     1.8829090     0.1439630
  H       -0.0118010     1.2353730    -1.3742740
  H        2.5349810    -1.8144250    -0.4785470
  H        2.0170420    -1.2344280     1.0876600
  H        1.4907670     1.4297660     1.3002730
  H        1.7427260     2.4044990    -0.1312730
  H       -1.6076080    -0.3598680    -1.7054840
  H       -2.0575360    -1.5131640    -0.4404110
  H        3.4221240     0.5100020     0.0566650
  H        2.4871430     0.4507070    -1.4320070
  H        0.3126810    -0.3486860     2.0312100
  H       -1.2698770     0.4499320     1.9127640
  H       -1.1475680    -1.3248790     1.7354010
  H       -3.8251770     0.1584960    -0.8113200
  H       -3.2293180     0.3182590     0.8332870
  H       -2.7570620     1.4961540    -0.4168730
units angstrom
no_reorient  #important for SAPT in psi4, default
symmetry c1  #important for SAPT in psi4, default
}

set PROPERTIES_ORIGIN ["COM"]
properties('MP2/aug-cc-pvtz', properties = ['dipole'])
--------------------------------------------------------------------------

    Molecular point group: c1
  Charge       = 1
  Multiplicity = 1
  Basis Set: AUG-CC-PVTZ
    Blend: AUG-CC-PVTZ
  Basis Set: (AUG-CC-PVTZ AUX)
    Blend: AUG-CC-PVTZ-JKFIT

    Orbital Energies [Eh]
    ---------------------

    Doubly Occupied:

       1A    -15.838811     2A    -11.450881     3A    -11.442410
       4A    -11.432908     5A    -11.428823     6A    -11.381127
       7A    -11.377766     8A    -11.369509     9A    -11.367226
      10A     -1.485308    11A     -1.252543    12A     -1.198941
      13A     -1.193829    14A     -1.140408    15A     -1.054841
      16A     -1.032758    17A     -0.975877    18A     -0.927185
      19A     -0.870442    20A     -0.839391    21A     -0.824443
      22A     -0.805025    23A     -0.773828    24A     -0.753066
      25A     -0.744243    26A     -0.728114    27A     -0.721676
      28A     -0.706748    29A     -0.695767    30A     -0.672702
      31A     -0.667534    32A     -0.663487    33A     -0.656696
      34A     -0.620247    35A     -0.618643    36A     -0.595438

  @DF-RHF Final Energy:  -367.77352279060909

   => Energetics <=

    Nuclear Repulsion Energy =            525.9234816249816049
    One-Electron Energy =               -1526.7767304499038801
    Two-Electron Energy =                 633.0797260343132393
    Total Energy =                       -367.7735227906090358
  Basis Set: (AUG-CC-PVTZ AUX)
    Blend: AUG-CC-PVTZ-RI
    Molecular point group: c1

    Geometry (in Angstrom), charge = 1, multiplicity = 1:

       Center              X                  Y                   Z               Mass
    ------------   -----------------  -----------------  -----------------  -----------------
         N           -0.562954919861    -0.114298578835     0.137460853030    14.003074004430
         C            0.485450680139    -1.276822478835    -0.461531046970    12.000000000000
         C            0.027536680139     1.153107521165    -0.286613046970    12.000000000000
         C            1.915424680139    -1.060246478835     0.008493953030    12.000000000000
         C            1.448296680139     1.392063521165     0.201748953030    12.000000000000
         C           -1.820339319861    -0.475950478835    -0.641136046970    12.000000000000
         C            2.408464680139     0.340076521165    -0.345714046970    12.000000000000
         C           -0.664602319861    -0.380146478835     1.537801953030    12.000000000000
         C           -2.961468319861     0.431850521165    -0.218877046970    12.000000000000
         H            0.432461680139    -1.212818478835    -1.552862046970     1.007825032230
         H            0.089774680139    -2.248811478835    -0.152833046970     1.007825032230
         H           -0.673608319861     1.872499521165     0.139929953030     1.007825032230
         H           -0.019485319861     1.224963521165    -1.378307046970     1.007825032230
         H            2.527296680139    -1.824834478835    -0.482580046970     1.007825032230
         H            2.009357680139    -1.244837478835     1.083626953030     1.007825032230
         H            1.483082680139     1.419356521165     1.296239953030     1.007825032230
         H            1.735041680139     2.394089521165    -0.135306046970     1.007825032230
         H           -1.615292319861    -0.370277478835    -1.709517046970     1.007825032230
         H           -2.065220319861    -1.523573478835    -0.444444046970     1.007825032230
         H            3.414439680139     0.499592521165     0.052631953030     1.007825032230
         H            2.479458680139     0.440297521165    -1.436040046970     1.007825032230
         H            0.304996680139    -0.359095478835     2.027176953030     1.007825032230
         H           -1.277561319861     0.439522521165     1.908730953030     1.007825032230
         H           -1.155252319861    -1.335288478835     1.731367953030     1.007825032230
         H           -3.832861319861     0.148086521165    -0.815353046970     1.007825032230
         H           -3.237002319861     0.307849521165     0.829253953030     1.007825032230
         H           -2.764746319861     1.485744521165    -0.420906046970     1.007825032230

  Basis Set: AUG-CC-PVTZ
    Blend: AUG-CC-PVTZ
  Basis Set: (AUG-CC-PVTZ AUX)
    Blend: AUG-CC-PVTZ-JKFIT
	 Reference Energy          =    -367.7735227906090927 [Eh]
	 Singles Energy            =      -0.0000000000000000 [Eh]
	 Same-Spin Energy          =      -0.3949680064090625 [Eh]
	 Opposite-Spin Energy      =      -1.4115838528057922 [Eh]
	 Correlation Energy        =      -1.8065518592148546 [Eh]
	 Total Energy              =    -369.5800746498239278 [Eh]

	 ================> DF-SCS-MP2 Energies <==================
	-----------------------------------------------------------
	 SCS Same-Spin Scale       =       0.3333333333333333 [-]
	 SCS Opposite-Spin Scale   =       1.2000000000000000 [-]
	 SCS Same-Spin Energy      =      -0.1316560021363541 [Eh]
	 SCS Opposite-Spin Energy  =      -1.6939006233669507 [Eh]
	 SCS Correlation Energy    =      -1.8255566255033049 [Eh]
	 SCS Total Energy          =    -369.5990794161123745 [Eh]
	-----------------------------------------------------------

  Dipole Moment: [D]
     X:    -1.2898      Y:    -0.8177      Z:     0.0417     Total:     1.5278

*** Psi4 exiting successfully. Buy a developer a beer!
