                               Psi4 1.3.2 release

  ==> Input File <==

--------------------------------------------------------------------------
#psi4
#
memory 32 gb

molecule  {
1 1
  N       -0.4608996    -0.2599511     0.0326067
  C        0.4931350    -1.2664130    -0.4574980
  C        0.0352210     1.1635170    -0.2825800
  C        1.9231090    -1.0498370     0.0125270
  C        1.4559810     1.4024730     0.2057820
  C       -1.8126550    -0.4655410    -0.6371030
  C        2.4161490     0.3504860    -0.3416810
  C       -0.6569180    -0.3697370     1.5418350
  C       -2.9537840     0.4422600    -0.2148440
  H        0.4401460    -1.2024090    -1.5488290
  H        0.0974590    -2.2384020    -0.1488000
  H       -0.6659240     1.8829090     0.1439630
  H       -0.0118010     1.2353730    -1.3742740
  H        2.5349810    -1.8144250    -0.4785470
  H        2.0170420    -1.2344280     1.0876600
  H        1.4907670     1.4297660     1.3002730
  H        1.7427260     2.4044990    -0.1312730
  H       -1.6076080    -0.3598680    -1.7054840
  H       -2.0575360    -1.5131640    -0.4404110
  H        3.4221240     0.5100020     0.0566650
  H        2.4871430     0.4507070    -1.4320070
  H        0.3126810    -0.3486860     2.0312100
  H       -1.2698770     0.4499320     1.9127640
  H       -1.1475680    -1.3248790     1.7354010
  H       -3.8251770     0.1584960    -0.8113200
  H       -3.2293180     0.3182590     0.8332870
  H       -2.7570620     1.4961540    -0.4168730
units angstrom
no_reorient  #important for SAPT in psi4, default
symmetry c1  #important for SAPT in psi4, default
}

set PROPERTIES_ORIGIN ["COM"]
properties('MP2/aug-cc-pvtz', properties = ['dipole'])
--------------------------------------------------------------------------

    Molecular point group: c1
  Charge       = 1
  Multiplicity = 1
  Basis Set: AUG-CC-PVTZ
    Blend: AUG-CC-PVTZ
  Basis Set: (AUG-CC-PVTZ AUX)
    Blend: AUG-CC-PVTZ-JKFIT

    Orbital Energies [Eh]
    ---------------------

    Doubly Occupied:

       1A    -15.843411     2A    -11.441684     3A    -11.439521
       4A    -11.436865     5A    -11.434184     6A    -11.378083
       7A    -11.377350     8A    -11.376082     9A    -11.366147
      10A     -1.484493    11A     -1.249730    12A     -1.202661
      13A     -1.186260    14A     -1.140920    15A     -1.059024
      16A     -1.029863    17A     -0.988864    18A     -0.925764
      19A     -0.866255    20A     -0.839652    21A     -0.813378
      22A     -0.804196    23A     -0.772080    24A     -0.753975
      25A     -0.742964    26A     -0.725328    27A     -0.719469
      28A     -0.709709    29A     -0.691965    30A     -0.682370
      31A     -0.670632    32A     -0.664167    33A     -0.660704
      34A     -0.617079    35A     -0.615626    36A     -0.612132

  @DF-RHF Final Energy:  -367.79433567113585

   => Energetics <=

    Nuclear Repulsion Energy =            526.1571574587610485
    One-Electron Energy =               -1527.2578117724683580
    Two-Electron Energy =                 633.3063186425714548
    Total Energy =                       -367.7943356711358547
  Basis Set: (AUG-CC-PVTZ AUX)
    Blend: AUG-CC-PVTZ-RI
    Molecular point group: c1

    Geometry (in Angstrom), charge = 1, multiplicity = 1:

       Center              X                  Y                   Z               Mass
    ------------   -----------------  -----------------  -----------------  -----------------
         N           -0.478896418882    -0.253306725191     0.040472426418    14.003074004430
         C            0.475138181118    -1.259768625191    -0.449632273582    12.000000000000
         C            0.017224181118     1.170161374809    -0.274714273582    12.000000000000
         C            1.905112181118    -1.043192625191     0.020392726418    12.000000000000
         C            1.437984181118     1.409117374809     0.213647726418    12.000000000000
         C           -1.830651818882    -0.458896625191    -0.629237273582    12.000000000000
         C            2.398152181118     0.357130374809    -0.333815273582    12.000000000000
         C           -0.674914818882    -0.363092625191     1.549700726418    12.000000000000
         C           -2.971780818882     0.448904374809    -0.206978273582    12.000000000000
         H            0.422149181118    -1.195764625191    -1.540963273582     1.007825032230
         H            0.079462181118    -2.231757625191    -0.140934273582     1.007825032230
         H           -0.683920818882     1.889553374809     0.151828726418     1.007825032230
         H           -0.029797818882     1.242017374809    -1.366408273582     1.007825032230
         H            2.516984181118    -1.807780625191    -0.470681273582     1.007825032230
         H            1.999045181118    -1.227783625191     1.095525726418     1.007825032230
         H            1.472770181118     1.436410374809     1.308138726418     1.007825032230
         H            1.724729181118     2.411143374809    -0.123407273582     1.007825032230
         H           -1.625604818882    -0.353223625191    -1.697618273582     1.007825032230
         H           -2.075532818882    -1.506519625191    -0.432545273582     1.007825032230
         H            3.404127181118     0.516646374809     0.064530726418     1.007825032230
         H            2.469146181118     0.457351374809    -1.424141273582     1.007825032230
         H            0.294684181118    -0.342041625191     2.039075726418     1.007825032230
         H           -1.287873818882     0.456576374809     1.920629726418     1.007825032230
         H           -1.165564818882    -1.318234625191     1.743266726418     1.007825032230
         H           -3.843173818882     0.165140374809    -0.803454273582     1.007825032230
         H           -3.247314818882     0.324903374809     0.841152726418     1.007825032230
         H           -2.775058818882     1.502798374809    -0.409007273582     1.007825032230

  Basis Set: AUG-CC-PVTZ
    Blend: AUG-CC-PVTZ
  Basis Set: (AUG-CC-PVTZ AUX)
    Blend: AUG-CC-PVTZ-JKFIT
	 Reference Energy          =    -367.7943356711358547 [Eh]
	 Singles Energy            =      -0.0000000000000000 [Eh]
	 Same-Spin Energy          =      -0.3938880658054961 [Eh]
	 Opposite-Spin Energy      =      -1.4095079630195104 [Eh]
	 Correlation Energy        =      -1.8033960288250066 [Eh]
	 Total Energy              =    -369.5977316999608888 [Eh]

	 ================> DF-SCS-MP2 Energies <==================
	-----------------------------------------------------------
	 SCS Same-Spin Scale       =       0.3333333333333333 [-]
	 SCS Opposite-Spin Scale   =       1.2000000000000000 [-]
	 SCS Same-Spin Energy      =      -0.1312960219351653 [Eh]
	 SCS Opposite-Spin Energy  =      -1.6914095556234126 [Eh]
	 SCS Correlation Energy    =      -1.8227055775585779 [Eh]
	 SCS Total Energy          =    -369.6170412486944201 [Eh]
	-----------------------------------------------------------

  Dipole Moment: [D]
     X:    -1.5488      Y:    -0.4555      Z:     0.2730     Total:     1.6373

*** Psi4 exiting successfully. Buy a developer a beer!
