                               Psi4 1.3.2 release

  ==> Input File <==

--------------------------------------------------------------------------
#psi4
#
memory 32 gb

molecule  {
1 1
  N       -0.4820890    -0.2204400     0.0611380
  C        0.4931350    -1.2664130    -0.4574980
  C        0.0352210     1.1635170    -0.2825800
  C        1.9231090    -1.0498370     0.0125270
  C        1.4559810     1.4024730     0.2057820
  C       -1.8009006    -0.4611719    -0.6605302
  C        2.4161490     0.3504860    -0.3416810
  C       -0.6569180    -0.3697370     1.5418350
  C       -2.9537840     0.4422600    -0.2148440
  H        0.4401460    -1.2024090    -1.5488290
  H        0.0974590    -2.2384020    -0.1488000
  H       -0.6659240     1.8829090     0.1439630
  H       -0.0118010     1.2353730    -1.3742740
  H        2.5349810    -1.8144250    -0.4785470
  H        2.0170420    -1.2344280     1.0876600
  H        1.4907670     1.4297660     1.3002730
  H        1.7427260     2.4044990    -0.1312730
  H       -1.6076080    -0.3598680    -1.7054840
  H       -2.0575360    -1.5131640    -0.4404110
  H        3.4221240     0.5100020     0.0566650
  H        2.4871430     0.4507070    -1.4320070
  H        0.3126810    -0.3486860     2.0312100
  H       -1.2698770     0.4499320     1.9127640
  H       -1.1475680    -1.3248790     1.7354010
  H       -3.8251770     0.1584960    -0.8113200
  H       -3.2293180     0.3182590     0.8332870
  H       -2.7570620     1.4961540    -0.4168730
units angstrom
no_reorient  #important for SAPT in psi4, default
symmetry c1  #important for SAPT in psi4, default
}

set PROPERTIES_ORIGIN ["COM"]
properties('MP2/aug-cc-pvtz', properties = ['dipole'])
--------------------------------------------------------------------------

    Molecular point group: c1
  Charge       = 1
  Multiplicity = 1
  Basis Set: AUG-CC-PVTZ
    Blend: AUG-CC-PVTZ
  Basis Set: (AUG-CC-PVTZ AUX)
    Blend: AUG-CC-PVTZ-JKFIT

    Orbital Energies [Eh]
    ---------------------

    Doubly Occupied:

       1A    -15.843132     2A    -11.441148     3A    -11.438479
       4A    -11.437354     5A    -11.434863     6A    -11.377891
       7A    -11.377757     8A    -11.374823     9A    -11.366257
      10A     -1.483403    11A     -1.249770    12A     -1.199842
      13A     -1.187554    14A     -1.141070    15A     -1.057770
      16A     -1.029830    17A     -0.987271    18A     -0.926094
      19A     -0.868562    20A     -0.838238    21A     -0.815947
      22A     -0.804128    23A     -0.771522    24A     -0.753353
      25A     -0.743217    26A     -0.722755    27A     -0.720835
      28A     -0.704736    29A     -0.698151    30A     -0.677922
      31A     -0.673499    32A     -0.664542    33A     -0.661683
      34A     -0.617632    35A     -0.614842    36A     -0.611886

  @DF-RHF Final Energy:  -367.79668261334211

   => Energetics <=

    Nuclear Repulsion Energy =            526.0722403295917502
    One-Electron Energy =               -1527.1023297013116462
    Two-Electron Energy =                 633.2334067583777824
    Total Energy =                       -367.7966826133421137
  Basis Set: (AUG-CC-PVTZ AUX)
    Blend: AUG-CC-PVTZ-RI
    Molecular point group: c1

    Geometry (in Angstrom), charge = 1, multiplicity = 1:

       Center              X                  Y                   Z               Mass
    ------------   -----------------  -----------------  -----------------  -----------------
         N           -0.498871060268    -0.218522388939     0.068079769190    14.003074004430
         C            0.476352939732    -1.264495388939    -0.450556230810    12.000000000000
         C            0.018438939732     1.165434611061    -0.275638230810    12.000000000000
         C            1.906326939732    -1.047919388939     0.019468769190    12.000000000000
         C            1.439198939732     1.404390611061     0.212723769190    12.000000000000
         C           -1.817682660268    -0.459254288939    -0.653588430810    12.000000000000
         C            2.399366939732     0.352403611061    -0.334739230810    12.000000000000
         C           -0.673700060268    -0.367819388939     1.548776769190    12.000000000000
         C           -2.970566060268     0.444177611061    -0.207902230810    12.000000000000
         H            0.423363939732    -1.200491388939    -1.541887230810     1.007825032230
         H            0.080676939732    -2.236484388939    -0.141858230810     1.007825032230
         H           -0.682706060268     1.884826611061     0.150904769190     1.007825032230
         H           -0.028583060268     1.237290611061    -1.367332230810     1.007825032230
         H            2.518198939732    -1.812507388939    -0.471605230810     1.007825032230
         H            2.000259939732    -1.232510388939     1.094601769190     1.007825032230
         H            1.473984939732     1.431683611061     1.307214769190     1.007825032230
         H            1.725943939732     2.406416611061    -0.124331230810     1.007825032230
         H           -1.624390060268    -0.357950388939    -1.698542230810     1.007825032230
         H           -2.074318060268    -1.511246388939    -0.433469230810     1.007825032230
         H            3.405341939732     0.511919611061     0.063606769190     1.007825032230
         H            2.470360939732     0.452624611061    -1.425065230810     1.007825032230
         H            0.295898939732    -0.346768388939     2.038151769190     1.007825032230
         H           -1.286659060268     0.451849611061     1.919705769190     1.007825032230
         H           -1.164350060268    -1.322961388939     1.742342769190     1.007825032230
         H           -3.841959060268     0.160413611061    -0.804378230810     1.007825032230
         H           -3.246100060268     0.320176611061     0.840228769190     1.007825032230
         H           -2.773844060268     1.498071611061    -0.409931230810     1.007825032230

  Basis Set: AUG-CC-PVTZ
    Blend: AUG-CC-PVTZ
  Basis Set: (AUG-CC-PVTZ AUX)
    Blend: AUG-CC-PVTZ-JKFIT
	 Reference Energy          =    -367.7966826133421137 [Eh]
	 Singles Energy            =      -0.0000000000000000 [Eh]
	 Same-Spin Energy          =      -0.3936365392973206 [Eh]
	 Opposite-Spin Energy      =      -1.4091465108386130 [Eh]
	 Correlation Energy        =      -1.8027830501359337 [Eh]
	 Total Energy              =    -369.5994656634780426 [Eh]

	 ================> DF-SCS-MP2 Energies <==================
	-----------------------------------------------------------
	 SCS Same-Spin Scale       =       0.3333333333333333 [-]
	 SCS Opposite-Spin Scale   =       1.2000000000000000 [-]
	 SCS Same-Spin Energy      =      -0.1312121797657735 [Eh]
	 SCS Opposite-Spin Energy  =      -1.6909758130063355 [Eh]
	 SCS Correlation Energy    =      -1.8221879927721090 [Eh]
	 SCS Total Energy          =    -369.6188706061142284 [Eh]
	-----------------------------------------------------------

  Dipole Moment: [D]
     X:    -1.4877      Y:    -0.5525      Z:     0.2137     Total:     1.6013

*** Psi4 exiting successfully. Buy a developer a beer!
