                               Psi4 1.3.2 release

  ==> Input File <==

--------------------------------------------------------------------------
#psi4
#
memory 32 gb

molecule  {
1 1
  N       -0.4820890    -0.2204400     0.0611380
  C        0.4790848    -1.2259494    -0.5546545
  C        0.0352210     1.1635170    -0.2825800
  C        1.9231090    -1.0498370     0.0125270
  C        1.4559810     1.4024730     0.2057820
  C       -1.8126550    -0.4655410    -0.6371030
  C        2.4161490     0.3504860    -0.3416810
  C       -0.6569180    -0.3697370     1.5418350
  C       -2.9537840     0.4422600    -0.2148440
  H        0.4401460    -1.2024090    -1.5488290
  H        0.0974590    -2.2384020    -0.1488000
  H       -0.6659240     1.8829090     0.1439630
  H       -0.0118010     1.2353730    -1.3742740
  H        2.5349810    -1.8144250    -0.4785470
  H        2.0170420    -1.2344280     1.0876600
  H        1.4907670     1.4297660     1.3002730
  H        1.7427260     2.4044990    -0.1312730
  H       -1.6076080    -0.3598680    -1.7054840
  H       -2.0575360    -1.5131640    -0.4404110
  H        3.4221240     0.5100020     0.0566650
  H        2.4871430     0.4507070    -1.4320070
  H        0.3126810    -0.3486860     2.0312100
  H       -1.2698770     0.4499320     1.9127640
  H       -1.1475680    -1.3248790     1.7354010
  H       -3.8251770     0.1584960    -0.8113200
  H       -3.2293180     0.3182590     0.8332870
  H       -2.7570620     1.4961540    -0.4168730
units angstrom
no_reorient  #important for SAPT in psi4, default
symmetry c1  #important for SAPT in psi4, default
}

set PROPERTIES_ORIGIN ["COM"]
properties('MP2/aug-cc-pvtz', properties = ['dipole'])
--------------------------------------------------------------------------

    Molecular point group: c1
  Charge       = 1
  Multiplicity = 1
  Basis Set: AUG-CC-PVTZ
    Blend: AUG-CC-PVTZ
  Basis Set: (AUG-CC-PVTZ AUX)
    Blend: AUG-CC-PVTZ-JKFIT

    Orbital Energies [Eh]
    ---------------------

    Doubly Occupied:

       1A    -15.843561     2A    -11.441146     3A    -11.437697
       4A    -11.436968     5A    -11.436143     6A    -11.380160
       7A    -11.377475     8A    -11.373857     9A    -11.364798
      10A     -1.483605    11A     -1.248653    12A     -1.196241
      13A     -1.188497    14A     -1.144855    15A     -1.056108
      16A     -1.030416    17A     -0.984711    18A     -0.932665
      19A     -0.865785    20A     -0.845939    21A     -0.817973
      22A     -0.799436    23A     -0.771376    24A     -0.748831
      25A     -0.742308    26A     -0.726848    27A     -0.719839
      28A     -0.711087    29A     -0.694897    30A     -0.678078
      31A     -0.671962    32A     -0.670542    33A     -0.660890
      34A     -0.619496    35A     -0.610174    36A     -0.603512

  @DF-RHF Final Energy:  -367.78305802981134

   => Energetics <=

    Nuclear Repulsion Energy =            525.9924040193956216
    One-Electron Energy =               -1526.9178705222802819
    Two-Electron Energy =                 633.1424084730733739
    Total Energy =                       -367.7830580298112864
  Basis Set: (AUG-CC-PVTZ AUX)
    Blend: AUG-CC-PVTZ-RI
    Molecular point group: c1

    Geometry (in Angstrom), charge = 1, multiplicity = 1:

       Center              X                  Y                   Z               Mass
    ------------   -----------------  -----------------  -----------------  -----------------
         N           -0.496454596116    -0.221902447739     0.074984127730    14.003074004430
         C            0.464719203884    -1.227411847739    -0.540808372270    12.000000000000
         C            0.020855403884     1.162054552261    -0.268733872270    12.000000000000
         C            1.908743403884    -1.051299447739     0.026373127730    12.000000000000
         C            1.441615403884     1.401010552261     0.219628127730    12.000000000000
         C           -1.827020596116    -0.467003447739    -0.623256872270    12.000000000000
         C            2.401783403884     0.349023552261    -0.327834872270    12.000000000000
         C           -0.671283596116    -0.371199447739     1.555681127730    12.000000000000
         C           -2.968149596116     0.440797552261    -0.200997872270    12.000000000000
         H            0.425780403884    -1.203871447739    -1.534982872270     1.007825032230
         H            0.083093403884    -2.239864447739    -0.134953872270     1.007825032230
         H           -0.680289596116     1.881446552261     0.157809127730     1.007825032230
         H           -0.026166596116     1.233910552261    -1.360427872270     1.007825032230
         H            2.520615403884    -1.815887447739    -0.464700872270     1.007825032230
         H            2.002676403884    -1.235890447739     1.101506127730     1.007825032230
         H            1.476401403884     1.428303552261     1.314119127730     1.007825032230
         H            1.728360403884     2.403036552261    -0.117426872270     1.007825032230
         H           -1.621973596116    -0.361330447739    -1.691637872270     1.007825032230
         H           -2.071901596116    -1.514626447739    -0.426564872270     1.007825032230
         H            3.407758403884     0.508539552261     0.070511127730     1.007825032230
         H            2.472777403884     0.449244552261    -1.418160872270     1.007825032230
         H            0.298315403884    -0.350148447739     2.045056127730     1.007825032230
         H           -1.284242596116     0.448469552261     1.926610127730     1.007825032230
         H           -1.161933596116    -1.326341447739     1.749247127730     1.007825032230
         H           -3.839542596116     0.157033552261    -0.797473872270     1.007825032230
         H           -3.243683596116     0.316796552261     0.847133127730     1.007825032230
         H           -2.771427596116     1.494691552261    -0.403026872270     1.007825032230

  Basis Set: AUG-CC-PVTZ
    Blend: AUG-CC-PVTZ
  Basis Set: (AUG-CC-PVTZ AUX)
    Blend: AUG-CC-PVTZ-JKFIT
	 Reference Energy          =    -367.7830580298113432 [Eh]
	 Singles Energy            =      -0.0000000000000000 [Eh]
	 Same-Spin Energy          =      -0.3937179315304852 [Eh]
	 Opposite-Spin Energy      =      -1.4097116536680243 [Eh]
	 Correlation Energy        =      -1.8034295851985096 [Eh]
	 Total Energy              =    -369.5864876150098439 [Eh]

	 ================> DF-SCS-MP2 Energies <==================
	-----------------------------------------------------------
	 SCS Same-Spin Scale       =       0.3333333333333333 [-]
	 SCS Opposite-Spin Scale   =       1.2000000000000000 [-]
	 SCS Same-Spin Energy      =      -0.1312393105101617 [Eh]
	 SCS Opposite-Spin Energy  =      -1.6916539844016292 [Eh]
	 SCS Correlation Energy    =      -1.8228932949117909 [Eh]
	 SCS Total Energy          =    -369.6059513247231507 [Eh]
	-----------------------------------------------------------

  Dipole Moment: [D]
     X:    -1.4955      Y:    -0.5482      Z:     0.2323     Total:     1.6096

*** Psi4 exiting successfully. Buy a developer a beer!
