                               Psi4 1.4a3.dev225

  ==> Input File <==

--------------------------------------------------------------------------
#psi4
#
memory 32 gb

molecule  {
1 1
  N       -0.4820890    -0.2204400     0.0611380
  C        0.4931350    -1.2664130    -0.4574980
  C        0.0352210     1.1635170    -0.2825800
  C        1.9231090    -1.0498370     0.0125270
  C        1.4559810     1.4024730     0.2057820
  C       -1.8126550    -0.4655410    -0.6371030
  C        2.4161490     0.3504860    -0.3416810
  C       -0.6545845    -0.3677443     1.5220718
  C       -2.9537840     0.4422600    -0.2148440
  H        0.4401460    -1.2024090    -1.5488290
  H        0.0974590    -2.2384020    -0.1488000
  H       -0.6659240     1.8829090     0.1439630
  H       -0.0118010     1.2353730    -1.3742740
  H        2.5349810    -1.8144250    -0.4785470
  H        2.0170420    -1.2344280     1.0876600
  H        1.4907670     1.4297660     1.3002730
  H        1.7427260     2.4044990    -0.1312730
  H       -1.6076080    -0.3598680    -1.7054840
  H       -2.0575360    -1.5131640    -0.4404110
  H        3.4221240     0.5100020     0.0566650
  H        2.4871430     0.4507070    -1.4320070
  H        0.3126810    -0.3486860     2.0312100
  H       -1.2698770     0.4499320     1.9127640
  H       -1.1475680    -1.3248790     1.7354010
  H       -3.8251770     0.1584960    -0.8113200
  H       -3.2293180     0.3182590     0.8332870
  H       -2.7570620     1.4961540    -0.4168730
units angstrom
no_reorient  #important for SAPT in psi4, default
symmetry c1  #important for SAPT in psi4, default
}

set PROPERTIES_ORIGIN ["COM"]
properties('MP2/aug-cc-pvtz', properties = ['dipole'])
--------------------------------------------------------------------------

    Molecular point group: c1
  Charge       = 1
  Multiplicity = 1
  Basis Set: AUG-CC-PVTZ
    Blend: AUG-CC-PVTZ
  Basis Set: (AUG-CC-PVTZ AUX)
    Blend: AUG-CC-PVTZ-JKFIT

    Orbital Energies [Eh]
    ---------------------

    Doubly Occupied:

       1A    -15.843812     2A    -11.442088     3A    -11.439077
       4A    -11.437903     5A    -11.434053     6A    -11.378209
       7A    -11.378054     8A    -11.374548     9A    -11.366473
      10A     -1.487426    11A     -1.250876    12A     -1.200538
      13A     -1.189736    14A     -1.140842    15A     -1.058472
      16A     -1.030414    17A     -0.986533    18A     -0.926363
      19A     -0.868109    20A     -0.839616    21A     -0.817932
      22A     -0.804061    23A     -0.772392    24A     -0.754151
      25A     -0.743261    26A     -0.720167    27A     -0.716722
      28A     -0.705113    29A     -0.699512    30A     -0.680209
      31A     -0.671875    32A     -0.664313    33A     -0.661614
      34A     -0.617660    35A     -0.615569    36A     -0.612557

  @DF-RHF Final Energy:  -367.79688933554536

   => Energetics <=

    Nuclear Repulsion Energy =            526.5598715762597521
    One-Electron Energy =               -1528.0530255551984737
    Two-Electron Energy =                 633.6962646433934196
    Total Energy =                       -367.7968893355453019
  Basis Set: (AUG-CC-PVTZ AUX)
    Blend: AUG-CC-PVTZ-RI
    Molecular point group: c1

    Geometry (in Angstrom), charge = 1, multiplicity = 1:

       Center              X                  Y                   Z               Mass
    ------------   -----------------  -----------------  -----------------  -----------------
         N           -0.497988842867    -0.218299851662     0.067736654992    14.003074004430
         C            0.477235157133    -1.264272851662    -0.450899345008    12.000000000000
         C            0.019321157133     1.165657148338    -0.275981345008    12.000000000000
         C            1.907209157133    -1.047696851662     0.019125654992    12.000000000000
         C            1.440081157133     1.404613148338     0.212380654992    12.000000000000
         C           -1.828554842867    -0.463400851662    -0.630504345008    12.000000000000
         C            2.400249157133     0.352626148338    -0.335082345008    12.000000000000
         C           -0.670484342867    -0.365604151662     1.528670454992    12.000000000000
         C           -2.969683842867     0.444400148338    -0.208245345008    12.000000000000
         H            0.424246157133    -1.200268851662    -1.542230345008     1.007825032230
         H            0.081559157133    -2.236261851662    -0.142201345008     1.007825032230
         H           -0.681823842867     1.885049148338     0.150561654992     1.007825032230
         H           -0.027700842867     1.237513148338    -1.367675345008     1.007825032230
         H            2.519081157133    -1.812284851662    -0.471948345008     1.007825032230
         H            2.001142157133    -1.232287851662     1.094258654992     1.007825032230
         H            1.474867157133     1.431906148338     1.306871654992     1.007825032230
         H            1.726826157133     2.406639148338    -0.124674345008     1.007825032230
         H           -1.623507842867    -0.357727851662    -1.698885345008     1.007825032230
         H           -2.073435842867    -1.511023851662    -0.433812345008     1.007825032230
         H            3.406224157133     0.512142148338     0.063263654992     1.007825032230
         H            2.471243157133     0.452847148338    -1.425408345008     1.007825032230
         H            0.296781157133    -0.346545851662     2.037808654992     1.007825032230
         H           -1.285776842867     0.452072148338     1.919362654992     1.007825032230
         H           -1.163467842867    -1.322738851662     1.741999654992     1.007825032230
         H           -3.841076842867     0.160636148338    -0.804721345008     1.007825032230
         H           -3.245217842867     0.320399148338     0.839885654992     1.007825032230
         H           -2.772961842867     1.498294148338    -0.410274345008     1.007825032230

  Basis Set: AUG-CC-PVTZ
    Blend: AUG-CC-PVTZ
  Basis Set: (AUG-CC-PVTZ AUX)
    Blend: AUG-CC-PVTZ-JKFIT
	 Reference Energy          =    -367.7968893355453588 [Eh]
	 Singles Energy            =      -0.0000000000000000 [Eh]
	 Same-Spin Energy          =      -0.3939232698793226 [Eh]
	 Opposite-Spin Energy      =      -1.4092495578184188 [Eh]
	 Correlation Energy        =      -1.8031728276977415 [Eh]
	 Total Energy              =    -369.6000621632430807 [Eh]

	 ================> DF-SCS-MP2 Energies <==================
	-----------------------------------------------------------
	 SCS Same-Spin Scale       =       0.3333333333333333 [-]
	 SCS Opposite-Spin Scale   =       1.2000000000000000 [-]
	 SCS Same-Spin Energy      =      -0.1313077566264409 [Eh]
	 SCS Opposite-Spin Energy  =      -1.6910994693821024 [Eh]
	 SCS Correlation Energy    =      -1.8224072260085433 [Eh]
	 SCS Total Energy          =    -369.6192965615538810 [Eh]
	-----------------------------------------------------------

  Dipole Moment: [D]
     X:    -1.4856      Y:    -0.5467      Z:     0.1902     Total:     1.5944

*** Psi4 exiting successfully. Buy a developer a beer!
