                               Psi4 1.3.2 release

  ==> Input File <==

--------------------------------------------------------------------------
#psi4
#
memory 32 gb

molecule  {
1 1
  N       -0.4562039    -0.2189849     0.0645720
  C        0.4931350    -1.2664130    -0.4574980
  C        0.0352210     1.1635170    -0.2825800
  C        1.9231090    -1.0498370     0.0125270
  C        1.4559810     1.4024730     0.2057820
  C       -1.8126550    -0.4655410    -0.6371030
  C        2.4161490     0.3504860    -0.3416810
  C       -0.6569180    -0.3697370     1.5418350
  C       -2.9537840     0.4422600    -0.2148440
  H        0.4401460    -1.2024090    -1.5488290
  H        0.0974590    -2.2384020    -0.1488000
  H       -0.6659240     1.8829090     0.1439630
  H       -0.0118010     1.2353730    -1.3742740
  H        2.5349810    -1.8144250    -0.4785470
  H        2.0170420    -1.2344280     1.0876600
  H        1.4907670     1.4297660     1.3002730
  H        1.7427260     2.4044990    -0.1312730
  H       -1.6076080    -0.3598680    -1.7054840
  H       -2.0575360    -1.5131640    -0.4404110
  H        3.4221240     0.5100020     0.0566650
  H        2.4871430     0.4507070    -1.4320070
  H        0.3126810    -0.3486860     2.0312100
  H       -1.2698770     0.4499320     1.9127640
  H       -1.1475680    -1.3248790     1.7354010
  H       -3.8251770     0.1584960    -0.8113200
  H       -3.2293180     0.3182590     0.8332870
  H       -2.7570620     1.4961540    -0.4168730
units angstrom
no_reorient  #important for SAPT in psi4, default
symmetry c1  #important for SAPT in psi4, default
}

set PROPERTIES_ORIGIN ["COM"]
properties('MP2/aug-cc-pvtz', properties = ['dipole'])
--------------------------------------------------------------------------

    Molecular point group: c1
  Charge       = 1
  Multiplicity = 1
  Basis Set: AUG-CC-PVTZ
    Blend: AUG-CC-PVTZ
  Basis Set: (AUG-CC-PVTZ AUX)
    Blend: AUG-CC-PVTZ-JKFIT

    Orbital Energies [Eh]
    ---------------------

    Doubly Occupied:

       1A    -15.843000     2A    -11.443804     3A    -11.437355
       4A    -11.436683     5A    -11.434597     6A    -11.376999
       7A    -11.376919     8A    -11.375366     9A    -11.365840
      10A     -1.483664    11A     -1.248883    12A     -1.201196
      13A     -1.188738    14A     -1.141923    15A     -1.055585
      16A     -1.029856    17A     -0.987572    18A     -0.925718
      19A     -0.866934    20A     -0.838496    21A     -0.816123
      22A     -0.803775    23A     -0.771694    24A     -0.753158
      25A     -0.743588    26A     -0.724258    27A     -0.718820
      28A     -0.705689    29A     -0.698705    30A     -0.680638
      31A     -0.671079    32A     -0.664476    33A     -0.662341
      34A     -0.616858    35A     -0.613224    36A     -0.611866

  @DF-RHF Final Energy:  -367.79663410528326

   => Energetics <=

    Nuclear Repulsion Energy =            526.2571386484489722
    One-Electron Energy =               -1527.4767059531695850
    Two-Electron Energy =                 633.4229331994373524
    Total Energy =                       -367.7966341052832604
  Basis Set: (AUG-CC-PVTZ AUX)
    Blend: AUG-CC-PVTZ-RI
    Molecular point group: c1

    Geometry (in Angstrom), charge = 1, multiplicity = 1:

       Center              X                  Y                   Z               Mass
    ------------   -----------------  -----------------  -----------------  -----------------
         N           -0.474713846873    -0.216817153577     0.068944681680    14.003074004430
         C            0.474625053127    -1.264245253577    -0.453125318320    12.000000000000
         C            0.016711053127     1.165684746423    -0.278207318320    12.000000000000
         C            1.904599053127    -1.047669253577     0.016899681680    12.000000000000
         C            1.437471053127     1.404640746423     0.210154681680    12.000000000000
         C           -1.831164946873    -0.463373253577    -0.632730318320    12.000000000000
         C            2.397639053127     0.352653746423    -0.337308318320    12.000000000000
         C           -0.675427946873    -0.367569253577     1.546207681680    12.000000000000
         C           -2.972293946873     0.444427746423    -0.210471318320    12.000000000000
         H            0.421636053127    -1.200241253577    -1.544456318320     1.007825032230
         H            0.078949053127    -2.236234253577    -0.144427318320     1.007825032230
         H           -0.684433946873     1.885076746423     0.148335681680     1.007825032230
         H           -0.030310946873     1.237540746423    -1.369901318320     1.007825032230
         H            2.516471053127    -1.812257253577    -0.474174318320     1.007825032230
         H            1.998532053127    -1.232260253577     1.092032681680     1.007825032230
         H            1.472257053127     1.431933746423     1.304645681680     1.007825032230
         H            1.724216053127     2.406666746423    -0.126900318320     1.007825032230
         H           -1.626117946873    -0.357700253577    -1.701111318320     1.007825032230
         H           -2.076045946873    -1.510996253577    -0.436038318320     1.007825032230
         H            3.403614053127     0.512169746423     0.061037681680     1.007825032230
         H            2.468633053127     0.452874746423    -1.427634318320     1.007825032230
         H            0.294171053127    -0.346518253577     2.035582681680     1.007825032230
         H           -1.288386946873     0.452099746423     1.917136681680     1.007825032230
         H           -1.166077946873    -1.322711253577     1.739773681680     1.007825032230
         H           -3.843686946873     0.160663746423    -0.806947318320     1.007825032230
         H           -3.247827946873     0.320426746423     0.837659681680     1.007825032230
         H           -2.775571946873     1.498321746423    -0.412500318320     1.007825032230

  Basis Set: AUG-CC-PVTZ
    Blend: AUG-CC-PVTZ
  Basis Set: (AUG-CC-PVTZ AUX)
    Blend: AUG-CC-PVTZ-JKFIT
	 Reference Energy          =    -367.7966341052832604 [Eh]
	 Singles Energy            =      -0.0000000000000000 [Eh]
	 Same-Spin Energy          =      -0.3937981869371071 [Eh]
	 Opposite-Spin Energy      =      -1.4093217513865572 [Eh]
	 Correlation Energy        =      -1.8031199383236642 [Eh]
	 Total Energy              =    -369.5997540436069357 [Eh]

	 ================> DF-SCS-MP2 Energies <==================
	-----------------------------------------------------------
	 SCS Same-Spin Scale       =       0.3333333333333333 [-]
	 SCS Opposite-Spin Scale   =       1.2000000000000000 [-]
	 SCS Same-Spin Energy      =      -0.1312660623123690 [Eh]
	 SCS Opposite-Spin Energy  =      -1.6911861016638687 [Eh]
	 SCS Correlation Energy    =      -1.8224521639762377 [Eh]
	 SCS Total Energy          =    -369.6190862692595260 [Eh]
	-----------------------------------------------------------

  Dipole Moment: [D]
     X:    -1.5674      Y:    -0.5531      Z:     0.2047     Total:     1.6747

*** Psi4 exiting successfully. Buy a developer a beer!
