                               Psi4 1.3.2 release

  ==> Input File <==

--------------------------------------------------------------------------
#psi4
#
memory 32 gb

molecule  {
1 1
  N       -0.4820890    -0.2204400     0.0611380
  C        0.4931350    -1.2664130    -0.4574980
  C        0.0352210     1.1635170    -0.2825800
  C        1.9231090    -1.0498370     0.0125270
  C        1.4559810     1.4024730     0.2057820
  C       -1.8745536    -0.4901428    -0.4923272
  C        2.4161490     0.3504860    -0.3416810
  C       -0.6569180    -0.3697370     1.5418350
  C       -2.9537840     0.4422600    -0.2148440
  H        0.4401460    -1.2024090    -1.5488290
  H        0.0974590    -2.2384020    -0.1488000
  H       -0.6659240     1.8829090     0.1439630
  H       -0.0118010     1.2353730    -1.3742740
  H        2.5349810    -1.8144250    -0.4785470
  H        2.0170420    -1.2344280     1.0876600
  H        1.4907670     1.4297660     1.3002730
  H        1.7427260     2.4044990    -0.1312730
  H       -1.6076080    -0.3598680    -1.7054840
  H       -2.0575360    -1.5131640    -0.4404110
  H        3.4221240     0.5100020     0.0566650
  H        2.4871430     0.4507070    -1.4320070
  H        0.3126810    -0.3486860     2.0312100
  H       -1.2698770     0.4499320     1.9127640
  H       -1.1475680    -1.3248790     1.7354010
  H       -3.8251770     0.1584960    -0.8113200
  H       -3.2293180     0.3182590     0.8332870
  H       -2.7570620     1.4961540    -0.4168730
units angstrom
no_reorient  #important for SAPT in psi4, default
symmetry c1  #important for SAPT in psi4, default
}

set PROPERTIES_ORIGIN ["COM"]
properties('MP2/aug-cc-pvtz', properties = ['dipole'])
--------------------------------------------------------------------------

    Molecular point group: c1
  Charge       = 1
  Multiplicity = 1
  Basis Set: AUG-CC-PVTZ
    Blend: AUG-CC-PVTZ
  Basis Set: (AUG-CC-PVTZ AUX)
    Blend: AUG-CC-PVTZ-JKFIT

    Orbital Energies [Eh]
    ---------------------

    Doubly Occupied:

       1A    -15.844659     2A    -11.448295     3A    -11.439662
       4A    -11.438366     5A    -11.433844     6A    -11.379135
       7A    -11.378876     8A    -11.373874     9A    -11.366819
      10A     -1.484798    11A     -1.254266    12A     -1.202019
      13A     -1.196724    14A     -1.141642    15A     -1.060683
      16A     -1.030616    17A     -0.984550    18A     -0.925991
      19A     -0.865779    20A     -0.839981    21A     -0.819593
      22A     -0.803184    23A     -0.769899    24A     -0.758363
      25A     -0.745896    26A     -0.727179    27A     -0.721971
      28A     -0.708071    29A     -0.698112    30A     -0.695494
      31A     -0.675458    32A     -0.664569    33A     -0.619197
      34A     -0.617982    35A     -0.615652    36A     -0.613864

  @DF-RHF Final Energy:  -367.76985050097454

   => Energetics <=

    Nuclear Repulsion Energy =            526.4662136021040624
    One-Electron Energy =               -1527.7819992302461287
    Two-Electron Energy =                 633.5459351271674677
    Total Energy =                       -367.7698505009745986
  Basis Set: (AUG-CC-PVTZ AUX)
    Blend: AUG-CC-PVTZ-RI
    Molecular point group: c1

    Geometry (in Angstrom), charge = 1, multiplicity = 1:

       Center              X                  Y                   Z               Mass
    ------------   -----------------  -----------------  -----------------  -----------------
         N           -0.491973846819    -0.215809417558     0.052328448895    14.003074004430
         C            0.483250153181    -1.261782417558    -0.466307551105    12.000000000000
         C            0.025336153181     1.168147582442    -0.291389551105    12.000000000000
         C            1.913224153181    -1.045206417558     0.003717448895    12.000000000000
         C            1.446096153181     1.407103582442     0.196972448895    12.000000000000
         C           -1.884438446819    -0.485512217558    -0.501136751105    12.000000000000
         C            2.406264153181     0.355116582442    -0.350490551105    12.000000000000
         C           -0.666802846819    -0.365106417558     1.533025448895    12.000000000000
         C           -2.963668846819     0.446890582442    -0.223653551105    12.000000000000
         H            0.430261153181    -1.197778417558    -1.557638551105     1.007825032230
         H            0.087574153181    -2.233771417558    -0.157609551105     1.007825032230
         H           -0.675808846819     1.887539582442     0.135153448895     1.007825032230
         H           -0.021685846819     1.240003582442    -1.383083551105     1.007825032230
         H            2.525096153181    -1.809794417558    -0.487356551105     1.007825032230
         H            2.007157153181    -1.229797417558     1.078850448895     1.007825032230
         H            1.480882153181     1.434396582442     1.291463448895     1.007825032230
         H            1.732841153181     2.409129582442    -0.140082551105     1.007825032230
         H           -1.617492846819    -0.355237417558    -1.714293551105     1.007825032230
         H           -2.067420846819    -1.508533417558    -0.449220551105     1.007825032230
         H            3.412239153181     0.514632582442     0.047855448895     1.007825032230
         H            2.477258153181     0.455337582442    -1.440816551105     1.007825032230
         H            0.302796153181    -0.344055417558     2.022400448895     1.007825032230
         H           -1.279761846819     0.454562582442     1.903954448895     1.007825032230
         H           -1.157452846819    -1.320248417558     1.726591448895     1.007825032230
         H           -3.835061846819     0.163126582442    -0.820129551105     1.007825032230
         H           -3.239202846819     0.322889582442     0.824477448895     1.007825032230
         H           -2.766946846819     1.500784582442    -0.425682551105     1.007825032230

  Basis Set: AUG-CC-PVTZ
    Blend: AUG-CC-PVTZ
  Basis Set: (AUG-CC-PVTZ AUX)
    Blend: AUG-CC-PVTZ-JKFIT
	 Reference Energy          =    -367.7698505009745418 [Eh]
	 Singles Energy            =      -0.0000000000000000 [Eh]
	 Same-Spin Energy          =      -0.3951538910847744 [Eh]
	 Opposite-Spin Energy      =      -1.4115946722556996 [Eh]
	 Correlation Energy        =      -1.8067485633404741 [Eh]
	 Total Energy              =    -369.5765990643150189 [Eh]

	 ================> DF-SCS-MP2 Energies <==================
	-----------------------------------------------------------
	 SCS Same-Spin Scale       =       0.3333333333333333 [-]
	 SCS Opposite-Spin Scale   =       1.2000000000000000 [-]
	 SCS Same-Spin Energy      =      -0.1317179636949248 [Eh]
	 SCS Opposite-Spin Energy  =      -1.6939136067068394 [Eh]
	 SCS Correlation Energy    =      -1.8256315704017643 [Eh]
	 SCS Total Energy          =    -369.5954820713762956 [Eh]
	-----------------------------------------------------------

  Dipole Moment: [D]
     X:    -1.4938      Y:    -0.5220      Z:     0.2618     Total:     1.6039

*** Psi4 exiting successfully. Buy a developer a beer!
