                               Psi4 1.3.2 release

  ==> Input File <==

--------------------------------------------------------------------------
#psi4
#
memory 32 gb

molecule  {
0 1
  C        0.5372180     0.4001580    -0.0000200
  C       -0.5372160    -0.4001420    -0.0000340
  C        1.9579460    -0.0793330     0.0000300
  C       -1.9579470     0.0793230     0.0000040
  H        0.3872410     1.4808590    -0.0000070
  H       -0.3872320    -1.4808410    -0.0000340
  H        2.4990240     0.2830730     0.8809220
  H        2.0015130    -1.1721620     0.0000580
  H        2.4990680     0.2830330    -0.8808500
  H       -2.4990120    -0.2830470     0.8809190
  H       -2.0015450     1.1721510    -0.0000290
  H       -2.4990680    -0.2831040    -0.8808510
units angstrom
no_reorient  #important for SAPT in psi4, default
symmetry c1  #important for SAPT in psi4, default
}

set PROPERTIES_ORIGIN ["COM"]
properties('MP2/aug-cc-pvtz', properties = ['dipole'])
--------------------------------------------------------------------------

    Molecular point group: c1
  Charge       = 0
  Multiplicity = 1
  Basis Set: AUG-CC-PVTZ
    Blend: AUG-CC-PVTZ
  Basis Set: (AUG-CC-PVTZ AUX)
    Blend: AUG-CC-PVTZ-JKFIT

    Orbital Energies [Eh]
    ---------------------

    Doubly Occupied:

       1A    -11.224939     2A    -11.223280     3A    -11.218101
       4A    -11.218091     5A     -1.075275     6A     -0.982652
       7A     -0.876012     8A     -0.743501     9A     -0.605217
      10A     -0.604564    11A     -0.570137    12A     -0.553517
      13A     -0.520229    14A     -0.507656    15A     -0.481335
      16A     -0.341041

  @DF-RHF Final Energy:  -156.16820676678978

   => Energetics <=

    Nuclear Repulsion Energy =            115.7206764516820812
    One-Electron Energy =                -438.2866754309823705
    Two-Electron Energy =                 166.3977922125104953
    Total Energy =                       -156.1682067667897797
  Basis Set: (AUG-CC-PVTZ AUX)
    Blend: AUG-CC-PVTZ-RI
    Molecular point group: c1

    Geometry (in Angstrom), charge = 0, multiplicity = 1:

       Center              X                  Y                   Z               Mass
    ------------   -----------------  -----------------  -----------------  -----------------
         C            0.537217983698     0.400157398839    -0.000018020099    12.000000000000
         C           -0.537216016302    -0.400142601161    -0.000032020099    12.000000000000
         C            1.957945983698    -0.079333601161     0.000031979901    12.000000000000
         C           -1.957947016302     0.079322398839     0.000005979901    12.000000000000
         H            0.387240983698     1.480858398839    -0.000005020099     1.007825032230
         H           -0.387232016302    -1.480841601161    -0.000032020099     1.007825032230
         H            2.499023983698     0.283072398839     0.880923979901     1.007825032230
         H            2.001512983698    -1.172162601161     0.000059979901     1.007825032230
         H            2.499067983698     0.283032398839    -0.880848020099     1.007825032230
         H           -2.499012016302    -0.283047601161     0.880920979901     1.007825032230
         H           -2.001545016302     1.172150398839    -0.000027020099     1.007825032230
         H           -2.499068016302    -0.283104601161    -0.880849020099     1.007825032230

  Basis Set: AUG-CC-PVTZ
    Blend: AUG-CC-PVTZ
  Basis Set: (AUG-CC-PVTZ AUX)
    Blend: AUG-CC-PVTZ-JKFIT
	 Reference Energy          =    -156.1682067667897797 [Eh]
	 Singles Energy            =      -0.0000000000000000 [Eh]
	 Same-Spin Energy          =      -0.1622062833306548 [Eh]
	 Opposite-Spin Energy      =      -0.6062800366773884 [Eh]
	 Correlation Energy        =      -0.7684863200080432 [Eh]
	 Total Energy              =    -156.9366930867978169 [Eh]

	 ================> DF-SCS-MP2 Energies <==================
	-----------------------------------------------------------
	 SCS Same-Spin Scale       =       0.3333333333333333 [-]
	 SCS Opposite-Spin Scale   =       1.2000000000000000 [-]
	 SCS Same-Spin Energy      =      -0.0540687611102183 [Eh]
	 SCS Opposite-Spin Energy  =      -0.7275360440128661 [Eh]
	 SCS Correlation Energy    =      -0.7816048051230844 [Eh]
	 SCS Total Energy          =    -156.9498115719128748 [Eh]
	-----------------------------------------------------------

  Dipole Moment: [D]
     X:    -0.0000      Y:    -0.0000      Z:     0.0001     Total:     0.0001

*** Psi4 exiting successfully. Buy a developer a beer!
