                               Psi4 1.3.2 release

  ==> Input File <==

--------------------------------------------------------------------------
#psi4
#
memory 32 gb

molecule  {
0 1
  C        0.5372180     0.4001580    -0.0000200
  C       -0.5372160    -0.4001420    -0.0000340
  C        1.9579460    -0.0793330     0.0000300
  C       -1.9579470     0.0793230     0.0000040
  H        0.3872372     1.4808587     0.1499930
  H       -0.3872320    -1.4808410    -0.0000340
  H        2.4990240     0.2830730     0.8809220
  H        2.0015130    -1.1721620     0.0000580
  H        2.4990680     0.2830330    -0.8808500
  H       -2.4990120    -0.2830470     0.8809190
  H       -2.0015450     1.1721510    -0.0000290
  H       -2.4990680    -0.2831040    -0.8808510
units angstrom
no_reorient  #important for SAPT in psi4, default
symmetry c1  #important for SAPT in psi4, default
}

set PROPERTIES_ORIGIN ["COM"]
properties('MP2/aug-cc-pvtz', properties = ['dipole'])
--------------------------------------------------------------------------

    Molecular point group: c1
  Charge       = 0
  Multiplicity = 1
  Basis Set: AUG-CC-PVTZ
    Blend: AUG-CC-PVTZ
  Basis Set: (AUG-CC-PVTZ AUX)
    Blend: AUG-CC-PVTZ-JKFIT

    Orbital Energies [Eh]
    ---------------------

    Doubly Occupied:

       1A    -11.225746     2A    -11.223988     3A    -11.218229
       4A    -11.218107     5A     -1.075220     6A     -0.982707
       7A     -0.876019     8A     -0.741950     9A     -0.605260
      10A     -0.604112    11A     -0.570264    12A     -0.553619
      13A     -0.519886    14A     -0.507634    15A     -0.480530
      16A     -0.340854

  @DF-RHF Final Energy:  -156.16682050651539

   => Energetics <=

    Nuclear Repulsion Energy =            115.6831570351074134
    One-Electron Energy =                -438.2117039596600989
    Two-Electron Energy =                 166.3617264180373070
    Total Energy =                       -156.1668205065153927
  Basis Set: (AUG-CC-PVTZ AUX)
    Blend: AUG-CC-PVTZ-RI
    Molecular point group: c1

    Geometry (in Angstrom), charge = 0, multiplicity = 1:

       Center              X                  Y                   Z               Mass
    ------------   -----------------  -----------------  -----------------  -----------------
         C            0.537218052010     0.400157404232    -0.002714537102    12.000000000000
         C           -0.537215947990    -0.400142595768    -0.002728537102    12.000000000000
         C            1.957946052010    -0.079333595768    -0.002664537102    12.000000000000
         C           -1.957946947990     0.079322404232    -0.002690537102    12.000000000000
         H            0.387237252010     1.480858104232     0.147298462898     1.007825032230
         H           -0.387231947990    -1.480841595768    -0.002728537102     1.007825032230
         H            2.499024052010     0.283072404232     0.878227462898     1.007825032230
         H            2.001513052010    -1.172162595768    -0.002636537102     1.007825032230
         H            2.499068052010     0.283032404232    -0.883544537102     1.007825032230
         H           -2.499011947990    -0.283047595768     0.878224462898     1.007825032230
         H           -2.001544947990     1.172150404232    -0.002723537102     1.007825032230
         H           -2.499067947990    -0.283104595768    -0.883545537102     1.007825032230

  Basis Set: AUG-CC-PVTZ
    Blend: AUG-CC-PVTZ
  Basis Set: (AUG-CC-PVTZ AUX)
    Blend: AUG-CC-PVTZ-JKFIT
	 Reference Energy          =    -156.1668205065153927 [Eh]
	 Singles Energy            =      -0.0000000000000000 [Eh]
	 Same-Spin Energy          =      -0.1622735626560331 [Eh]
	 Opposite-Spin Energy      =      -0.6064695641756225 [Eh]
	 Correlation Energy        =      -0.7687431268316556 [Eh]
	 Total Energy              =    -156.9355636333470443 [Eh]

	 ================> DF-SCS-MP2 Energies <==================
	-----------------------------------------------------------
	 SCS Same-Spin Scale       =       0.3333333333333333 [-]
	 SCS Opposite-Spin Scale   =       1.2000000000000000 [-]
	 SCS Same-Spin Energy      =      -0.0540911875520110 [Eh]
	 SCS Opposite-Spin Energy  =      -0.7277634770107470 [Eh]
	 SCS Correlation Energy    =      -0.7818546645627580 [Eh]
	 SCS Total Energy          =    -156.9486751710781505 [Eh]
	-----------------------------------------------------------

  Dipole Moment: [D]
     X:    -0.0054      Y:    -0.0152      Z:     0.0945     Total:     0.0959

*** Psi4 exiting successfully. Buy a developer a beer!
