                               Psi4 1.3.2 release

  ==> Input File <==

--------------------------------------------------------------------------
#psi4
#
memory 32 gb

molecule  {
0 1
  C        0.5372180     0.4001580    -0.0000200
  C       -0.5372160    -0.4001420    -0.0000340
  C        1.9579460    -0.0793330     0.0000300
  C       -1.9579470     0.0793230     0.0000040
  H        0.3872385     1.4808588     0.0999930
  H       -0.3872320    -1.4808410    -0.0000340
  H        2.4990240     0.2830730     0.8809220
  H        2.0015130    -1.1721620     0.0000580
  H        2.4990680     0.2830330    -0.8808500
  H       -2.4990120    -0.2830470     0.8809190
  H       -2.0015450     1.1721510    -0.0000290
  H       -2.4990680    -0.2831040    -0.8808510
units angstrom
no_reorient  #important for SAPT in psi4, default
symmetry c1  #important for SAPT in psi4, default
}

set PROPERTIES_ORIGIN ["COM"]
properties('MP2/aug-cc-pvtz', properties = ['dipole'])
--------------------------------------------------------------------------

    Molecular point group: c1
  Charge       = 0
  Multiplicity = 1
  Basis Set: AUG-CC-PVTZ
    Blend: AUG-CC-PVTZ
  Basis Set: (AUG-CC-PVTZ AUX)
    Blend: AUG-CC-PVTZ-JKFIT

    Orbital Energies [Eh]
    ---------------------

    Doubly Occupied:

       1A    -11.225287     2A    -11.223607     3A    -11.218155
       4A    -11.218100     5A     -1.075249     6A     -0.982676
       7A     -0.876014     8A     -0.742803     9A     -0.605221
      10A     -0.604378    11A     -0.570194    12A     -0.553562
      13A     -0.520072    14A     -0.507646    15A     -0.480982
      16A     -0.340957

  @DF-RHF Final Energy:  -156.16760184864154

   => Energetics <=

    Nuclear Repulsion Energy =            115.7038984748079713
    One-Electron Energy =                -438.2531926827451798
    Two-Electron Energy =                 166.3816923592956982
    Total Energy =                       -156.1676018486415387
  Basis Set: (AUG-CC-PVTZ AUX)
    Blend: AUG-CC-PVTZ-RI
    Molecular point group: c1

    Geometry (in Angstrom), charge = 0, multiplicity = 1:

       Center              X                  Y                   Z               Mass
    ------------   -----------------  -----------------  -----------------  -----------------
         C            0.537218028640     0.400157402434    -0.001815698101    12.000000000000
         C           -0.537215971360    -0.400142597566    -0.001829698101    12.000000000000
         C            1.957946028640    -0.079333597566    -0.001765698101    12.000000000000
         C           -1.957946971360     0.079322402434    -0.001791698101    12.000000000000
         H            0.387238528640     1.480858202434     0.098197301899     1.007825032230
         H           -0.387231971360    -1.480841597566    -0.001829698101     1.007825032230
         H            2.499024028640     0.283072402434     0.879126301899     1.007825032230
         H            2.001513028640    -1.172162597566    -0.001737698101     1.007825032230
         H            2.499068028640     0.283032402434    -0.882645698101     1.007825032230
         H           -2.499011971360    -0.283047597566     0.879123301899     1.007825032230
         H           -2.001544971360     1.172150402434    -0.001824698101     1.007825032230
         H           -2.499067971360    -0.283104597566    -0.882646698101     1.007825032230

  Basis Set: AUG-CC-PVTZ
    Blend: AUG-CC-PVTZ
  Basis Set: (AUG-CC-PVTZ AUX)
    Blend: AUG-CC-PVTZ-JKFIT
	 Reference Energy          =    -156.1676018486415387 [Eh]
	 Singles Energy            =      -0.0000000000000000 [Eh]
	 Same-Spin Energy          =      -0.1622363509906871 [Eh]
	 Opposite-Spin Energy      =      -0.6063641860966541 [Eh]
	 Correlation Energy        =      -0.7686005370873412 [Eh]
	 Total Energy              =    -156.9362023857288762 [Eh]

	 ================> DF-SCS-MP2 Energies <==================
	-----------------------------------------------------------
	 SCS Same-Spin Scale       =       0.3333333333333333 [-]
	 SCS Opposite-Spin Scale   =       1.2000000000000000 [-]
	 SCS Same-Spin Energy      =      -0.0540787836635623 [Eh]
	 SCS Opposite-Spin Energy  =      -0.7276370233159849 [Eh]
	 SCS Correlation Energy    =      -0.7817158069795472 [Eh]
	 SCS Total Energy          =    -156.9493176556210869 [Eh]
	-----------------------------------------------------------

  Dipole Moment: [D]
     X:    -0.0024      Y:    -0.0068      Z:     0.0634     Total:     0.0638

*** Psi4 exiting successfully. Buy a developer a beer!
