                               Psi4 1.3.2 release

  ==> Input File <==

--------------------------------------------------------------------------
#psi4
#
memory 32 gb

molecule  {
0 1
  C        0.5372180     0.4001580    -0.0000200
  C       -0.5372160    -0.4001420    -0.0000340
  C        1.9579460    -0.0793330     0.0000300
  C       -1.9579470     0.0793230     0.0000040
  H        0.3872334     1.4808584     0.2999930
  H       -0.3872320    -1.4808410    -0.0000340
  H        2.4990240     0.2830730     0.8809220
  H        2.0015130    -1.1721620     0.0000580
  H        2.4990680     0.2830330    -0.8808500
  H       -2.4990120    -0.2830470     0.8809190
  H       -2.0015450     1.1721510    -0.0000290
  H       -2.4990680    -0.2831040    -0.8808510
units angstrom
no_reorient  #important for SAPT in psi4, default
symmetry c1  #important for SAPT in psi4, default
}

set PROPERTIES_ORIGIN ["COM"]
properties('MP2/aug-cc-pvtz', properties = ['dipole'])
--------------------------------------------------------------------------

    Molecular point group: c1
  Charge       = 0
  Multiplicity = 1
  Basis Set: AUG-CC-PVTZ
    Blend: AUG-CC-PVTZ
  Basis Set: (AUG-CC-PVTZ AUX)
    Blend: AUG-CC-PVTZ-JKFIT

    Orbital Energies [Eh]
    ---------------------

    Doubly Occupied:

       1A    -11.228484     2A    -11.225672     3A    -11.218611
       4A    -11.218168     5A     -1.075103     6A     -0.982881
       7A     -0.876087     8A     -0.737709     9A     -0.605612
      10A     -0.602584    11A     -0.570641    12A     -0.553921
      13A     -0.519076    14A     -0.507581    15A     -0.477882
      16A     -0.340336

  @DF-RHF Final Energy:  -156.16217915300265

   => Energetics <=

    Nuclear Repulsion Energy =            115.5753193155320702
    One-Electron Energy =                -437.9943013426153584
    Two-Electron Energy =                 166.2568028740806483
    Total Energy =                       -156.1621791530026542
  Basis Set: (AUG-CC-PVTZ AUX)
    Blend: AUG-CC-PVTZ-RI
    Molecular point group: c1

    Geometry (in Angstrom), charge = 0, multiplicity = 1:

       Center              X                  Y                   Z               Mass
    ------------   -----------------  -----------------  -----------------  -----------------
         C            0.537218120322     0.400157409625    -0.005411054105    12.000000000000
         C           -0.537215879678    -0.400142590375    -0.005425054105    12.000000000000
         C            1.957946120322    -0.079333590375    -0.005361054105    12.000000000000
         C           -1.957946879678     0.079322409625    -0.005387054105    12.000000000000
         H            0.387233520322     1.480857809625     0.294601945895     1.007825032230
         H           -0.387231879678    -1.480841590375    -0.005425054105     1.007825032230
         H            2.499024120322     0.283072409625     0.875530945895     1.007825032230
         H            2.001513120322    -1.172162590375    -0.005333054105     1.007825032230
         H            2.499068120322     0.283032409625    -0.886241054105     1.007825032230
         H           -2.499011879678    -0.283047590375     0.875527945895     1.007825032230
         H           -2.001544879678     1.172150409625    -0.005420054105     1.007825032230
         H           -2.499067879678    -0.283104590375    -0.886242054105     1.007825032230

  Basis Set: AUG-CC-PVTZ
    Blend: AUG-CC-PVTZ
  Basis Set: (AUG-CC-PVTZ AUX)
    Blend: AUG-CC-PVTZ-JKFIT
	 Reference Energy          =    -156.1621791530026542 [Eh]
	 Singles Energy            =      -0.0000000000000000 [Eh]
	 Same-Spin Energy          =      -0.1624679081563540 [Eh]
	 Opposite-Spin Energy      =      -0.6070387365380439 [Eh]
	 Correlation Energy        =      -0.7695066446943979 [Eh]
	 Total Energy              =    -156.9316857976970425 [Eh]

	 ================> DF-SCS-MP2 Energies <==================
	-----------------------------------------------------------
	 SCS Same-Spin Scale       =       0.3333333333333333 [-]
	 SCS Opposite-Spin Scale   =       1.2000000000000000 [-]
	 SCS Same-Spin Energy      =      -0.0541559693854513 [Eh]
	 SCS Opposite-Spin Energy  =      -0.7284464838456526 [Eh]
	 SCS Correlation Energy    =      -0.7826024532311039 [Eh]
	 SCS Total Energy          =    -156.9447816062337608 [Eh]
	-----------------------------------------------------------

  Dipole Moment: [D]
     X:    -0.0198      Y:    -0.0599      Z:     0.1833     Total:     0.1939

*** Psi4 exiting successfully. Buy a developer a beer!
