                               Psi4 1.3.2 release

  ==> Input File <==

--------------------------------------------------------------------------
#psi4
#
memory 32 gb

molecule  {
0 1
  C        0.5372180     0.4001580    -0.0000200
  C       -0.5372160    -0.4001420    -0.0000340
  C        1.9579460    -0.0793330     0.0000300
  C       -1.9579470     0.0793230     0.0000040
  H        0.3872359     1.4808586     0.1999930
  H       -0.3872320    -1.4808410    -0.0000340
  H        2.4990240     0.2830730     0.8809220
  H        2.0015130    -1.1721620     0.0000580
  H        2.4990680     0.2830330    -0.8808500
  H       -2.4990120    -0.2830470     0.8809190
  H       -2.0015450     1.1721510    -0.0000290
  H       -2.4990680    -0.2831040    -0.8808510
units angstrom
no_reorient  #important for SAPT in psi4, default
symmetry c1  #important for SAPT in psi4, default
}

set PROPERTIES_ORIGIN ["COM"]
properties('MP2/aug-cc-pvtz', properties = ['dipole'])
--------------------------------------------------------------------------

    Molecular point group: c1
  Charge       = 0
  Multiplicity = 1
  Basis Set: AUG-CC-PVTZ
    Blend: AUG-CC-PVTZ
  Basis Set: (AUG-CC-PVTZ AUX)
    Blend: AUG-CC-PVTZ-JKFIT

    Orbital Energies [Eh]
    ---------------------

    Doubly Occupied:

       1A    -11.226425     2A    -11.224473     3A    -11.218330
       4A    -11.218120     5A     -1.075182     6A     -0.982751
       7A     -0.876031     8A     -0.740793     9A     -0.605340
      10A     -0.603720    11A     -0.570363    12A     -0.553698
      13A     -0.519645    14A     -0.507618    15A     -0.479876
      16A     -0.340714

  @DF-RHF Final Energy:  -156.16568232689056

   => Energetics <=

    Nuclear Repulsion Energy =            115.6545370804085167
    One-Electron Energy =                -438.1542820539771128
    Two-Electron Energy =                 166.3340626466780066
    Total Energy =                       -156.1656823268905612
  Basis Set: (AUG-CC-PVTZ AUX)
    Blend: AUG-CC-PVTZ-RI
    Molecular point group: c1

    Geometry (in Angstrom), charge = 0, multiplicity = 1:

       Center              X                  Y                   Z               Mass
    ------------   -----------------  -----------------  -----------------  -----------------
         C            0.537218075380     0.400157406030    -0.003613376103    12.000000000000
         C           -0.537215924620    -0.400142593970    -0.003627376103    12.000000000000
         C            1.957946075380    -0.079333593970    -0.003563376103    12.000000000000
         C           -1.957946924620     0.079322406030    -0.003589376103    12.000000000000
         H            0.387235975380     1.480858006030     0.196399623897     1.007825032230
         H           -0.387231924620    -1.480841593970    -0.003627376103     1.007825032230
         H            2.499024075380     0.283072406030     0.877328623897     1.007825032230
         H            2.001513075380    -1.172162593970    -0.003535376103     1.007825032230
         H            2.499068075380     0.283032406030    -0.884443376103     1.007825032230
         H           -2.499011924620    -0.283047593970     0.877325623897     1.007825032230
         H           -2.001544924620     1.172150406030    -0.003622376103     1.007825032230
         H           -2.499067924620    -0.283104593970    -0.884444376103     1.007825032230

  Basis Set: AUG-CC-PVTZ
    Blend: AUG-CC-PVTZ
  Basis Set: (AUG-CC-PVTZ AUX)
    Blend: AUG-CC-PVTZ-JKFIT
	 Reference Energy          =    -156.1656823268905612 [Eh]
	 Singles Energy            =      -0.0000000000000000 [Eh]
	 Same-Spin Energy          =      -0.1623249974545610 [Eh]
	 Opposite-Spin Energy      =      -0.6066172678642952 [Eh]
	 Correlation Energy        =      -0.7689422653188562 [Eh]
	 Total Energy              =    -156.9346245922094170 [Eh]

	 ================> DF-SCS-MP2 Energies <==================
	-----------------------------------------------------------
	 SCS Same-Spin Scale       =       0.3333333333333333 [-]
	 SCS Opposite-Spin Scale   =       1.2000000000000000 [-]
	 SCS Same-Spin Energy      =      -0.0541083324848537 [Eh]
	 SCS Opposite-Spin Energy  =      -0.7279407214371542 [Eh]
	 SCS Correlation Energy    =      -0.7820490539220079 [Eh]
	 SCS Total Energy          =    -156.9477313808125700 [Eh]
	-----------------------------------------------------------

  Dipole Moment: [D]
     X:    -0.0093      Y:    -0.0269      Z:     0.1250     Total:     0.1282

*** Psi4 exiting successfully. Buy a developer a beer!
