                               Psi4 1.3.2 release

  ==> Input File <==

--------------------------------------------------------------------------
#psi4
#
memory 32 gb

molecule  {
0 1
  C        0.5372180     0.4001580    -0.0000200
  C       -0.5372160    -0.4001420    -0.0000340
  C        1.9579460    -0.0793330     0.0000300
  C       -1.9579470     0.0793230     0.0000040
  H        0.3872346     1.4808585     0.2499930
  H       -0.3872320    -1.4808410    -0.0000340
  H        2.4990240     0.2830730     0.8809220
  H        2.0015130    -1.1721620     0.0000580
  H        2.4990680     0.2830330    -0.8808500
  H       -2.4990120    -0.2830470     0.8809190
  H       -2.0015450     1.1721510    -0.0000290
  H       -2.4990680    -0.2831040    -0.8808510
units angstrom
no_reorient  #important for SAPT in psi4, default
symmetry c1  #important for SAPT in psi4, default
}

set PROPERTIES_ORIGIN ["COM"]
properties('MP2/aug-cc-pvtz', properties = ['dipole'])
--------------------------------------------------------------------------

    Molecular point group: c1
  Charge       = 0
  Multiplicity = 1
  Basis Set: AUG-CC-PVTZ
    Blend: AUG-CC-PVTZ
  Basis Set: (AUG-CC-PVTZ AUX)
    Blend: AUG-CC-PVTZ-JKFIT

    Orbital Energies [Eh]
    ---------------------

    Doubly Occupied:

       1A    -11.227338     2A    -11.225038     3A    -11.218458
       4A    -11.218139     5A     -1.075142     6A     -0.982809
       7A     -0.876052     8A     -0.739366     9A     -0.605458
      10A     -0.603208    11A     -0.570489    12A     -0.553799
      13A     -0.519369    14A     -0.507599    15A     -0.479001
      16A     -0.340540

  @DF-RHF Final Energy:  -156.16414903982439

   => Energetics <=

    Nuclear Repulsion Energy =            115.6184326838184404
    One-Electron Energy =                -438.0815578675556026
    Two-Electron Energy =                 166.2989761439127392
    Total Energy =                       -156.1641490398243945
  Basis Set: (AUG-CC-PVTZ AUX)
    Blend: AUG-CC-PVTZ-RI
    Molecular point group: c1

    Geometry (in Angstrom), charge = 0, multiplicity = 1:

       Center              X                  Y                   Z               Mass
    ------------   -----------------  -----------------  -----------------  -----------------
         C            0.537218098750     0.400157407827    -0.004512215104    12.000000000000
         C           -0.537215901250    -0.400142592173    -0.004526215104    12.000000000000
         C            1.957946098750    -0.079333592173    -0.004462215104    12.000000000000
         C           -1.957946901250     0.079322407827    -0.004488215104    12.000000000000
         H            0.387234698750     1.480857907827     0.245500784896     1.007825032230
         H           -0.387231901250    -1.480841592173    -0.004526215104     1.007825032230
         H            2.499024098750     0.283072407827     0.876429784896     1.007825032230
         H            2.001513098750    -1.172162592173    -0.004434215104     1.007825032230
         H            2.499068098750     0.283032407827    -0.885342215104     1.007825032230
         H           -2.499011901250    -0.283047592173     0.876426784896     1.007825032230
         H           -2.001544901250     1.172150407827    -0.004521215104     1.007825032230
         H           -2.499067901250    -0.283104592173    -0.885343215104     1.007825032230

  Basis Set: AUG-CC-PVTZ
    Blend: AUG-CC-PVTZ
  Basis Set: (AUG-CC-PVTZ AUX)
    Blend: AUG-CC-PVTZ-JKFIT
	 Reference Energy          =    -156.1641490398243945 [Eh]
	 Singles Energy            =      -0.0000000000000000 [Eh]
	 Same-Spin Energy          =      -0.1623900334997047 [Eh]
	 Opposite-Spin Energy      =      -0.6068071400052496 [Eh]
	 Correlation Energy        =      -0.7691971735049543 [Eh]
	 Total Energy              =    -156.9333462133293438 [Eh]

	 ================> DF-SCS-MP2 Energies <==================
	-----------------------------------------------------------
	 SCS Same-Spin Scale       =       0.3333333333333333 [-]
	 SCS Opposite-Spin Scale   =       1.2000000000000000 [-]
	 SCS Same-Spin Energy      =      -0.0541300111665682 [Eh]
	 SCS Opposite-Spin Energy  =      -0.7281685680062995 [Eh]
	 SCS Correlation Energy    =      -0.7822985791728677 [Eh]
	 SCS Total Energy          =    -156.9464476189972686 [Eh]
	-----------------------------------------------------------

  Dipole Moment: [D]
     X:    -0.0142      Y:    -0.0419      Z:     0.1547     Total:     0.1609

*** Psi4 exiting successfully. Buy a developer a beer!
