                               Psi4 1.3.2 release

  ==> Input File <==

--------------------------------------------------------------------------
#psi4
#
memory 32 gb

molecule  {
0 1
  C        0.5372180     0.4001580    -0.0000200
  C       -0.5372160    -0.4001420    -0.0000340
  C        1.9579460    -0.0793330     0.0000300
  C       -1.9579470     0.0793230     0.0000040
  H        0.3872397     1.4808589     0.0499930
  H       -0.3872320    -1.4808410    -0.0000340
  H        2.4990240     0.2830730     0.8809220
  H        2.0015130    -1.1721620     0.0000580
  H        2.4990680     0.2830330    -0.8808500
  H       -2.4990120    -0.2830470     0.8809190
  H       -2.0015450     1.1721510    -0.0000290
  H       -2.4990680    -0.2831040    -0.8808510
units angstrom
no_reorient  #important for SAPT in psi4, default
symmetry c1  #important for SAPT in psi4, default
}

set PROPERTIES_ORIGIN ["COM"]
properties('MP2/aug-cc-pvtz', properties = ['dipole'])
--------------------------------------------------------------------------

    Molecular point group: c1
  Charge       = 0
  Multiplicity = 1
  Basis Set: AUG-CC-PVTZ
    Blend: AUG-CC-PVTZ
  Basis Set: (AUG-CC-PVTZ AUX)
    Blend: AUG-CC-PVTZ-JKFIT

    Orbital Energies [Eh]
    ---------------------

    Doubly Occupied:

       1A    -11.225024     2A    -11.223364     3A    -11.218112
       4A    -11.218095     5A     -1.075268     6A     -0.982658
       7A     -0.876013     8A     -0.743325     9A     -0.605214
      10A     -0.604521    11A     -0.570151    12A     -0.553528
      13A     -0.520189    14A     -0.507653    15A     -0.481247
      16A     -0.341020

  @DF-RHF Final Energy:  -156.16805724519332

   => Energetics <=

    Nuclear Repulsion Energy =            115.7164659758973357
    One-Electron Energy =                -438.2782794300052842
    Two-Electron Energy =                 166.3937562089146240
    Total Energy =                       -156.1680572451933244
  Basis Set: (AUG-CC-PVTZ AUX)
    Blend: AUG-CC-PVTZ-RI
    Molecular point group: c1

    Geometry (in Angstrom), charge = 0, multiplicity = 1:

       Center              X                  Y                   Z               Mass
    ------------   -----------------  -----------------  -----------------  -----------------
         C            0.537218007068     0.400157400637    -0.000916859100    12.000000000000
         C           -0.537215992932    -0.400142599363    -0.000930859100    12.000000000000
         C            1.957946007068    -0.079333599363    -0.000866859100    12.000000000000
         C           -1.957946992932     0.079322400637    -0.000892859100    12.000000000000
         H            0.387239707068     1.480858300637     0.049096140900     1.007825032230
         H           -0.387231992932    -1.480841599363    -0.000930859100     1.007825032230
         H            2.499024007068     0.283072400637     0.880025140900     1.007825032230
         H            2.001513007068    -1.172162599363    -0.000838859100     1.007825032230
         H            2.499068007068     0.283032400637    -0.881746859100     1.007825032230
         H           -2.499011992932    -0.283047599363     0.880022140900     1.007825032230
         H           -2.001544992932     1.172150400637    -0.000925859100     1.007825032230
         H           -2.499067992932    -0.283104599363    -0.881747859100     1.007825032230

  Basis Set: AUG-CC-PVTZ
    Blend: AUG-CC-PVTZ
  Basis Set: (AUG-CC-PVTZ AUX)
    Blend: AUG-CC-PVTZ-JKFIT
	 Reference Energy          =    -156.1680572451933244 [Eh]
	 Singles Energy            =      -0.0000000000000000 [Eh]
	 Same-Spin Energy          =      -0.1622138279038339 [Eh]
	 Opposite-Spin Energy      =      -0.6063010624530180 [Eh]
	 Correlation Energy        =      -0.7685148903568518 [Eh]
	 Total Energy              =    -156.9365721355501648 [Eh]

	 ================> DF-SCS-MP2 Energies <==================
	-----------------------------------------------------------
	 SCS Same-Spin Scale       =       0.3333333333333333 [-]
	 SCS Opposite-Spin Scale   =       1.2000000000000000 [-]
	 SCS Same-Spin Energy      =      -0.0540712759679446 [Eh]
	 SCS Opposite-Spin Energy  =      -0.7275612749436215 [Eh]
	 SCS Correlation Energy    =      -0.7816325509115661 [Eh]
	 SCS Total Energy          =    -156.9496897961048774 [Eh]
	-----------------------------------------------------------

  Dipole Moment: [D]
     X:    -0.0006      Y:    -0.0017      Z:     0.0318     Total:     0.0319

*** Psi4 exiting successfully. Buy a developer a beer!
