                               Psi4 1.4a3.dev225

  ==> Input File <==

--------------------------------------------------------------------------
#psi4
#
memory 32 gb

molecule  {
0 1
  N        1.0119030     0.0333230     0.0008060
  N        1.6997840    -1.0566340    -0.4179730
  C       -0.4063900     0.0163860    -0.0081010
  C       -1.1124080     1.1967220    -0.2540550
  C       -1.0729400    -1.1865160     0.2388070
  C        1.8312940     1.0508850     0.4071570
  C       -2.5072630     1.1720280    -0.2304200
  C       -2.4668310    -1.1992430     0.2370020
  C        3.1464928     0.5918226     0.2353661
  C       -3.1875810    -0.0227020     0.0140150
  C        2.9917500    -0.7051290    -0.2688550
  H       -0.5788940     2.1134690    -0.4901430
  H       -0.4926250    -2.0861370     0.4161180
  H        1.4325560     1.9713960     0.8093900
  H       -3.0617120     2.0872770    -0.4220560
  H       -2.9921950    -2.1322260     0.4251330
  H        4.0379080     1.1354570     0.4652770
  H       -4.2743140    -0.0387150     0.0221240
  H        3.7631710    -1.4121260    -0.5458550
units angstrom
no_reorient  #important for SAPT in psi4, default
symmetry c1  #important for SAPT in psi4, default
}

set PROPERTIES_ORIGIN ["COM"]
properties('MP2/aug-cc-pvtz', properties = ['dipole'])
--------------------------------------------------------------------------

    Molecular point group: c1
  Charge       = 0
  Multiplicity = 1
  Basis Set: AUG-CC-PVTZ
    Blend: AUG-CC-PVTZ
  Basis Set: (AUG-CC-PVTZ AUX)
    Blend: AUG-CC-PVTZ-JKFIT

    Orbital Energies [Eh]
    ---------------------

    Doubly Occupied:

       1A    -15.653596     2A    -15.589642     3A    -11.292131
       4A    -11.285004     5A    -11.259316     6A    -11.248572
       7A    -11.247196     8A    -11.246288     9A    -11.241518
      10A    -11.241347    11A    -11.228656    12A     -1.382065
      13A     -1.175782    14A     -1.110743    15A     -1.061163
      16A     -1.024655    17A     -0.998930    18A     -0.862059
      19A     -0.847945    20A     -0.798026    21A     -0.777166
      22A     -0.742514    23A     -0.687125    24A     -0.649383
      25A     -0.639759    26A     -0.616354    27A     -0.597532
      28A     -0.595443    29A     -0.591329    30A     -0.559044
      31A     -0.520760    32A     -0.510972    33A     -0.507405
      34A     -0.463067    35A     -0.395435    36A     -0.348191
      37A     -0.345323    38A     -0.313888

  @DF-RHF Final Energy:  -454.48698875633397

   => Energetics <=

    Nuclear Repulsion Energy =            546.0492706916936640
    One-Electron Energy =               -1697.7618682233594427
    Two-Electron Energy =                 697.2256087753318070
    Total Energy =                       -454.4869887563339717
  Basis Set: (AUG-CC-PVTZ AUX)
    Blend: AUG-CC-PVTZ-RI
    Molecular point group: c1

    Geometry (in Angstrom), charge = 0, multiplicity = 1:

       Center              X                  Y                   Z               Mass
    ------------   -----------------  -----------------  -----------------  -----------------
         N            0.995366558023     0.045173182565     0.005701706069    14.003074004430
         N            1.683247558023    -1.044783817435    -0.413077293931    14.003074004430
         C           -0.422926441977     0.028236182565    -0.003205293931    12.000000000000
         C           -1.128944441977     1.208572182565    -0.249159293931    12.000000000000
         C           -1.089476441977    -1.174665817435     0.243702706069    12.000000000000
         C            1.814757558023     1.062735182565     0.412052706069    12.000000000000
         C           -2.523799441977     1.183878182565    -0.225524293931    12.000000000000
         C           -2.483367441977    -1.187392817435     0.241897706069    12.000000000000
         C            3.129956358023     0.603672782565     0.240261806069    12.000000000000
         C           -3.204117441977    -0.010851817435     0.018910706069    12.000000000000
         C            2.975213558023    -0.693278817435    -0.263959293931    12.000000000000
         H           -0.595430441977     2.125319182565    -0.485247293931     1.007825032230
         H           -0.509161441977    -2.074286817435     0.421013706069     1.007825032230
         H            1.416019558023     1.983246182565     0.814285706069     1.007825032230
         H           -3.078248441977     2.099127182565    -0.417160293931     1.007825032230
         H           -3.008731441977    -2.120375817435     0.430028706069     1.007825032230
         H            4.021371558023     1.147307182565     0.470172706069     1.007825032230
         H           -4.290850441977    -0.026864817435     0.027019706069     1.007825032230
         H            3.746634558023    -1.400275817435    -0.540959293931     1.007825032230

  Basis Set: AUG-CC-PVTZ
    Blend: AUG-CC-PVTZ
  Basis Set: (AUG-CC-PVTZ AUX)
    Blend: AUG-CC-PVTZ-JKFIT
	 Reference Energy          =    -454.4869887563339717 [Eh]
	 Singles Energy            =      -0.0000000000000000 [Eh]
	 Same-Spin Energy          =      -0.5098612245840812 [Eh]
	 Opposite-Spin Energy      =      -1.5482642422381372 [Eh]
	 Correlation Energy        =      -2.0581254668222186 [Eh]
	 Total Energy              =    -456.5451142231561903 [Eh]

	 ================> DF-SCS-MP2 Energies <==================
	-----------------------------------------------------------
	 SCS Same-Spin Scale       =       0.3333333333333333 [-]
	 SCS Opposite-Spin Scale   =       1.2000000000000000 [-]
	 SCS Same-Spin Energy      =      -0.1699537415280271 [Eh]
	 SCS Opposite-Spin Energy  =      -1.8579170906857645 [Eh]
	 SCS Correlation Energy    =      -2.0278708322137917 [Eh]
	 SCS Total Energy          =    -456.5148595885477789 [Eh]
	-----------------------------------------------------------

  Dipole Moment: [D]
     X:    -0.9248      Y:     1.6393      Z:     0.7396     Total:     2.0223

*** Psi4 exiting successfully. Buy a developer a beer!
