                               Psi4 1.3.2 release

  ==> Input File <==

--------------------------------------------------------------------------
#psi4
#
memory 32 gb

molecule  {
0 1
  N        1.0119030     0.0333230     0.0008060
  N        1.6997840    -1.0566340    -0.4179730
  C       -0.4042626     0.1083468     0.0285127
  C       -1.1124080     1.1967220    -0.2540550
  C       -1.0729400    -1.1865160     0.2388070
  C        1.8312940     1.0508850     0.4071570
  C       -2.5072630     1.1720280    -0.2304200
  C       -2.4668310    -1.1992430     0.2370020
  C        3.1277520     0.5983640     0.2378140
  C       -3.1875810    -0.0227020     0.0140150
  C        2.9917500    -0.7051290    -0.2688550
  H       -0.5788940     2.1134690    -0.4901430
  H       -0.4926250    -2.0861370     0.4161180
  H        1.4325560     1.9713960     0.8093900
  H       -3.0617120     2.0872770    -0.4220560
  H       -2.9921950    -2.1322260     0.4251330
  H        4.0379080     1.1354570     0.4652770
  H       -4.2743140    -0.0387150     0.0221240
  H        3.7631710    -1.4121260    -0.5458550
units angstrom
no_reorient  #important for SAPT in psi4, default
symmetry c1  #important for SAPT in psi4, default
}

set PROPERTIES_ORIGIN ["COM"]
properties('MP2/aug-cc-pvtz', properties = ['dipole'])
--------------------------------------------------------------------------

    Molecular point group: c1
  Charge       = 0
  Multiplicity = 1
  Basis Set: AUG-CC-PVTZ
    Blend: AUG-CC-PVTZ
  Basis Set: (AUG-CC-PVTZ AUX)
    Blend: AUG-CC-PVTZ-JKFIT

    Orbital Energies [Eh]
    ---------------------

    Doubly Occupied:

       1A    -15.652081     2A    -15.592635     3A    -11.291421
       4A    -11.280795     5A    -11.260638     6A    -11.248389
       7A    -11.247857     8A    -11.244265     9A    -11.241563
      10A    -11.240250    11A    -11.227456    12A     -1.382168
      13A     -1.177597    14A     -1.111955    15A     -1.061561
      16A     -1.028173    17A     -0.995912    18A     -0.859711
      19A     -0.849114    20A     -0.797699    21A     -0.777388
      22A     -0.741819    23A     -0.688011    24A     -0.647949
      25A     -0.640076    26A     -0.614523    27A     -0.603264
      28A     -0.592425    29A     -0.585490    30A     -0.563744
      31A     -0.523145    32A     -0.511752    33A     -0.501042
      34A     -0.462041    35A     -0.396699    36A     -0.349619
      37A     -0.347376    38A     -0.311940

  @DF-RHF Final Energy:  -454.47818502824020

   => Energetics <=

    Nuclear Repulsion Energy =            546.3143145903526374
    One-Electron Energy =               -1698.2859113193856047
    Two-Electron Energy =                 697.4934117007928762
    Total Energy =                       -454.4781850282402047
  Basis Set: (AUG-CC-PVTZ AUX)
    Blend: AUG-CC-PVTZ-RI
    Molecular point group: c1

    Geometry (in Angstrom), charge = 0, multiplicity = 1:

       Center              X                  Y                   Z               Mass
    ------------   -----------------  -----------------  -----------------  -----------------
         N            0.996750347376     0.036968582926     0.002448126055    14.003074004430
         N            1.684631347376    -1.052988417074    -0.416330873945    14.003074004430
         C           -0.419415252624     0.111992382926     0.030154826055    12.000000000000
         C           -1.127560652624     1.200367582926    -0.252412873945    12.000000000000
         C           -1.088092652624    -1.182870417074     0.240449126055    12.000000000000
         C            1.816141347376     1.054530582926     0.408799126055    12.000000000000
         C           -2.522415652624     1.175673582926    -0.228777873945    12.000000000000
         C           -2.481983652624    -1.195597417074     0.238644126055    12.000000000000
         C            3.112599347376     0.602009582926     0.239456126055    12.000000000000
         C           -3.202733652624    -0.019056417074     0.015657126055    12.000000000000
         C            2.976597347376    -0.701483417074    -0.267212873945    12.000000000000
         H           -0.594046652624     2.117114582926    -0.488500873945     1.007825032230
         H           -0.507777652624    -2.082491417074     0.417760126055     1.007825032230
         H            1.417403347376     1.975041582926     0.811032126055     1.007825032230
         H           -3.076864652624     2.090922582926    -0.420413873945     1.007825032230
         H           -3.007347652624    -2.128580417074     0.426775126055     1.007825032230
         H            4.022755347376     1.139102582926     0.466919126055     1.007825032230
         H           -4.289466652624    -0.035069417074     0.023766126055     1.007825032230
         H            3.748018347376    -1.408480417074    -0.544212873945     1.007825032230

  Basis Set: AUG-CC-PVTZ
    Blend: AUG-CC-PVTZ
  Basis Set: (AUG-CC-PVTZ AUX)
    Blend: AUG-CC-PVTZ-JKFIT
	 Reference Energy          =    -454.4781850282402047 [Eh]
	 Singles Energy            =      -0.0000000000000000 [Eh]
	 Same-Spin Energy          =      -0.5094239162106946 [Eh]
	 Opposite-Spin Energy      =      -1.5482387251195799 [Eh]
	 Correlation Energy        =      -2.0576626413302748 [Eh]
	 Total Energy              =    -456.5358476695705008 [Eh]

	 ================> DF-SCS-MP2 Energies <==================
	-----------------------------------------------------------
	 SCS Same-Spin Scale       =       0.3333333333333333 [-]
	 SCS Opposite-Spin Scale   =       1.2000000000000000 [-]
	 SCS Same-Spin Energy      =      -0.1698079720702315 [Eh]
	 SCS Opposite-Spin Energy  =      -1.8578864701434958 [Eh]
	 SCS Correlation Energy    =      -2.0276944422137273 [Eh]
	 SCS Total Energy          =    -456.5058794704539196 [Eh]
	-----------------------------------------------------------

  Dipole Moment: [D]
     X:    -0.8787      Y:     1.6532      Z:     0.7231     Total:     2.0070

*** Psi4 exiting successfully. Buy a developer a beer!
