                               Psi4 1.4a3.dev225

  ==> Input File <==

--------------------------------------------------------------------------
#psi4
#
memory 32 gb

molecule  {
0 1
  N        1.0119030     0.0333230     0.0008060
  N        1.6997840    -1.0566340    -0.4179730
  C       -0.4063900     0.0163860    -0.0081010
  C       -1.1124080     1.1967220    -0.2540550
  C       -1.0729400    -1.1865160     0.2388070
  C        1.8312940     1.0508850     0.4071570
  C       -2.5072630     1.1720280    -0.2304200
  C       -2.4668310    -1.1992430     0.2370020
  C        3.1746040     0.5820106     0.2316942
  C       -3.1875810    -0.0227020     0.0140150
  C        2.9917500    -0.7051290    -0.2688550
  H       -0.5788940     2.1134690    -0.4901430
  H       -0.4926250    -2.0861370     0.4161180
  H        1.4325560     1.9713960     0.8093900
  H       -3.0617120     2.0872770    -0.4220560
  H       -2.9921950    -2.1322260     0.4251330
  H        4.0379080     1.1354570     0.4652770
  H       -4.2743140    -0.0387150     0.0221240
  H        3.7631710    -1.4121260    -0.5458550
units angstrom
no_reorient  #important for SAPT in psi4, default
symmetry c1  #important for SAPT in psi4, default
}

set PROPERTIES_ORIGIN ["COM"]
properties('MP2/aug-cc-pvtz', properties = ['dipole'])
--------------------------------------------------------------------------

    Molecular point group: c1
  Charge       = 0
  Multiplicity = 1
  Basis Set: AUG-CC-PVTZ
    Blend: AUG-CC-PVTZ
  Basis Set: (AUG-CC-PVTZ AUX)
    Blend: AUG-CC-PVTZ-JKFIT

    Orbital Energies [Eh]
    ---------------------

    Doubly Occupied:

       1A    -15.656210     2A    -15.587985     3A    -11.292709
       4A    -11.288484     5A    -11.258937     6A    -11.249104
       7A    -11.247839     8A    -11.246741     9A    -11.242226
      10A    -11.242039    11A    -11.229561    12A     -1.381544
      13A     -1.176150    14A     -1.111315    15A     -1.057323
      16A     -1.024929    17A     -1.000044    18A     -0.864047
      19A     -0.847949    20A     -0.799224    21A     -0.776500
      22A     -0.742442    23A     -0.687635    24A     -0.649916
      25A     -0.639686    26A     -0.618626    27A     -0.599206
      28A     -0.597638    29A     -0.592264    30A     -0.551569
      31A     -0.521379    32A     -0.511186    33A     -0.508015
      34A     -0.463236    35A     -0.396177    36A     -0.348024
      37A     -0.341741    38A     -0.315195

  @DF-RHF Final Energy:  -454.48356962262579

   => Energetics <=

    Nuclear Repulsion Energy =            545.5849275464175889
    One-Electron Energy =               -1696.8074056825689695
    Two-Electron Energy =                 696.7389085135257574
    Total Energy =                       -454.4835696226257369
  Basis Set: (AUG-CC-PVTZ AUX)
    Blend: AUG-CC-PVTZ-RI
    Molecular point group: c1

    Geometry (in Angstrom), charge = 0, multiplicity = 1:

       Center              X                  Y                   Z               Mass
    ------------   -----------------  -----------------  -----------------  -----------------
         N            0.993025075890     0.045990459049     0.006007551719    14.003074004430
         N            1.680906075890    -1.043966540951    -0.412771448281    14.003074004430
         C           -0.425267924110     0.029053459049    -0.002899448281    12.000000000000
         C           -1.131285924110     1.209389459049    -0.248853448281    12.000000000000
         C           -1.091817924110    -1.173848540951     0.244008551719    12.000000000000
         C            1.812416075890     1.063552459049     0.412358551719    12.000000000000
         C           -2.526140924110     1.184695459049    -0.225218448281    12.000000000000
         C           -2.485708924110    -1.186575540951     0.242203551719    12.000000000000
         C            3.155726075890     0.594678059049     0.236895751719    12.000000000000
         C           -3.206458924110    -0.010034540951     0.019216551719    12.000000000000
         C            2.972872075890    -0.692461540951    -0.263653448281    12.000000000000
         H           -0.597771924110     2.126136459049    -0.484941448281     1.007825032230
         H           -0.511502924110    -2.073469540951     0.421319551719     1.007825032230
         H            1.413678075890     1.984063459049     0.814591551719     1.007825032230
         H           -3.080589924110     2.099944459049    -0.416854448281     1.007825032230
         H           -3.011072924110    -2.119558540951     0.430334551719     1.007825032230
         H            4.019030075890     1.148124459049     0.470478551719     1.007825032230
         H           -4.293191924110    -0.026047540951     0.027325551719     1.007825032230
         H            3.744293075890    -1.399458540951    -0.540653448281     1.007825032230

  Basis Set: AUG-CC-PVTZ
    Blend: AUG-CC-PVTZ
  Basis Set: (AUG-CC-PVTZ AUX)
    Blend: AUG-CC-PVTZ-JKFIT
	 Reference Energy          =    -454.4835696226257937 [Eh]
	 Singles Energy            =      -0.0000000000000000 [Eh]
	 Same-Spin Energy          =      -0.5101464286411068 [Eh]
	 Opposite-Spin Energy      =      -1.5488628441029562 [Eh]
	 Correlation Energy        =      -2.0590092727440630 [Eh]
	 Total Energy              =    -456.5425788953698429 [Eh]

	 ================> DF-SCS-MP2 Energies <==================
	-----------------------------------------------------------
	 SCS Same-Spin Scale       =       0.3333333333333333 [-]
	 SCS Opposite-Spin Scale   =       1.2000000000000000 [-]
	 SCS Same-Spin Energy      =      -0.1700488095470356 [Eh]
	 SCS Opposite-Spin Energy  =      -1.8586354129235474 [Eh]
	 SCS Correlation Energy    =      -2.0286842224705830 [Eh]
	 SCS Total Energy          =    -456.5122538450963816 [Eh]
	-----------------------------------------------------------

  Dipole Moment: [D]
     X:    -0.9823      Y:     1.6403      Z:     0.7404     Total:     2.0503

*** Psi4 exiting successfully. Buy a developer a beer!
