                               Psi4 1.4a3.dev225

  ==> Input File <==

--------------------------------------------------------------------------
#psi4
#
memory 32 gb

molecule  {
0 1
  N        1.0119030     0.0333230     0.0008060
  N        1.6997840    -1.0566340    -0.4179730
  C       -0.4063900     0.0163860    -0.0081010
  C       -1.1023018     1.1798262    -0.2505343
  C       -1.0729400    -1.1865160     0.2388070
  C        1.8312940     1.0508850     0.4071570
  C       -2.5072630     1.1720280    -0.2304200
  C       -2.4668310    -1.1992430     0.2370020
  C        3.1277520     0.5983640     0.2378140
  C       -3.1875810    -0.0227020     0.0140150
  C        2.9917500    -0.7051290    -0.2688550
  H       -0.5788940     2.1134690    -0.4901430
  H       -0.4926250    -2.0861370     0.4161180
  H        1.4325560     1.9713960     0.8093900
  H       -3.0617120     2.0872770    -0.4220560
  H       -2.9921950    -2.1322260     0.4251330
  H        4.0379080     1.1354570     0.4652770
  H       -4.2743140    -0.0387150     0.0221240
  H        3.7631710    -1.4121260    -0.5458550
units angstrom
no_reorient  #important for SAPT in psi4, default
symmetry c1  #important for SAPT in psi4, default
}

set PROPERTIES_ORIGIN ["COM"]
properties('MP2/aug-cc-pvtz', properties = ['dipole'])
--------------------------------------------------------------------------

    Molecular point group: c1
  Charge       = 0
  Multiplicity = 1
  Basis Set: AUG-CC-PVTZ
    Blend: AUG-CC-PVTZ
  Basis Set: (AUG-CC-PVTZ AUX)
    Blend: AUG-CC-PVTZ-JKFIT

    Orbital Energies [Eh]
    ---------------------

    Doubly Occupied:

       1A    -15.651438     2A    -15.590621     3A    -11.289650
       4A    -11.282334     5A    -11.259439     6A    -11.249001
       7A    -11.246497     8A    -11.245812     9A    -11.241282
      10A    -11.241089    11A    -11.227859    12A     -1.382360
      13A     -1.177095    14A     -1.110182    15A     -1.063720
      16A     -1.023281    17A     -0.999832    18A     -0.859771
      19A     -0.849197    20A     -0.796996    21A     -0.777995
      22A     -0.742803    23A     -0.685665    24A     -0.650033
      25A     -0.639327    26A     -0.615622    27A     -0.596321
      28A     -0.594811    29A     -0.588396    30A     -0.563335
      31A     -0.519320    32A     -0.511623    33A     -0.507528
      34A     -0.462833    35A     -0.395349    36A     -0.349475
      37A     -0.345262    38A     -0.314550

  @DF-RHF Final Energy:  -454.48771921293212

   => Energetics <=

    Nuclear Repulsion Energy =            546.6698583263386126
    One-Electron Energy =               -1699.0197467478876661
    Two-Electron Energy =                 697.8621692086170469
    Total Energy =                       -454.4877192129321202
  Basis Set: (AUG-CC-PVTZ AUX)
    Blend: AUG-CC-PVTZ-RI
    Molecular point group: c1

    Geometry (in Angstrom), charge = 0, multiplicity = 1:

       Center              X                  Y                   Z               Mass
    ------------   -----------------  -----------------  -----------------  -----------------
         N            0.996085764660     0.046035637480     0.005204560082    14.003074004430
         N            1.683966764660    -1.043921362520    -0.413574439918    14.003074004430
         C           -0.422207235340     0.029098637480    -0.003702439918    12.000000000000
         C           -1.118119035340     1.192538837480    -0.246135739918    12.000000000000
         C           -1.088757235340    -1.173803362520     0.243205560082    12.000000000000
         C            1.815476764660     1.063597637480     0.411555560082    12.000000000000
         C           -2.523080235340     1.184740637480    -0.226021439918    12.000000000000
         C           -2.482648235340    -1.186530362520     0.241400560082    12.000000000000
         C            3.111934764660     0.611076637480     0.242212560082    12.000000000000
         C           -3.203398235340    -0.009989362520     0.018413560082    12.000000000000
         C            2.975932764660    -0.692416362520    -0.264456439918    12.000000000000
         H           -0.594711235340     2.126181637480    -0.485744439918     1.007825032230
         H           -0.508442235340    -2.073424362520     0.420516560082     1.007825032230
         H            1.416738764660     1.984108637480     0.813788560082     1.007825032230
         H           -3.077529235340     2.099989637480    -0.417657439918     1.007825032230
         H           -3.008012235340    -2.119513362520     0.429531560082     1.007825032230
         H            4.022090764660     1.148169637480     0.469675560082     1.007825032230
         H           -4.290131235340    -0.026002362520     0.026522560082     1.007825032230
         H            3.747353764660    -1.399413362520    -0.541456439918     1.007825032230

  Basis Set: AUG-CC-PVTZ
    Blend: AUG-CC-PVTZ
  Basis Set: (AUG-CC-PVTZ AUX)
    Blend: AUG-CC-PVTZ-JKFIT
	 Reference Energy          =    -454.4877192129321202 [Eh]
	 Singles Energy            =      -0.0000000000000000 [Eh]
	 Same-Spin Energy          =      -0.5096582731502701 [Eh]
	 Opposite-Spin Energy      =      -1.5478805702172502 [Eh]
	 Correlation Energy        =      -2.0575388433675204 [Eh]
	 Total Energy              =    -456.5452580562996445 [Eh]

	 ================> DF-SCS-MP2 Energies <==================
	-----------------------------------------------------------
	 SCS Same-Spin Scale       =       0.3333333333333333 [-]
	 SCS Opposite-Spin Scale   =       1.2000000000000000 [-]
	 SCS Same-Spin Energy      =      -0.1698860910500900 [Eh]
	 SCS Opposite-Spin Energy  =      -1.8574566842607001 [Eh]
	 SCS Correlation Energy    =      -2.0273427753107902 [Eh]
	 SCS Total Energy          =    -456.5150619882429055 [Eh]
	-----------------------------------------------------------

  Dipole Moment: [D]
     X:    -0.9038      Y:     1.6419      Z:     0.7389     Total:     2.0146

*** Psi4 exiting successfully. Buy a developer a beer!
