                               Psi4 1.3.2 release

  ==> Input File <==

--------------------------------------------------------------------------
#psi4
#
memory 32 gb

molecule  {
0 1
  N        1.0119030     0.0333230     0.0008060
  N        1.6997840    -1.0566340    -0.4179730
  C       -0.5362726    -0.0489446     0.0077285
  C       -1.1124080     1.1967220    -0.2540550
  C       -1.0729400    -1.1865160     0.2388070
  C        1.8312940     1.0508850     0.4071570
  C       -2.5072630     1.1720280    -0.2304200
  C       -2.4668310    -1.1992430     0.2370020
  C        3.1277520     0.5983640     0.2378140
  C       -3.1875810    -0.0227020     0.0140150
  C        2.9917500    -0.7051290    -0.2688550
  H       -0.5788940     2.1134690    -0.4901430
  H       -0.4926250    -2.0861370     0.4161180
  H        1.4325560     1.9713960     0.8093900
  H       -3.0617120     2.0872770    -0.4220560
  H       -2.9921950    -2.1322260     0.4251330
  H        4.0379080     1.1354570     0.4652770
  H       -4.2743140    -0.0387150     0.0221240
  H        3.7631710    -1.4121260    -0.5458550
units angstrom
no_reorient  #important for SAPT in psi4, default
symmetry c1  #important for SAPT in psi4, default
}

set PROPERTIES_ORIGIN ["COM"]
properties('MP2/aug-cc-pvtz', properties = ['dipole'])
--------------------------------------------------------------------------

    Molecular point group: c1
  Charge       = 0
  Multiplicity = 1
  Basis Set: AUG-CC-PVTZ
    Blend: AUG-CC-PVTZ
  Basis Set: (AUG-CC-PVTZ AUX)
    Blend: AUG-CC-PVTZ-JKFIT

    Orbital Energies [Eh]
    ---------------------

    Doubly Occupied:

       1A    -15.641950     2A    -15.582218     3A    -11.291365
       4A    -11.274489     5A    -11.253401     6A    -11.252466
       7A    -11.252162     8A    -11.249997     9A    -11.245142
      10A    -11.233083    11A    -11.219771    12A     -1.362686
      13A     -1.189331    14A     -1.091715    15A     -1.058884
      16A     -1.037164    17A     -1.004301    18A     -0.858851
      19A     -0.841959    20A     -0.792060    21A     -0.772444
      22A     -0.739228    23A     -0.686933    24A     -0.654049
      25A     -0.640436    26A     -0.617519    27A     -0.599207
      28A     -0.583314    29A     -0.580444    30A     -0.556375
      31A     -0.527357    32A     -0.524437    33A     -0.503224
      34A     -0.455264    35A     -0.387179    36A     -0.355000
      37A     -0.340656    38A     -0.324458

  @DF-RHF Final Energy:  -454.46164889619433

   => Energetics <=

    Nuclear Repulsion Energy =            546.2969069078907296
    One-Electron Energy =               -1698.3560733832609912
    Two-Electron Energy =                 697.5975175791758147
    Total Energy =                       -454.4616488961943332
  Basis Set: (AUG-CC-PVTZ AUX)
    Blend: AUG-CC-PVTZ-RI
    Molecular point group: c1

    Geometry (in Angstrom), charge = 0, multiplicity = 1:

       Center              X                  Y                   Z               Mass
    ------------   -----------------  -----------------  -----------------  -----------------
         N            1.007745931214     0.050069944760     0.004179316219    14.003074004430
         N            1.695626931214    -1.039887055240    -0.414599683781    14.003074004430
         C           -0.540429668786    -0.032197655240     0.011101816219    12.000000000000
         C           -1.116565068786     1.213468944760    -0.250681683781    12.000000000000
         C           -1.077097068786    -1.169769055240     0.242180316219    12.000000000000
         C            1.827136931214     1.067631944760     0.410530316219    12.000000000000
         C           -2.511420068786     1.188774944760    -0.227046683781    12.000000000000
         C           -2.470988068786    -1.182496055240     0.240375316219    12.000000000000
         C            3.123594931214     0.615110944760     0.241187316219    12.000000000000
         C           -3.191738068786    -0.005955055240     0.017388316219    12.000000000000
         C            2.987592931214    -0.688382055240    -0.265481683781    12.000000000000
         H           -0.583051068786     2.130215944760    -0.486769683781     1.007825032230
         H           -0.496782068786    -2.069390055240     0.419491316219     1.007825032230
         H            1.428398931214     1.988142944760     0.812763316219     1.007825032230
         H           -3.065869068786     2.104023944760    -0.418682683781     1.007825032230
         H           -2.996352068786    -2.115479055240     0.428506316219     1.007825032230
         H            4.033750931214     1.152203944760     0.468650316219     1.007825032230
         H           -4.278471068786    -0.021968055240     0.025497316219     1.007825032230
         H            3.759013931214    -1.395379055240    -0.542481683781     1.007825032230

  Basis Set: AUG-CC-PVTZ
    Blend: AUG-CC-PVTZ
  Basis Set: (AUG-CC-PVTZ AUX)
    Blend: AUG-CC-PVTZ-JKFIT
	 Reference Energy          =    -454.4616488961943332 [Eh]
	 Singles Energy            =      -0.0000000000000000 [Eh]
	 Same-Spin Energy          =      -0.5098120168382647 [Eh]
	 Opposite-Spin Energy      =      -1.5487122578168728 [Eh]
	 Correlation Energy        =      -2.0585242746551375 [Eh]
	 Total Energy              =    -456.5201731708494890 [Eh]

	 ================> DF-SCS-MP2 Energies <==================
	-----------------------------------------------------------
	 SCS Same-Spin Scale       =       0.3333333333333333 [-]
	 SCS Opposite-Spin Scale   =       1.2000000000000000 [-]
	 SCS Same-Spin Energy      =      -0.1699373389460882 [Eh]
	 SCS Opposite-Spin Energy  =      -1.8584547093802473 [Eh]
	 SCS Correlation Energy    =      -2.0283920483263356 [Eh]
	 SCS Total Energy          =    -456.4900409445206719 [Eh]
	-----------------------------------------------------------

  Dipole Moment: [D]
     X:    -1.6545      Y:     1.6061      Z:     0.7502     Total:     2.4249

*** Psi4 exiting successfully. Buy a developer a beer!
