                               Psi4 1.3.2 release

  ==> Input File <==

--------------------------------------------------------------------------
#psi4
#
memory 32 gb

molecule  {
0 1
  N        1.0506402     0.0072458    -0.0091988
  N        1.6997840    -1.0566340    -0.4179730
  C       -0.4063900     0.0163860    -0.0081010
  C       -1.1124080     1.1967220    -0.2540550
  C       -1.0729400    -1.1865160     0.2388070
  C        1.8312940     1.0508850     0.4071570
  C       -2.5072630     1.1720280    -0.2304200
  C       -2.4668310    -1.1992430     0.2370020
  C        3.1277520     0.5983640     0.2378140
  C       -3.1875810    -0.0227020     0.0140150
  C        2.9917500    -0.7051290    -0.2688550
  H       -0.5788940     2.1134690    -0.4901430
  H       -0.4926250    -2.0861370     0.4161180
  H        1.4325560     1.9713960     0.8093900
  H       -3.0617120     2.0872770    -0.4220560
  H       -2.9921950    -2.1322260     0.4251330
  H        4.0379080     1.1354570     0.4652770
  H       -4.2743140    -0.0387150     0.0221240
  H        3.7631710    -1.4121260    -0.5458550
units angstrom
no_reorient  #important for SAPT in psi4, default
symmetry c1  #important for SAPT in psi4, default
}

set PROPERTIES_ORIGIN ["COM"]
properties('MP2/aug-cc-pvtz', properties = ['dipole'])
--------------------------------------------------------------------------

    Molecular point group: c1
  Charge       = 0
  Multiplicity = 1
  Basis Set: AUG-CC-PVTZ
    Blend: AUG-CC-PVTZ
  Basis Set: (AUG-CC-PVTZ AUX)
    Blend: AUG-CC-PVTZ-JKFIT

    Orbital Energies [Eh]
    ---------------------

    Doubly Occupied:

       1A    -15.654742     2A    -15.589807     3A    -11.294394
       4A    -11.277460     5A    -11.254012     6A    -11.250123
       7A    -11.248880     8A    -11.247156     9A    -11.242932
      10A    -11.242733    11A    -11.226656    12A     -1.397735
      13A     -1.173791    14A     -1.105039    15A     -1.068238
      16A     -1.025948    17A     -0.999469    18A     -0.855470
      19A     -0.847818    20A     -0.801417    21A     -0.776363
      22A     -0.743996    23A     -0.688224    24A     -0.649999
      25A     -0.639166    26A     -0.618413    27A     -0.598474
      28A     -0.596258    29A     -0.587081    30A     -0.561420
      31A     -0.519612    32A     -0.512714    33A     -0.508232
      34A     -0.465864    35A     -0.389810    36A     -0.350391
      37A     -0.347118    38A     -0.315545

  @DF-RHF Final Energy:  -454.48593337841720

   => Energetics <=

    Nuclear Repulsion Energy =            546.5101554564314483
    One-Electron Energy =               -1698.6471745548260515
    Two-Electron Energy =                 697.6510857199773454
    Total Energy =                       -454.4859333784172577
  Basis Set: (AUG-CC-PVTZ AUX)
    Blend: AUG-CC-PVTZ-RI
    Molecular point group: c1

    Geometry (in Angstrom), charge = 0, multiplicity = 1:

       Center              X                  Y                   Z               Mass
    ------------   -----------------  -----------------  -----------------  -----------------
         N            1.031899600063     0.021085755954    -0.003534550051    14.003074004430
         N            1.681043400063    -1.042794044046    -0.412308750051    14.003074004430
         C           -0.425130599937     0.030225955954    -0.002436750051    12.000000000000
         C           -1.131148599937     1.210561955954    -0.248390750051    12.000000000000
         C           -1.091680599937    -1.172676044046     0.244471249949    12.000000000000
         C            1.812553400063     1.064724955954     0.412821249949    12.000000000000
         C           -2.526003599937     1.185867955954    -0.224755750051    12.000000000000
         C           -2.485571599937    -1.185403044046     0.242666249949    12.000000000000
         C            3.109011400063     0.612203955954     0.243478249949    12.000000000000
         C           -3.206321599937    -0.008862044046     0.019679249949    12.000000000000
         C            2.973009400063    -0.691289044046    -0.263190750051    12.000000000000
         H           -0.597634599937     2.127308955954    -0.484478750051     1.007825032230
         H           -0.511365599937    -2.072297044046     0.421782249949     1.007825032230
         H            1.413815400063     1.985235955954     0.815054249949     1.007825032230
         H           -3.080452599937     2.101116955954    -0.416391750051     1.007825032230
         H           -3.010935599937    -2.118386044046     0.430797249949     1.007825032230
         H            4.019167400063     1.149296955954     0.470941249949     1.007825032230
         H           -4.293054599937    -0.024875044046     0.027788249949     1.007825032230
         H            3.744430400063    -1.398286044046    -0.540190750051     1.007825032230

  Basis Set: AUG-CC-PVTZ
    Blend: AUG-CC-PVTZ
  Basis Set: (AUG-CC-PVTZ AUX)
    Blend: AUG-CC-PVTZ-JKFIT
	 Reference Energy          =    -454.4859333784172009 [Eh]
	 Singles Energy            =      -0.0000000000000000 [Eh]
	 Same-Spin Energy          =      -0.5097674324247707 [Eh]
	 Opposite-Spin Energy      =      -1.5473305362130332 [Eh]
	 Correlation Energy        =      -2.0570979686378039 [Eh]
	 Total Energy              =    -456.5430313470549777 [Eh]

	 ================> DF-SCS-MP2 Energies <==================
	-----------------------------------------------------------
	 SCS Same-Spin Scale       =       0.3333333333333333 [-]
	 SCS Opposite-Spin Scale   =       1.2000000000000000 [-]
	 SCS Same-Spin Energy      =      -0.1699224774749236 [Eh]
	 SCS Opposite-Spin Energy  =      -1.8567966434556398 [Eh]
	 SCS Correlation Energy    =      -2.0267191209305633 [Eh]
	 SCS Total Energy          =    -456.5126524993477801 [Eh]
	-----------------------------------------------------------

  Dipole Moment: [D]
     X:    -1.0568      Y:     1.6557      Z:     0.7374     Total:     2.0981

*** Psi4 exiting successfully. Buy a developer a beer!
