                               Psi4 1.3.2 release

  ==> Input File <==

--------------------------------------------------------------------------
#psi4
#
memory 32 gb

molecule  {
0 1
  N        1.0119030     0.0333230     0.0008060
  N        1.6793024    -1.0675772    -0.4224659
  C       -0.4063900     0.0163860    -0.0081010
  C       -1.1124080     1.1967220    -0.2540550
  C       -1.0729400    -1.1865160     0.2388070
  C        1.8312940     1.0508850     0.4071570
  C       -2.5072630     1.1720280    -0.2304200
  C       -2.4668310    -1.1992430     0.2370020
  C        3.1277520     0.5983640     0.2378140
  C       -3.1875810    -0.0227020     0.0140150
  C        2.9917500    -0.7051290    -0.2688550
  H       -0.5788940     2.1134690    -0.4901430
  H       -0.4926250    -2.0861370     0.4161180
  H        1.4325560     1.9713960     0.8093900
  H       -3.0617120     2.0872770    -0.4220560
  H       -2.9921950    -2.1322260     0.4251330
  H        4.0379080     1.1354570     0.4652770
  H       -4.2743140    -0.0387150     0.0221240
  H        3.7631710    -1.4121260    -0.5458550
units angstrom
no_reorient  #important for SAPT in psi4, default
symmetry c1  #important for SAPT in psi4, default
}

set PROPERTIES_ORIGIN ["COM"]
properties('MP2/aug-cc-pvtz', properties = ['dipole'])
--------------------------------------------------------------------------

    Molecular point group: c1
  Charge       = 0
  Multiplicity = 1
  Basis Set: AUG-CC-PVTZ
    Blend: AUG-CC-PVTZ
  Basis Set: (AUG-CC-PVTZ AUX)
    Blend: AUG-CC-PVTZ-JKFIT

    Orbital Energies [Eh]
    ---------------------

    Doubly Occupied:

       1A    -15.653367     2A    -15.593423     3A    -11.291227
       4A    -11.283170     5A    -11.262225     6A    -11.248088
       7A    -11.246639     8A    -11.245841     9A    -11.240971
      10A    -11.240801    11A    -11.229491    12A     -1.380745
      13A     -1.173828    14A     -1.106666    15A     -1.065823
      16A     -1.024263    17A     -0.997549    18A     -0.860792
      19A     -0.847379    20A     -0.795915    21A     -0.778056
      22A     -0.742829    23A     -0.686594    24A     -0.648758
      25A     -0.638727    26A     -0.614868    27A     -0.596890
      28A     -0.593624    29A     -0.588074    30A     -0.562724
      31A     -0.520080    32A     -0.510250    33A     -0.506805
      34A     -0.465945    35A     -0.393458    36A     -0.349194
      37A     -0.345888    38A     -0.312856

  @DF-RHF Final Energy:  -454.48502117902001

   => Energetics <=

    Nuclear Repulsion Energy =            546.0988940464512780
    One-Electron Energy =               -1697.8801841192555457
    Two-Electron Energy =                 697.2962688937842586
    Total Energy =                       -454.4850211790200092
  Basis Set: (AUG-CC-PVTZ AUX)
    Blend: AUG-CC-PVTZ-RI
    Molecular point group: c1

    Geometry (in Angstrom), charge = 0, multiplicity = 1:

       Center              X                  Y                   Z               Mass
    ------------   -----------------  -----------------  -----------------  -----------------
         N            0.998918299582     0.045691974047     0.005934508891    14.003074004430
         N            1.666317699582    -1.055208225953    -0.417337391109    14.003074004430
         C           -0.419374700418     0.028754974047    -0.002972491109    12.000000000000
         C           -1.125392700418     1.209090974047    -0.248926491109    12.000000000000
         C           -1.085924700418    -1.174147025953     0.243935508891    12.000000000000
         C            1.818309299582     1.063253974047     0.412285508891    12.000000000000
         C           -2.520247700418     1.184396974047    -0.225291491109    12.000000000000
         C           -2.479815700418    -1.186874025953     0.242130508891    12.000000000000
         C            3.114767299582     0.610732974047     0.242942508891    12.000000000000
         C           -3.200565700418    -0.010333025953     0.019143508891    12.000000000000
         C            2.978765299582    -0.692760025953    -0.263726491109    12.000000000000
         H           -0.591878700418     2.125837974047    -0.485014491109     1.007825032230
         H           -0.505609700418    -2.073768025953     0.421246508891     1.007825032230
         H            1.419571299582     1.983764974047     0.814518508891     1.007825032230
         H           -3.074696700418     2.099645974047    -0.416927491109     1.007825032230
         H           -3.005179700418    -2.119857025953     0.430261508891     1.007825032230
         H            4.024923299582     1.147825974047     0.470405508891     1.007825032230
         H           -4.287298700418    -0.026346025953     0.027252508891     1.007825032230
         H            3.750186299582    -1.399757025953    -0.540726491109     1.007825032230

  Basis Set: AUG-CC-PVTZ
    Blend: AUG-CC-PVTZ
  Basis Set: (AUG-CC-PVTZ AUX)
    Blend: AUG-CC-PVTZ-JKFIT
	 Reference Energy          =    -454.4850211790200092 [Eh]
	 Singles Energy            =      -0.0000000000000000 [Eh]
	 Same-Spin Energy          =      -0.5103928240406361 [Eh]
	 Opposite-Spin Energy      =      -1.5493660173331276 [Eh]
	 Correlation Energy        =      -2.0597588413737640 [Eh]
	 Total Energy              =    -456.5447800203937732 [Eh]

	 ================> DF-SCS-MP2 Energies <==================
	-----------------------------------------------------------
	 SCS Same-Spin Scale       =       0.3333333333333333 [-]
	 SCS Opposite-Spin Scale   =       1.2000000000000000 [-]
	 SCS Same-Spin Energy      =      -0.1701309413468787 [Eh]
	 SCS Opposite-Spin Energy  =      -1.8592392207997530 [Eh]
	 SCS Correlation Energy    =      -2.0293701621466318 [Eh]
	 SCS Total Energy          =    -456.5143913411666290 [Eh]
	-----------------------------------------------------------

  Dipole Moment: [D]
     X:    -0.8691      Y:     1.6711      Z:     0.7527     Total:     2.0284

*** Psi4 exiting successfully. Buy a developer a beer!
