                               Psi4 1.3.2 release

  ==> Input File <==

--------------------------------------------------------------------------
#psi4
#
memory 32 gb

molecule  {
0 1
  N        1.0119030     0.0333230     0.0008060
  N        1.6997840    -1.0566340    -0.4179730
  C       -0.4063900     0.0163860    -0.0081010
  C       -1.1124080     1.1967220    -0.2540550
  C       -1.0729400    -1.1865160     0.2388070
  C        1.8312940     1.0508850     0.4071570
  C       -2.5072630     1.1720280    -0.2304200
  C       -2.4668310    -1.1992430     0.2370020
  C        3.1101382     0.5575010     0.2190470
  C       -3.1875810    -0.0227020     0.0140150
  C        2.9917500    -0.7051290    -0.2688550
  H       -0.5788940     2.1134690    -0.4901430
  H       -0.4926250    -2.0861370     0.4161180
  H        1.4325560     1.9713960     0.8093900
  H       -3.0617120     2.0872770    -0.4220560
  H       -2.9921950    -2.1322260     0.4251330
  H        4.0379080     1.1354570     0.4652770
  H       -4.2743140    -0.0387150     0.0221240
  H        3.7631710    -1.4121260    -0.5458550
units angstrom
no_reorient  #important for SAPT in psi4, default
symmetry c1  #important for SAPT in psi4, default
}

set PROPERTIES_ORIGIN ["COM"]
properties('MP2/aug-cc-pvtz', properties = ['dipole'])
--------------------------------------------------------------------------

    Molecular point group: c1
  Charge       = 0
  Multiplicity = 1
  Basis Set: AUG-CC-PVTZ
    Blend: AUG-CC-PVTZ
  Basis Set: (AUG-CC-PVTZ AUX)
    Blend: AUG-CC-PVTZ-JKFIT

    Orbital Energies [Eh]
    ---------------------

    Doubly Occupied:

       1A    -15.653547     2A    -15.588269     3A    -11.291693
       4A    -11.281074     5A    -11.253453     6A    -11.248555
       7A    -11.247204     8A    -11.246179     9A    -11.241447
      10A    -11.241254    11A    -11.225899    12A     -1.384303
      13A     -1.176844    14A     -1.112358    15A     -1.064599
      16A     -1.024673    17A     -1.000335    18A     -0.863223
      19A     -0.847634    20A     -0.794356    21A     -0.779619
      22A     -0.742304    23A     -0.686898    24A     -0.649429
      25A     -0.639706    26A     -0.613759    27A     -0.597807
      28A     -0.594290    29A     -0.588640    30A     -0.562083
      31A     -0.520298    32A     -0.511417    33A     -0.507005
      34A     -0.461907    35A     -0.398443    36A     -0.348207
      37A     -0.345256    38A     -0.315134

  @DF-RHF Final Energy:  -454.48411981563646

   => Energetics <=

    Nuclear Repulsion Energy =            547.1988334628832717
    One-Electron Energy =               -1700.0677026151865903
    Two-Electron Energy =                 698.3847493366669141
    Total Energy =                       -454.4841198156365181
  Basis Set: (AUG-CC-PVTZ AUX)
    Blend: AUG-CC-PVTZ-RI
    Molecular point group: c1

    Geometry (in Angstrom), charge = 0, multiplicity = 1:

       Center              X                  Y                   Z               Mass
    ------------   -----------------  -----------------  -----------------  -----------------
         N            0.998394662350     0.048031951069     0.007060982125    14.003074004430
         N            1.686275662350    -1.041925048931    -0.411718017875    14.003074004430
         C           -0.419898337650     0.031094951069    -0.001846017875    12.000000000000
         C           -1.125916337650     1.211430951069    -0.247800017875    12.000000000000
         C           -1.086448337650    -1.171807048931     0.245061982125    12.000000000000
         C            1.817785662350     1.065593951069     0.413411982125    12.000000000000
         C           -2.520771337650     1.186736951069    -0.224165017875    12.000000000000
         C           -2.480339337650    -1.184534048931     0.243256982125    12.000000000000
         C            3.096629862350     0.572209951069     0.225301982125    12.000000000000
         C           -3.201089337650    -0.007993048931     0.020269982125    12.000000000000
         C            2.978241662350    -0.690420048931    -0.262600017875    12.000000000000
         H           -0.592402337650     2.128177951069    -0.483888017875     1.007825032230
         H           -0.506133337650    -2.071428048931     0.422372982125     1.007825032230
         H            1.419047662350     1.986104951069     0.815644982125     1.007825032230
         H           -3.075220337650     2.101985951069    -0.415801017875     1.007825032230
         H           -3.005703337650    -2.117517048931     0.431387982125     1.007825032230
         H            4.024399662350     1.150165951069     0.471531982125     1.007825032230
         H           -4.287822337650    -0.024006048931     0.028378982125     1.007825032230
         H            3.749662662350    -1.397417048931    -0.539600017875     1.007825032230

  Basis Set: AUG-CC-PVTZ
    Blend: AUG-CC-PVTZ
  Basis Set: (AUG-CC-PVTZ AUX)
    Blend: AUG-CC-PVTZ-JKFIT
	 Reference Energy          =    -454.4841198156364612 [Eh]
	 Singles Energy            =      -0.0000000000000000 [Eh]
	 Same-Spin Energy          =      -0.5102859289750141 [Eh]
	 Opposite-Spin Energy      =      -1.5483478347539124 [Eh]
	 Correlation Energy        =      -2.0586337637289267 [Eh]
	 Total Energy              =    -456.5427535793654101 [Eh]

	 ================> DF-SCS-MP2 Energies <==================
	-----------------------------------------------------------
	 SCS Same-Spin Scale       =       0.3333333333333333 [-]
	 SCS Opposite-Spin Scale   =       1.2000000000000000 [-]
	 SCS Same-Spin Energy      =      -0.1700953096583380 [Eh]
	 SCS Opposite-Spin Energy  =      -1.8580174017046946 [Eh]
	 SCS Correlation Energy    =      -2.0281127113630326 [Eh]
	 SCS Total Energy          =    -456.5122325269994690 [Eh]
	-----------------------------------------------------------

  Dipole Moment: [D]
     X:    -0.9232      Y:     1.6405      Z:     0.7435     Total:     2.0239

*** Psi4 exiting successfully. Buy a developer a beer!
