                               Psi4 1.3.2 release

  ==> Input File <==

--------------------------------------------------------------------------
#psi4
#
memory 32 gb

molecule  {
0 1
  N        1.0119030     0.0333230     0.0008060
  N        1.6997840    -1.0566340    -0.4179730
  C       -0.4063900     0.0163860    -0.0081010
  C       -1.1124080     1.1967220    -0.2540550
  C       -1.0729400    -1.1865160     0.2388070
  C        1.8312940     1.0508850     0.4071570
  C       -2.5072630     1.1720280    -0.2304200
  C       -2.4668310    -1.1992430     0.2370020
  C        3.1277520     0.5983640     0.2378140
  C       -3.1875810    -0.0227020     0.0140150
  C        2.9917500    -0.7051290    -0.2688550
  H       -0.5788940     2.1134690    -0.4901430
  H       -0.4926250    -2.0861370     0.4161180
  H        1.3587701     2.1417352     0.8838226
  H       -3.0617120     2.0872770    -0.4220560
  H       -2.9921950    -2.1322260     0.4251330
  H        4.0379080     1.1354570     0.4652770
  H       -4.2743140    -0.0387150     0.0221240
  H        3.7631710    -1.4121260    -0.5458550
units angstrom
no_reorient  #important for SAPT in psi4, default
symmetry c1  #important for SAPT in psi4, default
}

set PROPERTIES_ORIGIN ["COM"]
properties('MP2/aug-cc-pvtz', properties = ['dipole'])
--------------------------------------------------------------------------

    Molecular point group: c1
  Charge       = 0
  Multiplicity = 1
  Basis Set: AUG-CC-PVTZ
    Blend: AUG-CC-PVTZ
  Basis Set: (AUG-CC-PVTZ AUX)
    Blend: AUG-CC-PVTZ-JKFIT

    Orbital Energies [Eh]
    ---------------------

    Doubly Occupied:

       1A    -15.653231     2A    -15.591631     3A    -11.302097
       4A    -11.291544     5A    -11.260913     6A    -11.247823
       7A    -11.246275     8A    -11.245713     9A    -11.240904
      10A    -11.240695    11A    -11.229418    12A     -1.383425
      13A     -1.175490    14A     -1.110043    15A     -1.060935
      16A     -1.024065    17A     -0.998384    18A     -0.859354
      19A     -0.847818    20A     -0.794637    21A     -0.771974
      22A     -0.722890    23A     -0.682617    24A     -0.648605
      25A     -0.639076    26A     -0.614799    27A     -0.597107
      28A     -0.594655    29A     -0.581597    30A     -0.546462
      31A     -0.520027    32A     -0.510549    33A     -0.506566
      34A     -0.462798    35A     -0.395483    36A     -0.350444
      37A     -0.346129    38A     -0.313247

  @DF-RHF Final Energy:  -454.46464062684964

   => Energetics <=

    Nuclear Repulsion Energy =            545.4717350718495936
    One-Electron Energy =               -1696.6539134972651937
    Two-Electron Energy =                 696.7175377985660134
    Total Energy =                       -454.4646406268497003
  Basis Set: (AUG-CC-PVTZ AUX)
    Blend: AUG-CC-PVTZ-RI
    Molecular point group: c1

    Geometry (in Angstrom), charge = 0, multiplicity = 1:

       Center              X                  Y                   Z               Mass
    ------------   -----------------  -----------------  -----------------  -----------------
         N            0.997443711331     0.043436727485     0.004977122571    14.003074004430
         N            1.685324711331    -1.046520272515    -0.413801877429    14.003074004430
         C           -0.420849288669     0.026499727485    -0.003929877429    12.000000000000
         C           -1.126867288669     1.206835727485    -0.249883877429    12.000000000000
         C           -1.087399288669    -1.176402272515     0.242978122571    12.000000000000
         C            1.816834711331     1.060998727485     0.411328122571    12.000000000000
         C           -2.521722288669     1.182141727485    -0.226248877429    12.000000000000
         C           -2.481290288669    -1.189129272515     0.241173122571    12.000000000000
         C            3.113292711331     0.608477727485     0.241985122571    12.000000000000
         C           -3.202040288669    -0.012588272515     0.018186122571    12.000000000000
         C            2.977290711331    -0.695015272515    -0.264683877429    12.000000000000
         H           -0.593353288669     2.123582727485    -0.485971877429     1.007825032230
         H           -0.507084288669    -2.076023272515     0.420289122571     1.007825032230
         H            1.344310811331     2.151848927485     0.887993722571     1.007825032230
         H           -3.076171288669     2.097390727485    -0.417884877429     1.007825032230
         H           -3.006654288669    -2.122112272515     0.429304122571     1.007825032230
         H            4.023448711331     1.145570727485     0.469448122571     1.007825032230
         H           -4.288773288669    -0.028601272515     0.026295122571     1.007825032230
         H            3.748711711331    -1.402012272515    -0.541683877429     1.007825032230

  Basis Set: AUG-CC-PVTZ
    Blend: AUG-CC-PVTZ
  Basis Set: (AUG-CC-PVTZ AUX)
    Blend: AUG-CC-PVTZ-JKFIT
	 Reference Energy          =    -454.4646406268496435 [Eh]
	 Singles Energy            =      -0.0000000000000000 [Eh]
	 Same-Spin Energy          =      -0.5103779030410631 [Eh]
	 Opposite-Spin Energy      =      -1.5502918026107348 [Eh]
	 Correlation Energy        =      -2.0606697056517982 [Eh]
	 Total Energy              =    -456.5253103325014195 [Eh]

	 ================> DF-SCS-MP2 Energies <==================
	-----------------------------------------------------------
	 SCS Same-Spin Scale       =       0.3333333333333333 [-]
	 SCS Opposite-Spin Scale   =       1.2000000000000000 [-]
	 SCS Same-Spin Energy      =      -0.1701259676803544 [Eh]
	 SCS Opposite-Spin Energy  =      -1.8603501631328818 [Eh]
	 SCS Correlation Energy    =      -2.0304761308132360 [Eh]
	 SCS Total Energy          =    -456.4951167576628563 [Eh]
	-----------------------------------------------------------

  Dipole Moment: [D]
     X:    -0.8738      Y:     1.6359      Z:     0.7398     Total:     1.9967

*** Psi4 exiting successfully. Buy a developer a beer!
