                               Psi4 1.3.2 release

  ==> Input File <==

--------------------------------------------------------------------------
#psi4
#
memory 32 gb

molecule  {
0 1
  N        1.0119030     0.0333230     0.0008060
  N        1.7505427    -1.1370619    -0.4488747
  C       -0.4063900     0.0163860    -0.0081010
  C       -1.1124080     1.1967220    -0.2540550
  C       -1.0729400    -1.1865160     0.2388070
  C        1.8312940     1.0508850     0.4071570
  C       -2.5072630     1.1720280    -0.2304200
  C       -2.4668310    -1.1992430     0.2370020
  C        3.1277520     0.5983640     0.2378140
  C       -3.1875810    -0.0227020     0.0140150
  C        2.9917500    -0.7051290    -0.2688550
  H       -0.5788940     2.1134690    -0.4901430
  H       -0.4926250    -2.0861370     0.4161180
  H        1.4325560     1.9713960     0.8093900
  H       -3.0617120     2.0872770    -0.4220560
  H       -2.9921950    -2.1322260     0.4251330
  H        4.0379080     1.1354570     0.4652770
  H       -4.2743140    -0.0387150     0.0221240
  H        3.7631710    -1.4121260    -0.5458550
units angstrom
no_reorient  #important for SAPT in psi4, default
symmetry c1  #important for SAPT in psi4, default
}

set PROPERTIES_ORIGIN ["COM"]
properties('MP2/aug-cc-pvtz', properties = ['dipole'])
--------------------------------------------------------------------------

    Molecular point group: c1
  Charge       = 0
  Multiplicity = 1
  Basis Set: AUG-CC-PVTZ
    Blend: AUG-CC-PVTZ
  Basis Set: (AUG-CC-PVTZ AUX)
    Blend: AUG-CC-PVTZ-JKFIT

    Orbital Energies [Eh]
    ---------------------

    Doubly Occupied:

       1A    -15.643926     2A    -15.598736     3A    -11.293511
       4A    -11.290110     5A    -11.265460     6A    -11.246624
       7A    -11.244406     8A    -11.244352     9A    -11.238521
      10A    -11.238278    11A    -11.227910    12A     -1.351681
      13A     -1.175336    14A     -1.117028    15A     -1.061275
      16A     -1.023026    17A     -0.992768    18A     -0.858299
      19A     -0.844294    20A     -0.789786    21A     -0.779446
      22A     -0.742005    23A     -0.684459    24A     -0.643992
      25A     -0.635621    26A     -0.607099    27A     -0.594823
      28A     -0.591356    29A     -0.582132    30A     -0.562264
      31A     -0.518487    32A     -0.508920    33A     -0.506452
      34A     -0.471128    35A     -0.401447    36A     -0.355058
      37A     -0.345375    38A     -0.308929

  @DF-RHF Final Energy:  -454.47819585341279

   => Energetics <=

    Nuclear Repulsion Energy =            543.9345870558070146
    One-Electron Energy =               -1693.6569229357066888
    Two-Electron Energy =                 695.2441400264868889
    Total Energy =                       -454.4781958534127853
  Basis Set: (AUG-CC-PVTZ AUX)
    Blend: AUG-CC-PVTZ-RI
    Molecular point group: c1

    Geometry (in Angstrom), charge = 0, multiplicity = 1:

       Center              X                  Y                   Z               Mass
    ------------   -----------------  -----------------  -----------------  -----------------
         N            0.991993944335     0.052445689950     0.008501369402    14.003074004430
         N            1.730633644335    -1.117939210050    -0.441179330598    14.003074004430
         C           -0.426299055665     0.035508689950    -0.000405630598    12.000000000000
         C           -1.132317055665     1.215844689950    -0.246359630598    12.000000000000
         C           -1.092849055665    -1.167393310050     0.246502369402    12.000000000000
         C            1.811384944335     1.070007689950     0.414852369402    12.000000000000
         C           -2.527172055665     1.191150689950    -0.222724630598    12.000000000000
         C           -2.486740055665    -1.180120310050     0.244697369402    12.000000000000
         C            3.107842944335     0.617486689950     0.245509369402    12.000000000000
         C           -3.207490055665    -0.003579310050     0.021710369402    12.000000000000
         C            2.971840944335    -0.686006310050    -0.261159630598    12.000000000000
         H           -0.598803055665     2.132591689950    -0.482447630598     1.007825032230
         H           -0.512534055665    -2.067014310050     0.423813369402     1.007825032230
         H            1.412646944335     1.990518689950     0.817085369402     1.007825032230
         H           -3.081621055665     2.106399689950    -0.414360630598     1.007825032230
         H           -3.012104055665    -2.113103310050     0.432828369402     1.007825032230
         H            4.017998944335     1.154579689950     0.472972369402     1.007825032230
         H           -4.294223055665    -0.019592310050     0.029819369402     1.007825032230
         H            3.743261944335    -1.393003310050    -0.538159630598     1.007825032230

  Basis Set: AUG-CC-PVTZ
    Blend: AUG-CC-PVTZ
  Basis Set: (AUG-CC-PVTZ AUX)
    Blend: AUG-CC-PVTZ-JKFIT
	 Reference Energy          =    -454.4781958534127853 [Eh]
	 Singles Energy            =      -0.0000000000000000 [Eh]
	 Same-Spin Energy          =      -0.5092163291006213 [Eh]
	 Opposite-Spin Energy      =      -1.5496307079497993 [Eh]
	 Correlation Energy        =      -2.0588470370504206 [Eh]
	 Total Energy              =    -456.5370428904632263 [Eh]

	 ================> DF-SCS-MP2 Energies <==================
	-----------------------------------------------------------
	 SCS Same-Spin Scale       =       0.3333333333333333 [-]
	 SCS Opposite-Spin Scale   =       1.2000000000000000 [-]
	 SCS Same-Spin Energy      =      -0.1697387763668738 [Eh]
	 SCS Opposite-Spin Energy  =      -1.8595568495397590 [Eh]
	 SCS Correlation Energy    =      -2.0292956259066326 [Eh]
	 SCS Total Energy          =    -456.5074914793194125 [Eh]
	-----------------------------------------------------------

  Dipole Moment: [D]
     X:    -0.7366      Y:     1.7079      Z:     0.7666     Total:     2.0117

*** Psi4 exiting successfully. Buy a developer a beer!
