                               Psi4 1.3.2 release

  ==> Input File <==

--------------------------------------------------------------------------
#psi4
#
memory 32 gb

molecule  {
0 1
  N        1.0119030     0.0333230     0.0008060
  N        1.6997840    -1.0566340    -0.4179730
  C       -0.4063900     0.0163860    -0.0081010
  C       -1.1124080     1.1967220    -0.2540550
  C       -1.0729400    -1.1865160     0.2388070
  C        1.8312940     1.0508850     0.4071570
  C       -2.5072630     1.1720280    -0.2304200
  C       -2.4668310    -1.1992430     0.2370020
  C        3.1359678     0.6190054     0.2472763
  C       -3.1875810    -0.0227020     0.0140150
  C        2.9917500    -0.7051290    -0.2688550
  H       -0.5788940     2.1134690    -0.4901430
  H       -0.4926250    -2.0861370     0.4161180
  H        1.4325560     1.9713960     0.8093900
  H       -3.0617120     2.0872770    -0.4220560
  H       -2.9921950    -2.1322260     0.4251330
  H        4.0379080     1.1354570     0.4652770
  H       -4.2743140    -0.0387150     0.0221240
  H        3.7631710    -1.4121260    -0.5458550
units angstrom
no_reorient  #important for SAPT in psi4, default
symmetry c1  #important for SAPT in psi4, default
}

set PROPERTIES_ORIGIN ["COM"]
properties('MP2/aug-cc-pvtz', properties = ['dipole'])
--------------------------------------------------------------------------

    Molecular point group: c1
  Charge       = 0
  Multiplicity = 1
  Basis Set: AUG-CC-PVTZ
    Blend: AUG-CC-PVTZ
  Basis Set: (AUG-CC-PVTZ AUX)
    Blend: AUG-CC-PVTZ-JKFIT

    Orbital Energies [Eh]
    ---------------------

    Doubly Occupied:

       1A    -15.651064     2A    -15.592023     3A    -11.291788
       4A    -11.283379     5A    -11.262575     6A    -11.248088
       7A    -11.246543     8A    -11.245904     9A    -11.240887
      10A    -11.240698    11A    -11.229169    12A     -1.381695
      13A     -1.174991    14A     -1.109569    15A     -1.063624
      16A     -1.024354    17A     -0.997227    18A     -0.859855
      19A     -0.848103    20A     -0.799014    21A     -0.776552
      22A     -0.742593    23A     -0.686789    24A     -0.649060
      25A     -0.640209    26A     -0.617013    27A     -0.597568
      28A     -0.595708    29A     -0.589389    30A     -0.561005
      31A     -0.520283    32A     -0.510560    33A     -0.506874
      34A     -0.463158    35A     -0.393470    36A     -0.351131
      37A     -0.346439    38A     -0.311999

  @DF-RHF Final Energy:  -454.48758405865800

   => Energetics <=

    Nuclear Repulsion Energy =            545.9661463383965838
    One-Electron Energy =               -1697.6067600972792206
    Two-Electron Energy =                 697.1530297002245788
    Total Energy =                       -454.4875840586580580
  Basis Set: (AUG-CC-PVTZ AUX)
    Blend: AUG-CC-PVTZ-RI
    Molecular point group: c1

    Geometry (in Angstrom), charge = 0, multiplicity = 1:

       Center              X                  Y                   Z               Mass
    ------------   -----------------  -----------------  -----------------  -----------------
         N            0.996243222820     0.042909030180     0.004709663022    14.003074004430
         N            1.684124222820    -1.047047969820    -0.414069336978    14.003074004430
         C           -0.422049777180     0.025972030180    -0.004197336978    12.000000000000
         C           -1.128067777180     1.206308030180    -0.250151336978    12.000000000000
         C           -1.088599777180    -1.176929969820     0.242710663022    12.000000000000
         C            1.815634222820     1.060471030180     0.411060663022    12.000000000000
         C           -2.522922777180     1.181614030180    -0.226516336978    12.000000000000
         C           -2.482490777180    -1.189656969820     0.240905663022    12.000000000000
         C            3.120308022820     0.628591430180     0.251179963022    12.000000000000
         C           -3.203240777180    -0.013115969820     0.017918663022    12.000000000000
         C            2.976090222820    -0.695542969820    -0.264951336978    12.000000000000
         H           -0.594553777180     2.123055030180    -0.486239336978     1.007825032230
         H           -0.508284777180    -2.076550969820     0.420021663022     1.007825032230
         H            1.416896222820     1.980982030180     0.813293663022     1.007825032230
         H           -3.077371777180     2.096863030180    -0.418152336978     1.007825032230
         H           -3.007854777180    -2.122639969820     0.429036663022     1.007825032230
         H            4.022248222820     1.145043030180     0.469180663022     1.007825032230
         H           -4.289973777180    -0.029128969820     0.026027663022     1.007825032230
         H            3.747511222820    -1.402539969820    -0.541951336978     1.007825032230

  Basis Set: AUG-CC-PVTZ
    Blend: AUG-CC-PVTZ
  Basis Set: (AUG-CC-PVTZ AUX)
    Blend: AUG-CC-PVTZ-JKFIT
	 Reference Energy          =    -454.4875840586580011 [Eh]
	 Singles Energy            =      -0.0000000000000000 [Eh]
	 Same-Spin Energy          =      -0.5094080545704069 [Eh]
	 Opposite-Spin Energy      =      -1.5478168337511491 [Eh]
	 Correlation Energy        =      -2.0572248883215560 [Eh]
	 Total Energy              =    -456.5448089469795718 [Eh]

	 ================> DF-SCS-MP2 Energies <==================
	-----------------------------------------------------------
	 SCS Same-Spin Scale       =       0.3333333333333333 [-]
	 SCS Opposite-Spin Scale   =       1.2000000000000000 [-]
	 SCS Same-Spin Energy      =      -0.1698026848568023 [Eh]
	 SCS Opposite-Spin Energy  =      -1.8573802005013789 [Eh]
	 SCS Correlation Energy    =      -2.0271828853581813 [Eh]
	 SCS Total Energy          =    -456.5147669440161735 [Eh]
	-----------------------------------------------------------

  Dipole Moment: [D]
     X:    -0.8697      Y:     1.6326      Z:     0.7347     Total:     1.9903

*** Psi4 exiting successfully. Buy a developer a beer!
