                               Psi4 1.3.2 release

  ==> Input File <==

--------------------------------------------------------------------------
#psi4
#
memory 32 gb

molecule  {
0 1
  N        1.0119030     0.0333230     0.0008060
  N        1.6997840    -1.0566340    -0.4179730
  C       -0.3647468     0.0410762    -0.0139858
  C       -1.1124080     1.1967220    -0.2540550
  C       -1.0729400    -1.1865160     0.2388070
  C        1.8312940     1.0508850     0.4071570
  C       -2.5072630     1.1720280    -0.2304200
  C       -2.4668310    -1.1992430     0.2370020
  C        3.1277520     0.5983640     0.2378140
  C       -3.1875810    -0.0227020     0.0140150
  C        2.9917500    -0.7051290    -0.2688550
  H       -0.5788940     2.1134690    -0.4901430
  H       -0.4926250    -2.0861370     0.4161180
  H        1.4325560     1.9713960     0.8093900
  H       -3.0617120     2.0872770    -0.4220560
  H       -2.9921950    -2.1322260     0.4251330
  H        4.0379080     1.1354570     0.4652770
  H       -4.2743140    -0.0387150     0.0221240
  H        3.7631710    -1.4121260    -0.5458550
units angstrom
no_reorient  #important for SAPT in psi4, default
symmetry c1  #important for SAPT in psi4, default
}

set PROPERTIES_ORIGIN ["COM"]
properties('MP2/aug-cc-pvtz', properties = ['dipole'])
--------------------------------------------------------------------------

    Molecular point group: c1
  Charge       = 0
  Multiplicity = 1
  Basis Set: AUG-CC-PVTZ
    Blend: AUG-CC-PVTZ
  Basis Set: (AUG-CC-PVTZ AUX)
    Blend: AUG-CC-PVTZ-JKFIT

    Orbital Energies [Eh]
    ---------------------

    Doubly Occupied:

       1A    -15.653986     2A    -15.593480     3A    -11.292423
       4A    -11.284894     5A    -11.262935     6A    -11.246807
       7A    -11.245181     8A    -11.244423     9A    -11.243075
      10A    -11.239467    11A    -11.230768    12A     -1.389914
      13A     -1.174950    14A     -1.115442    15A     -1.066826
      16A     -1.021050    17A     -0.994786    18A     -0.867028
      19A     -0.846797    20A     -0.798388    21A     -0.778352
      22A     -0.744126    23A     -0.686388    24A     -0.650456
      25A     -0.640942    26A     -0.616950    27A     -0.599199
      28A     -0.593308    29A     -0.588722    30A     -0.565944
      31A     -0.522310    32A     -0.506573    33A     -0.500696
      34A     -0.464800    35A     -0.398660    36A     -0.352106
      37A     -0.344916    38A     -0.307637

  @DF-RHF Final Energy:  -454.48478672160394

   => Energetics <=

    Nuclear Repulsion Energy =            546.4673600523451569
    One-Electron Energy =               -1698.5548843407148070
    Two-Electron Energy =                 697.6027375667656543
    Total Energy =                       -454.4847867216039958
  Basis Set: (AUG-CC-PVTZ AUX)
    Blend: AUG-CC-PVTZ-RI
    Molecular point group: c1

    Geometry (in Angstrom), charge = 0, multiplicity = 1:

       Center              X                  Y                   Z               Mass
    ------------   -----------------  -----------------  -----------------  -----------------
         N            0.993458935424     0.042571791184     0.005987977731    14.003074004430
         N            1.681339935424    -1.047385208816    -0.412791022269    14.003074004430
         C           -0.383190864576     0.050324991184    -0.008803822269    12.000000000000
         C           -1.130852064576     1.205970791184    -0.248873022269    12.000000000000
         C           -1.091384064576    -1.177267208816     0.243988977731    12.000000000000
         C            1.812849935424     1.060133791184     0.412338977731    12.000000000000
         C           -2.525707064576     1.181276791184    -0.225238022269    12.000000000000
         C           -2.485275064576    -1.189994208816     0.242183977731    12.000000000000
         C            3.109307935424     0.607612791184     0.242995977731    12.000000000000
         C           -3.206025064576    -0.013453208816     0.019196977731    12.000000000000
         C            2.973305935424    -0.695880208816    -0.263673022269    12.000000000000
         H           -0.597338064576     2.122717791184    -0.484961022269     1.007825032230
         H           -0.511069064576    -2.076888208816     0.421299977731     1.007825032230
         H            1.414111935424     1.980644791184     0.814571977731     1.007825032230
         H           -3.080156064576     2.096525791184    -0.416874022269     1.007825032230
         H           -3.010639064576    -2.122977208816     0.430314977731     1.007825032230
         H            4.019463935424     1.144705791184     0.470458977731     1.007825032230
         H           -4.292758064576    -0.029466208816     0.027305977731     1.007825032230
         H            3.744726935424    -1.402877208816    -0.540673022269     1.007825032230

  Basis Set: AUG-CC-PVTZ
    Blend: AUG-CC-PVTZ
  Basis Set: (AUG-CC-PVTZ AUX)
    Blend: AUG-CC-PVTZ-JKFIT
	 Reference Energy          =    -454.4847867216039390 [Eh]
	 Singles Energy            =      -0.0000000000000000 [Eh]
	 Same-Spin Energy          =      -0.5099214762426976 [Eh]
	 Opposite-Spin Energy      =      -1.5483693237640623 [Eh]
	 Correlation Energy        =      -2.0582908000067599 [Eh]
	 Total Energy              =    -456.5430775216107122 [Eh]

	 ================> DF-SCS-MP2 Energies <==================
	-----------------------------------------------------------
	 SCS Same-Spin Scale       =       0.3333333333333333 [-]
	 SCS Opposite-Spin Scale   =       1.2000000000000000 [-]
	 SCS Same-Spin Energy      =      -0.1699738254142325 [Eh]
	 SCS Opposite-Spin Energy  =      -1.8580431885168747 [Eh]
	 SCS Correlation Energy    =      -2.0280170139311071 [Eh]
	 SCS Total Energy          =    -456.5128037355350443 [Eh]
	-----------------------------------------------------------

  Dipole Moment: [D]
     X:    -0.6416      Y:     1.6405      Z:     0.7355     Total:     1.9089

*** Psi4 exiting successfully. Buy a developer a beer!
