                               Psi4 1.3.2 release

  ==> Input File <==

--------------------------------------------------------------------------
#psi4
#
memory 32 gb

molecule  {
0 1
  N        0.9019300     0.1165386     0.0394147
  N        1.6997840    -1.0566340    -0.4179730
  C       -0.4063900     0.0163860    -0.0081010
  C       -1.1124080     1.1967220    -0.2540550
  C       -1.0729400    -1.1865160     0.2388070
  C        1.8312940     1.0508850     0.4071570
  C       -2.5072630     1.1720280    -0.2304200
  C       -2.4668310    -1.1992430     0.2370020
  C        3.1277520     0.5983640     0.2378140
  C       -3.1875810    -0.0227020     0.0140150
  C        2.9917500    -0.7051290    -0.2688550
  H       -0.5788940     2.1134690    -0.4901430
  H       -0.4926250    -2.0861370     0.4161180
  H        1.4325560     1.9713960     0.8093900
  H       -3.0617120     2.0872770    -0.4220560
  H       -2.9921950    -2.1322260     0.4251330
  H        4.0379080     1.1354570     0.4652770
  H       -4.2743140    -0.0387150     0.0221240
  H        3.7631710    -1.4121260    -0.5458550
units angstrom
no_reorient  #important for SAPT in psi4, default
symmetry c1  #important for SAPT in psi4, default
}

set PROPERTIES_ORIGIN ["COM"]
properties('MP2/aug-cc-pvtz', properties = ['dipole'])
--------------------------------------------------------------------------

    Molecular point group: c1
  Charge       = 0
  Multiplicity = 1
  Basis Set: AUG-CC-PVTZ
    Blend: AUG-CC-PVTZ
  Basis Set: (AUG-CC-PVTZ AUX)
    Blend: AUG-CC-PVTZ-JKFIT

    Orbital Energies [Eh]
    ---------------------

    Doubly Occupied:

       1A    -15.644359     2A    -15.595292     3A    -11.298056
       4A    -11.283221     5A    -11.275817     6A    -11.243437
       7A    -11.242514     8A    -11.238621     9A    -11.235335
      10A    -11.234595    11A    -11.233264    12A     -1.355696
      13A     -1.184795    14A     -1.122009    15A     -1.057253
      16A     -1.020216    17A     -0.992680    18A     -0.879240
      19A     -0.847933    20A     -0.786850    21A     -0.779268
      22A     -0.740014    23A     -0.682319    24A     -0.652009
      25A     -0.644000    26A     -0.612752    27A     -0.605230
      28A     -0.593497    29A     -0.571277    30A     -0.567289
      31A     -0.519720    32A     -0.505325    33A     -0.503090
      34A     -0.449948    35A     -0.410662    36A     -0.351594
      37A     -0.343071    38A     -0.301011

  @DF-RHF Final Energy:  -454.45928540415542

   => Energetics <=

    Nuclear Repulsion Energy =            546.1831930267538837
    One-Electron Energy =               -1698.0784332580390128
    Two-Electron Energy =                 697.4359548271298763
    Total Energy =                       -454.4592854041553665
  Basis Set: (AUG-CC-PVTZ AUX)
    Blend: AUG-CC-PVTZ-RI
    Molecular point group: c1

    Geometry (in Angstrom), charge = 0, multiplicity = 1:

       Center              X                  Y                   Z               Mass
    ------------   -----------------  -----------------  -----------------  -----------------
         N            0.897643610021     0.119755605557     0.040353855532    14.003074004430
         N            1.695497610021    -1.053416994443    -0.417033844468    14.003074004430
         C           -0.410676389979     0.019603005557    -0.007161844468    12.000000000000
         C           -1.116694389979     1.199939005557    -0.253115844468    12.000000000000
         C           -1.077226389979    -1.183298994443     0.239746155532    12.000000000000
         C            1.827007610021     1.054102005557     0.408096155532    12.000000000000
         C           -2.511549389979     1.175245005557    -0.229480844468    12.000000000000
         C           -2.471117389979    -1.196025994443     0.237941155532    12.000000000000
         C            3.123465610021     0.601581005557     0.238753155532    12.000000000000
         C           -3.191867389979    -0.019484994443     0.014954155532    12.000000000000
         C            2.987463610021    -0.701911994443    -0.267915844468    12.000000000000
         H           -0.583180389979     2.116686005557    -0.489203844468     1.007825032230
         H           -0.496911389979    -2.082919994443     0.417057155532     1.007825032230
         H            1.428269610021     1.974613005557     0.810329155532     1.007825032230
         H           -3.065998389979     2.090494005557    -0.421116844468     1.007825032230
         H           -2.996481389979    -2.129008994443     0.426072155532     1.007825032230
         H            4.033621610021     1.138674005557     0.466216155532     1.007825032230
         H           -4.278600389979    -0.035497994443     0.023063155532     1.007825032230
         H            3.758884610021    -1.408908994443    -0.544915844468     1.007825032230

  Basis Set: AUG-CC-PVTZ
    Blend: AUG-CC-PVTZ
  Basis Set: (AUG-CC-PVTZ AUX)
    Blend: AUG-CC-PVTZ-JKFIT
	 Reference Energy          =    -454.4592854041554233 [Eh]
	 Singles Energy            =      -0.0000000000000000 [Eh]
	 Same-Spin Energy          =      -0.5108004202077665 [Eh]
	 Opposite-Spin Energy      =      -1.5522602204202787 [Eh]
	 Correlation Energy        =      -2.0630606406280450 [Eh]
	 Total Energy              =    -456.5223460447834896 [Eh]

	 ================> DF-SCS-MP2 Energies <==================
	-----------------------------------------------------------
	 SCS Same-Spin Scale       =       0.3333333333333333 [-]
	 SCS Opposite-Spin Scale   =       1.2000000000000000 [-]
	 SCS Same-Spin Energy      =      -0.1702668067359221 [Eh]
	 SCS Opposite-Spin Energy  =      -1.8627122645043344 [Eh]
	 SCS Correlation Energy    =      -2.0329790712402565 [Eh]
	 SCS Total Energy          =    -456.4922644753957002 [Eh]
	-----------------------------------------------------------

  Dipole Moment: [D]
     X:    -0.3589      Y:     1.5483      Z:     0.7274     Total:     1.7479

*** Psi4 exiting successfully. Buy a developer a beer!
