                               Psi4 1.3.2 release

  ==> Input File <==

--------------------------------------------------------------------------
#psi4
#
memory 32 gb

molecule  {
0 1
  N        1.0119030     0.0333230     0.0008060
  N        1.6997840    -1.0566340    -0.4179730
  C       -0.3240980     0.0664880    -0.0232167
  C       -1.1124080     1.1967220    -0.2540550
  C       -1.0729400    -1.1865160     0.2388070
  C        1.8312940     1.0508850     0.4071570
  C       -2.5072630     1.1720280    -0.2304200
  C       -2.4668310    -1.1992430     0.2370020
  C        3.1277520     0.5983640     0.2378140
  C       -3.1875810    -0.0227020     0.0140150
  C        2.9917500    -0.7051290    -0.2688550
  H       -0.5788940     2.1134690    -0.4901430
  H       -0.4926250    -2.0861370     0.4161180
  H        1.4325560     1.9713960     0.8093900
  H       -3.0617120     2.0872770    -0.4220560
  H       -2.9921950    -2.1322260     0.4251330
  H        4.0379080     1.1354570     0.4652770
  H       -4.2743140    -0.0387150     0.0221240
  H        3.7631710    -1.4121260    -0.5458550
units angstrom
no_reorient  #important for SAPT in psi4, default
symmetry c1  #important for SAPT in psi4, default
}

set PROPERTIES_ORIGIN ["COM"]
properties('MP2/aug-cc-pvtz', properties = ['dipole'])
--------------------------------------------------------------------------

    Molecular point group: c1
  Charge       = 0
  Multiplicity = 1
  Basis Set: AUG-CC-PVTZ
    Blend: AUG-CC-PVTZ
  Basis Set: (AUG-CC-PVTZ AUX)
    Blend: AUG-CC-PVTZ-JKFIT

    Orbital Energies [Eh]
    ---------------------

    Doubly Occupied:

       1A    -15.655788     2A    -15.596172     3A    -11.293257
       4A    -11.287209     5A    -11.266322     6A    -11.245586
       7A    -11.245474     8A    -11.243679     9A    -11.242103
      10A    -11.237889    11A    -11.233528    12A     -1.397958
      13A     -1.177006    14A     -1.119009    15A     -1.069876
      16A     -1.018389    17A     -0.990948    18A     -0.873834
      19A     -0.846336    20A     -0.799395    21A     -0.778431
      22A     -0.745590    23A     -0.685831    24A     -0.653150
      25A     -0.642831    26A     -0.618953    27A     -0.602255
      28A     -0.593048    29A     -0.584744    30A     -0.568041
      31A     -0.523653    32A     -0.502736    33A     -0.493803
      34A     -0.466049    35A     -0.402373    36A     -0.354738
      37A     -0.343533    38A     -0.301886

  @DF-RHF Final Energy:  -454.47549792160555

   => Energetics <=

    Nuclear Repulsion Energy =            546.6074773215988216
    One-Electron Energy =               -1698.7631487445405583
    Two-Electron Energy =                 697.6801735013362986
    Total Energy =                       -454.4754979216055517
  Basis Set: (AUG-CC-PVTZ AUX)
    Blend: AUG-CC-PVTZ-RI
    Molecular point group: c1

    Geometry (in Angstrom), charge = 0, multiplicity = 1:

       Center              X                  Y                   Z               Mass
    ------------   -----------------  -----------------  -----------------  -----------------
         N            0.990073151860     0.040455151707     0.006756852322    14.003074004430
         N            1.677954151860    -1.049501848293    -0.412022147678    14.003074004430
         C           -0.345927848140     0.073620151707    -0.017265847678    12.000000000000
         C           -1.134237848140     1.203854151707    -0.248104147678    12.000000000000
         C           -1.094769848140    -1.179383848293     0.244757852322    12.000000000000
         C            1.809464151860     1.058017151707     0.413107852322    12.000000000000
         C           -2.529092848140     1.179160151707    -0.224469147678    12.000000000000
         C           -2.488660848140    -1.192110848293     0.242952852322    12.000000000000
         C            3.105922151860     0.605496151707     0.243764852322    12.000000000000
         C           -3.209410848140    -0.015569848293     0.019965852322    12.000000000000
         C            2.969920151860    -0.697996848293    -0.262904147678    12.000000000000
         H           -0.600723848140     2.120601151707    -0.484192147678     1.007825032230
         H           -0.514454848140    -2.079004848293     0.422068852322     1.007825032230
         H            1.410726151860     1.978528151707     0.815340852322     1.007825032230
         H           -3.083541848140     2.094409151707    -0.416105147678     1.007825032230
         H           -3.014024848140    -2.125093848293     0.431083852322     1.007825032230
         H            4.016078151860     1.142589151707     0.471227852322     1.007825032230
         H           -4.296143848140    -0.031582848293     0.028074852322     1.007825032230
         H            3.741341151860    -1.404993848293    -0.539904147678     1.007825032230

  Basis Set: AUG-CC-PVTZ
    Blend: AUG-CC-PVTZ
  Basis Set: (AUG-CC-PVTZ AUX)
    Blend: AUG-CC-PVTZ-JKFIT
	 Reference Energy          =    -454.4754979216055517 [Eh]
	 Singles Energy            =      -0.0000000000000000 [Eh]
	 Same-Spin Energy          =      -0.5103028761629994 [Eh]
	 Opposite-Spin Energy      =      -1.5491922602089769 [Eh]
	 Correlation Energy        =      -2.0594951363719765 [Eh]
	 Total Energy              =    -456.5349930579775446 [Eh]

	 ================> DF-SCS-MP2 Energies <==================
	-----------------------------------------------------------
	 SCS Same-Spin Scale       =       0.3333333333333333 [-]
	 SCS Opposite-Spin Scale   =       1.2000000000000000 [-]
	 SCS Same-Spin Energy      =      -0.1701009587209998 [Eh]
	 SCS Opposite-Spin Energy  =      -1.8590307122507723 [Eh]
	 SCS Correlation Energy    =      -2.0291316709717719 [Eh]
	 SCS Total Energy          =    -456.5046295925773165 [Eh]
	-----------------------------------------------------------

  Dipole Moment: [D]
     X:    -0.4012      Y:     1.6403      Z:     0.7326     Total:     1.8407

*** Psi4 exiting successfully. Buy a developer a beer!
