                               Psi4 1.4a3.dev225

  ==> Input File <==

--------------------------------------------------------------------------
#psi4
#
memory 32 gb

molecule  {
0 1
  N        1.0119030     0.0333230     0.0008060
  N        1.6997840    -1.0566340    -0.4179730
  C       -0.4063900     0.0163860    -0.0081010
  C       -1.1124080     1.1967220    -0.2540550
  C       -1.0729400    -1.1865160     0.2388070
  C        1.8013497     1.0136987     0.3923071
  C       -2.5072630     1.1720280    -0.2304200
  C       -2.4668310    -1.1992430     0.2370020
  C        3.1277520     0.5983640     0.2378140
  C       -3.1875810    -0.0227020     0.0140150
  C        2.9917500    -0.7051290    -0.2688550
  H       -0.5788940     2.1134690    -0.4901430
  H       -0.4926250    -2.0861370     0.4161180
  H        1.4325560     1.9713960     0.8093900
  H       -3.0617120     2.0872770    -0.4220560
  H       -2.9921950    -2.1322260     0.4251330
  H        4.0379080     1.1354570     0.4652770
  H       -4.2743140    -0.0387150     0.0221240
  H        3.7631710    -1.4121260    -0.5458550
units angstrom
no_reorient  #important for SAPT in psi4, default
symmetry c1  #important for SAPT in psi4, default
}

set PROPERTIES_ORIGIN ["COM"]
properties('MP2/aug-cc-pvtz', properties = ['dipole'])
--------------------------------------------------------------------------

    Molecular point group: c1
  Charge       = 0
  Multiplicity = 1
  Basis Set: AUG-CC-PVTZ
    Blend: AUG-CC-PVTZ
  Basis Set: (AUG-CC-PVTZ AUX)
    Blend: AUG-CC-PVTZ-JKFIT

    Orbital Energies [Eh]
    ---------------------

    Doubly Occupied:

       1A    -15.653834     2A    -15.584869     3A    -11.293184
       4A    -11.281764     5A    -11.259069     6A    -11.249568
       7A    -11.248353     8A    -11.247080     9A    -11.242766
      10A    -11.242566    11A    -11.224970    12A     -1.392388
      13A     -1.177195    14A     -1.115297    15A     -1.063275
      16A     -1.025671    17A     -1.000514    18A     -0.863316
      19A     -0.849287    20A     -0.799651    21A     -0.775860
      22A     -0.742561    23A     -0.687445    24A     -0.652285
      25A     -0.640327    26A     -0.619393    27A     -0.598809
      28A     -0.597869    29A     -0.589040    30A     -0.552852
      31A     -0.522255    32A     -0.512087    33A     -0.508106
      34A     -0.460622    35A     -0.396117    36A     -0.348682
      37A     -0.345598    38A     -0.315618

  @DF-RHF Final Energy:  -454.48703914352814

   => Energetics <=

    Nuclear Repulsion Energy =            547.3897102679745785
    One-Electron Energy =               -1700.3932145927005877
    Two-Electron Energy =                 698.5164651811978729
    Total Energy =                       -454.4870391435281363
  Basis Set: (AUG-CC-PVTZ AUX)
    Blend: AUG-CC-PVTZ-RI
    Molecular point group: c1

    Geometry (in Angstrom), charge = 0, multiplicity = 1:

       Center              X                  Y                   Z               Mass
    ------------   -----------------  -----------------  -----------------  -----------------
         N            0.999421713683     0.047725705610     0.006734712892    14.003074004430
         N            1.687302713683    -1.042231294390    -0.412044287108    14.003074004430
         C           -0.418871286317     0.030788705610    -0.002172287108    12.000000000000
         C           -1.124889286317     1.211124705610    -0.248126287108    12.000000000000
         C           -1.085421286317    -1.172113294390     0.244735712892    12.000000000000
         C            1.788868413683     1.028101405610     0.398235812892    12.000000000000
         C           -2.519744286317     1.186430705610    -0.224491287108    12.000000000000
         C           -2.479312286317    -1.184840294390     0.242930712892    12.000000000000
         C            3.115270713683     0.612766705610     0.243742712892    12.000000000000
         C           -3.200062286317    -0.008299294390     0.019943712892    12.000000000000
         C            2.979268713683    -0.690726294390    -0.262926287108    12.000000000000
         H           -0.591375286317     2.127871705610    -0.484214287108     1.007825032230
         H           -0.505106286317    -2.071734294390     0.422046712892     1.007825032230
         H            1.420074713683     1.985798705610     0.815318712892     1.007825032230
         H           -3.074193286317     2.101679705610    -0.416127287108     1.007825032230
         H           -3.004676286317    -2.117823294390     0.431061712892     1.007825032230
         H            4.025426713683     1.149859705610     0.471205712892     1.007825032230
         H           -4.286795286317    -0.024312294390     0.028052712892     1.007825032230
         H            3.750689713683    -1.397723294390    -0.539926287108     1.007825032230

  Basis Set: AUG-CC-PVTZ
    Blend: AUG-CC-PVTZ
  Basis Set: (AUG-CC-PVTZ AUX)
    Blend: AUG-CC-PVTZ-JKFIT
	 Reference Energy          =    -454.4870391435281363 [Eh]
	 Singles Energy            =      -0.0000000000000000 [Eh]
	 Same-Spin Energy          =      -0.5093613409048067 [Eh]
	 Opposite-Spin Energy      =      -1.5468110141681826 [Eh]
	 Correlation Energy        =      -2.0561723550729893 [Eh]
	 Total Energy              =    -456.5432114986011243 [Eh]

	 ================> DF-SCS-MP2 Energies <==================
	-----------------------------------------------------------
	 SCS Same-Spin Scale       =       0.3333333333333333 [-]
	 SCS Opposite-Spin Scale   =       1.2000000000000000 [-]
	 SCS Same-Spin Energy      =      -0.1697871136349355 [Eh]
	 SCS Opposite-Spin Energy  =      -1.8561732170018190 [Eh]
	 SCS Correlation Energy    =      -2.0259603306367544 [Eh]
	 SCS Total Energy          =    -456.5129994741648716 [Eh]
	-----------------------------------------------------------

  Dipole Moment: [D]
     X:    -1.0233      Y:     1.6372      Z:     0.7367     Total:     2.0665

*** Psi4 exiting successfully. Buy a developer a beer!
