                               Psi4 1.3.2 release

  ==> Input File <==

--------------------------------------------------------------------------
#psi4
#
memory 32 gb

molecule  {
0 1
  N        1.0119030     0.0333230     0.0008060
  N        1.6997840    -1.0566340    -0.4179730
  C       -0.4063900     0.0163860    -0.0081010
  C       -1.1124080     1.1967220    -0.2540550
  C       -1.0729400    -1.1865160     0.2388070
  C        1.8489447     1.0927612     0.4234991
  C       -2.5072630     1.1720280    -0.2304200
  C       -2.4668310    -1.1992430     0.2370020
  C        3.1277520     0.5983640     0.2378140
  C       -3.1875810    -0.0227020     0.0140150
  C        2.9917500    -0.7051290    -0.2688550
  H       -0.5788940     2.1134690    -0.4901430
  H       -0.4926250    -2.0861370     0.4161180
  H        1.4325560     1.9713960     0.8093900
  H       -3.0617120     2.0872770    -0.4220560
  H       -2.9921950    -2.1322260     0.4251330
  H        4.0379080     1.1354570     0.4652770
  H       -4.2743140    -0.0387150     0.0221240
  H        3.7631710    -1.4121260    -0.5458550
units angstrom
no_reorient  #important for SAPT in psi4, default
symmetry c1  #important for SAPT in psi4, default
}

set PROPERTIES_ORIGIN ["COM"]
properties('MP2/aug-cc-pvtz', properties = ['dipole'])
--------------------------------------------------------------------------

    Molecular point group: c1
  Charge       = 0
  Multiplicity = 1
  Basis Set: AUG-CC-PVTZ
    Blend: AUG-CC-PVTZ
  Basis Set: (AUG-CC-PVTZ AUX)
    Blend: AUG-CC-PVTZ-JKFIT

    Orbital Energies [Eh]
    ---------------------

    Doubly Occupied:

       1A    -15.650717     2A    -15.596159     3A    -11.290313
       4A    -11.284137     5A    -11.260256     6A    -11.247245
       7A    -11.245378     8A    -11.245082     9A    -11.239635
      10A    -11.239480    11A    -11.232403    12A     -1.374494
      13A     -1.174133    14A     -1.106924    15A     -1.063206
      16A     -1.023416    17A     -0.995594    18A     -0.859456
      19A     -0.846704    20A     -0.797883    21A     -0.778366
      22A     -0.742645    23A     -0.686340    24A     -0.647387
      25A     -0.639105    26A     -0.612247    27A     -0.596691
      28A     -0.595813    29A     -0.586409    30A     -0.568653
      31A     -0.518409    32A     -0.509623    33A     -0.506067
      34A     -0.464836    35A     -0.394255    36A     -0.351130
      37A     -0.345668    38A     -0.310343

  @DF-RHF Final Energy:  -454.48286969902807

   => Energetics <=

    Nuclear Repulsion Energy =            545.3342351011195888
    One-Electron Energy =               -1696.3810060072978558
    Two-Electron Energy =                 696.5639012071501384
    Total Energy =                       -454.4828696990280150
  Basis Set: (AUG-CC-PVTZ AUX)
    Blend: AUG-CC-PVTZ-RI
    Molecular point group: c1

    Geometry (in Angstrom), charge = 0, multiplicity = 1:

       Center              X                  Y                   Z               Mass
    ------------   -----------------  -----------------  -----------------  -----------------
         N            0.995457356341     0.041140307934     0.004136619936    14.003074004430
         N            1.683338356341    -1.048816692066    -0.414642380064    14.003074004430
         C           -0.422835643659     0.024203307934    -0.004770380064    12.000000000000
         C           -1.128853643659     1.204539307934    -0.250724380064    12.000000000000
         C           -1.089385643659    -1.178698692066     0.242137619936    12.000000000000
         C            1.832499056341     1.100578507934     0.426829719936    12.000000000000
         C           -2.523708643659     1.179845307934    -0.227089380064    12.000000000000
         C           -2.483276643659    -1.191425692066     0.240332619936    12.000000000000
         C            3.111306356341     0.606181307934     0.241144619936    12.000000000000
         C           -3.204026643659    -0.014884692066     0.017345619936    12.000000000000
         C            2.975304356341    -0.697311692066    -0.265524380064    12.000000000000
         H           -0.595339643659     2.121286307934    -0.486812380064     1.007825032230
         H           -0.509070643659    -2.078319692066     0.419448619936     1.007825032230
         H            1.416110356341     1.979213307934     0.812720619936     1.007825032230
         H           -3.078157643659     2.095094307934    -0.418725380064     1.007825032230
         H           -3.008640643659    -2.124408692066     0.428463619936     1.007825032230
         H            4.021462356341     1.143274307934     0.468607619936     1.007825032230
         H           -4.290759643659    -0.030897692066     0.025454619936     1.007825032230
         H            3.746725356341    -1.404308692066    -0.542524380064     1.007825032230

  Basis Set: AUG-CC-PVTZ
    Blend: AUG-CC-PVTZ
  Basis Set: (AUG-CC-PVTZ AUX)
    Blend: AUG-CC-PVTZ-JKFIT
	 Reference Energy          =    -454.4828696990280719 [Eh]
	 Singles Energy            =      -0.0000000000000000 [Eh]
	 Same-Spin Energy          =      -0.5101489817632717 [Eh]
	 Opposite-Spin Energy      =      -1.5493632786444678 [Eh]
	 Correlation Energy        =      -2.0595122604077396 [Eh]
	 Total Energy              =    -456.5423819594358292 [Eh]

	 ================> DF-SCS-MP2 Energies <==================
	-----------------------------------------------------------
	 SCS Same-Spin Scale       =       0.3333333333333333 [-]
	 SCS Opposite-Spin Scale   =       1.2000000000000000 [-]
	 SCS Same-Spin Energy      =      -0.1700496605877572 [Eh]
	 SCS Opposite-Spin Energy  =      -1.8592359343733613 [Eh]
	 SCS Correlation Energy    =      -2.0292855949611184 [Eh]
	 SCS Total Energy          =    -456.5121552939891671 [Eh]
	-----------------------------------------------------------

  Dipole Moment: [D]
     X:    -0.7786      Y:     1.6313      Z:     0.7387     Total:     1.9527

*** Psi4 exiting successfully. Buy a developer a beer!
