                               Psi4 1.4a3.dev225

  ==> Input File <==

--------------------------------------------------------------------------
#psi4
#
memory 32 gb

molecule  {
0 1
  N        1.0119030     0.0333230     0.0008060
  N        1.6997840    -1.0566340    -0.4179730
  C       -0.4063900     0.0163860    -0.0081010
  C       -1.1124080     1.1967220    -0.2540550
  C       -1.0729400    -1.1865160     0.2388070
  C        1.8312940     1.0508850     0.4071570
  C       -2.5072630     1.1720280    -0.2304200
  C       -2.4668310    -1.1992430     0.2370020
  C        3.1277520     0.5983640     0.2378140
  C       -3.1875810    -0.0227020     0.0140150
  C        2.9917500    -0.7051290    -0.2688550
  H       -0.5788940     2.1134690    -0.4901430
  H       -0.4926250    -2.0861370     0.4161180
  H        1.4325560     1.9713960     0.8093900
  H       -3.0617120     2.0872770    -0.4220560
  H       -2.9921950    -2.1322260     0.4251330
  H        4.0210691     1.1255202     0.4610687
  H       -4.2743140    -0.0387150     0.0221240
  H        3.7631710    -1.4121260    -0.5458550
units angstrom
no_reorient  #important for SAPT in psi4, default
symmetry c1  #important for SAPT in psi4, default
}

set PROPERTIES_ORIGIN ["COM"]
properties('MP2/aug-cc-pvtz', properties = ['dipole'])
--------------------------------------------------------------------------

    Molecular point group: c1
  Charge       = 0
  Multiplicity = 1
  Basis Set: AUG-CC-PVTZ
    Blend: AUG-CC-PVTZ
  Basis Set: (AUG-CC-PVTZ AUX)
    Blend: AUG-CC-PVTZ-JKFIT

    Orbital Energies [Eh]
    ---------------------

    Doubly Occupied:

       1A    -15.651746     2A    -15.590644     3A    -11.291697
       4A    -11.282421     5A    -11.259497     6A    -11.248199
       7A    -11.246719     8A    -11.245954     9A    -11.241007
      10A    -11.240848    11A    -11.225802    12A     -1.382348
      13A     -1.175490    14A     -1.110300    15A     -1.064282
      16A     -1.024434    17A     -0.998366    18A     -0.861191
      19A     -0.848039    20A     -0.798381    21A     -0.777550
      22A     -0.743157    23A     -0.687116    24A     -0.649148
      25A     -0.640160    26A     -0.616342    27A     -0.597296
      28A     -0.595235    29A     -0.590083    30A     -0.563752
      31A     -0.520320    32A     -0.510782    33A     -0.506982
      34A     -0.462936    35A     -0.394919    36A     -0.349774
      37A     -0.346287    38A     -0.312967

  @DF-RHF Final Energy:  -454.48818177431536

   => Energetics <=

    Nuclear Repulsion Energy =            546.4687957718364260
    One-Electron Energy =               -1698.6096170901184905
    Two-Electron Energy =                 697.6526395439667567
    Total Energy =                       -454.4881817743154215
  Basis Set: (AUG-CC-PVTZ AUX)
    Blend: AUG-CC-PVTZ-RI
    Molecular point group: c1

    Geometry (in Angstrom), charge = 0, multiplicity = 1:

       Center              X                  Y                   Z               Mass
    ------------   -----------------  -----------------  -----------------  -----------------
         N            0.997045341714     0.044697838363     0.005527250677    14.003074004430
         N            1.684926341714    -1.045259161637    -0.413251749323    14.003074004430
         C           -0.421247658286     0.027760838363    -0.003379749323    12.000000000000
         C           -1.127265658286     1.208096838363    -0.249333749323    12.000000000000
         C           -1.087797658286    -1.175141161637     0.243528250677    12.000000000000
         C            1.816436341714     1.062259838363     0.411878250677    12.000000000000
         C           -2.522120658286     1.183402838363    -0.225698749323    12.000000000000
         C           -2.481688658286    -1.187868161637     0.241723250677    12.000000000000
         C            3.112894341714     0.609738838363     0.242535250677    12.000000000000
         C           -3.202438658286    -0.011327161637     0.018736250677    12.000000000000
         C            2.976892341714    -0.693754161637    -0.264133749323    12.000000000000
         H           -0.593751658286     2.124843838363    -0.485421749323     1.007825032230
         H           -0.507482658286    -2.074762161637     0.420839250677     1.007825032230
         H            1.417698341714     1.982770838363     0.814111250677     1.007825032230
         H           -3.076569658286     2.098651838363    -0.417334749323     1.007825032230
         H           -3.007052658286    -2.120851161637     0.429854250677     1.007825032230
         H            4.006211441714     1.136895038363     0.465789950677     1.007825032230
         H           -4.289171658286    -0.027340161637     0.026845250677     1.007825032230
         H            3.748313341714    -1.400751161637    -0.541133749323     1.007825032230

  Basis Set: AUG-CC-PVTZ
    Blend: AUG-CC-PVTZ
  Basis Set: (AUG-CC-PVTZ AUX)
    Blend: AUG-CC-PVTZ-JKFIT
	 Reference Energy          =    -454.4881817743153647 [Eh]
	 Singles Energy            =      -0.0000000000000000 [Eh]
	 Same-Spin Energy          =      -0.5096405127386374 [Eh]
	 Opposite-Spin Energy      =      -1.5477896260592892 [Eh]
	 Correlation Energy        =      -2.0574301387979266 [Eh]
	 Total Energy              =    -456.5456119131133050 [Eh]

	 ================> DF-SCS-MP2 Energies <==================
	-----------------------------------------------------------
	 SCS Same-Spin Scale       =       0.3333333333333333 [-]
	 SCS Opposite-Spin Scale   =       1.2000000000000000 [-]
	 SCS Same-Spin Energy      =      -0.1698801709128791 [Eh]
	 SCS Opposite-Spin Energy  =      -1.8573475512711468 [Eh]
	 SCS Correlation Energy    =      -2.0272277221840258 [Eh]
	 SCS Total Energy          =    -456.5154094964993874 [Eh]
	-----------------------------------------------------------

  Dipole Moment: [D]
     X:    -0.8837      Y:     1.6389      Z:     0.7392     Total:     2.0033

*** Psi4 exiting successfully. Buy a developer a beer!
