                               Psi4 1.3.2 release

  ==> Input File <==

--------------------------------------------------------------------------
#psi4
#
memory 32 gb

molecule  {
0 1
  N        1.0119030     0.0333230     0.0008060
  N        1.6872526    -1.0143329    -0.4016991
  C       -0.4063900     0.0163860    -0.0081010
  C       -1.1124080     1.1967220    -0.2540550
  C       -1.0729400    -1.1865160     0.2388070
  C        1.8312940     1.0508850     0.4071570
  C       -2.5072630     1.1720280    -0.2304200
  C       -2.4668310    -1.1992430     0.2370020
  C        3.1277520     0.5983640     0.2378140
  C       -3.1875810    -0.0227020     0.0140150
  C        2.9917500    -0.7051290    -0.2688550
  H       -0.5788940     2.1134690    -0.4901430
  H       -0.4926250    -2.0861370     0.4161180
  H        1.4325560     1.9713960     0.8093900
  H       -3.0617120     2.0872770    -0.4220560
  H       -2.9921950    -2.1322260     0.4251330
  H        4.0379080     1.1354570     0.4652770
  H       -4.2743140    -0.0387150     0.0221240
  H        3.7631710    -1.4121260    -0.5458550
units angstrom
no_reorient  #important for SAPT in psi4, default
symmetry c1  #important for SAPT in psi4, default
}

set PROPERTIES_ORIGIN ["COM"]
properties('MP2/aug-cc-pvtz', properties = ['dipole'])
--------------------------------------------------------------------------

    Molecular point group: c1
  Charge       = 0
  Multiplicity = 1
  Basis Set: AUG-CC-PVTZ
    Blend: AUG-CC-PVTZ
  Basis Set: (AUG-CC-PVTZ AUX)
    Blend: AUG-CC-PVTZ-JKFIT

    Orbital Energies [Eh]
    ---------------------

    Doubly Occupied:

       1A    -15.654575     2A    -15.586318     3A    -11.292624
       4A    -11.276402     5A    -11.255728     6A    -11.249144
       7A    -11.247881     8A    -11.246872     9A    -11.242441
      10A    -11.242157    11A    -11.227527    12A     -1.400954
      13A     -1.176817    14A     -1.109498    15A     -1.064899
      16A     -1.025234    17A     -1.000827    18A     -0.862533
      19A     -0.849933    20A     -0.802102    21A     -0.776203
      22A     -0.742271    23A     -0.688022    24A     -0.652774
      25A     -0.643067    26A     -0.619710    27A     -0.600190
      28A     -0.597856    29A     -0.589508    30A     -0.562845
      31A     -0.521655    32A     -0.512172    33A     -0.507559
      34A     -0.456247    35A     -0.393777    36A     -0.348901
      37A     -0.345605    38A     -0.314188

  @DF-RHF Final Energy:  -454.48870553187584

   => Energetics <=

    Nuclear Repulsion Energy =            547.6580533409534155
    One-Electron Energy =               -1700.9194887890655536
    Two-Electron Energy =                 698.7727299162361305
    Total Energy =                       -454.4887055318758939
  Basis Set: (AUG-CC-PVTZ AUX)
    Blend: AUG-CC-PVTZ-RI
    Molecular point group: c1

    Geometry (in Angstrom), charge = 0, multiplicity = 1:

       Center              X                  Y                   Z               Mass
    ------------   -----------------  -----------------  -----------------  -----------------
         N            0.998145562675     0.040516778995     0.003916034789    14.003074004430
         N            1.673495162675    -1.007139121005    -0.398589065211    14.003074004430
         C           -0.420147437325     0.023579778995    -0.004990965211    12.000000000000
         C           -1.126165437325     1.203915778995    -0.250944965211    12.000000000000
         C           -1.086697437325    -1.179322221005     0.241917034789    12.000000000000
         C            1.817536562675     1.058078778995     0.410267034789    12.000000000000
         C           -2.521020437325     1.179221778995    -0.227309965211    12.000000000000
         C           -2.480588437325    -1.192049221005     0.240112034789    12.000000000000
         C            3.113994562675     0.605557778995     0.240924034789    12.000000000000
         C           -3.201338437325    -0.015508221005     0.017125034789    12.000000000000
         C            2.977992562675    -0.697935221005    -0.265744965211    12.000000000000
         H           -0.592651437325     2.120662778995    -0.487032965211     1.007825032230
         H           -0.506382437325    -2.078943221005     0.419228034789     1.007825032230
         H            1.418798562675     1.978589778995     0.812500034789     1.007825032230
         H           -3.075469437325     2.094470778995    -0.418945965211     1.007825032230
         H           -3.005952437325    -2.125032221005     0.428243034789     1.007825032230
         H            4.024150562675     1.142650778995     0.468387034789     1.007825032230
         H           -4.288071437325    -0.031521221005     0.025234034789     1.007825032230
         H            3.749413562675    -1.404932221005    -0.542744965211     1.007825032230

  Basis Set: AUG-CC-PVTZ
    Blend: AUG-CC-PVTZ
  Basis Set: (AUG-CC-PVTZ AUX)
    Blend: AUG-CC-PVTZ-JKFIT
	 Reference Energy          =    -454.4887055318758371 [Eh]
	 Singles Energy            =      -0.0000000000000000 [Eh]
	 Same-Spin Energy          =      -0.5096055907933001 [Eh]
	 Opposite-Spin Energy      =      -1.5465642137872015 [Eh]
	 Correlation Energy        =      -2.0561698045805015 [Eh]
	 Total Energy              =    -456.5448753364563572 [Eh]

	 ================> DF-SCS-MP2 Energies <==================
	-----------------------------------------------------------
	 SCS Same-Spin Scale       =       0.3333333333333333 [-]
	 SCS Opposite-Spin Scale   =       1.2000000000000000 [-]
	 SCS Same-Spin Energy      =      -0.1698685302644334 [Eh]
	 SCS Opposite-Spin Energy  =      -1.8558770565446419 [Eh]
	 SCS Correlation Energy    =      -2.0257455868090752 [Eh]
	 SCS Total Energy          =    -456.5144511186849172 [Eh]
	-----------------------------------------------------------

  Dipole Moment: [D]
     X:    -0.9631      Y:     1.5758      Z:     0.7130     Total:     1.9796

*** Psi4 exiting successfully. Buy a developer a beer!
