                               Psi4 1.3.2 release

  ==> Input File <==

--------------------------------------------------------------------------
#psi4
#
memory 32 gb

molecule  {
0 1
  N        1.1309197    -0.0410638    -0.0276751
  N        1.6997840    -1.0566340    -0.4179730
  C       -0.4063900     0.0163860    -0.0081010
  C       -1.1124080     1.1967220    -0.2540550
  C       -1.0729400    -1.1865160     0.2388070
  C        1.8312940     1.0508850     0.4071570
  C       -2.5072630     1.1720280    -0.2304200
  C       -2.4668310    -1.1992430     0.2370020
  C        3.1277520     0.5983640     0.2378140
  C       -3.1875810    -0.0227020     0.0140150
  C        2.9917500    -0.7051290    -0.2688550
  H       -0.5788940     2.1134690    -0.4901430
  H       -0.4926250    -2.0861370     0.4161180
  H        1.4325560     1.9713960     0.8093900
  H       -3.0617120     2.0872770    -0.4220560
  H       -2.9921950    -2.1322260     0.4251330
  H        4.0379080     1.1354570     0.4652770
  H       -4.2743140    -0.0387150     0.0221240
  H        3.7631710    -1.4121260    -0.5458550
units angstrom
no_reorient  #important for SAPT in psi4, default
symmetry c1  #important for SAPT in psi4, default
}

set PROPERTIES_ORIGIN ["COM"]
properties('MP2/aug-cc-pvtz', properties = ['dipole'])
--------------------------------------------------------------------------

    Molecular point group: c1
  Charge       = 0
  Multiplicity = 1
  Basis Set: AUG-CC-PVTZ
    Blend: AUG-CC-PVTZ
  Basis Set: (AUG-CC-PVTZ AUX)
    Blend: AUG-CC-PVTZ-JKFIT

    Orbital Energies [Eh]
    ---------------------

    Doubly Occupied:

       1A    -15.661598     2A    -15.589310     3A    -11.298334
       4A    -11.267953     5A    -11.254132     6A    -11.251634
       7A    -11.249274     8A    -11.246175     9A    -11.245915
      10A    -11.243249    11A    -11.224685    12A     -1.438317
      13A     -1.171728    14A     -1.096730    15A     -1.077085
      16A     -1.028606    17A     -1.000847    18A     -0.849971
      19A     -0.844322    20A     -0.809960    21A     -0.772720
      22A     -0.747497    23A     -0.690784    24A     -0.656690
      25A     -0.638650    26A     -0.626908    27A     -0.606792
      28A     -0.600137    29A     -0.575043    30A     -0.557450
      31A     -0.517835    32A     -0.515614    33A     -0.510369
      34A     -0.466158    35A     -0.381412    36A     -0.353231
      37A     -0.349153    38A     -0.316527

  @DF-RHF Final Energy:  -454.46073978476551

   => Energetics <=

    Nuclear Repulsion Energy =            546.9580211045392844
    One-Electron Energy =               -1699.3719372667062544
    Two-Electron Energy =                 697.9531763774014053
    Total Energy =                       -454.4607397847655648
  Basis Set: (AUG-CC-PVTZ AUX)
    Blend: AUG-CC-PVTZ-RI
    Molecular point group: c1

    Geometry (in Angstrom), charge = 0, multiplicity = 1:

       Center              X                  Y                   Z               Mass
    ------------   -----------------  -----------------  -----------------  -----------------
         N            1.104376160195    -0.022528287848    -0.020215006058    14.003074004430
         N            1.673240460195    -1.038098487848    -0.410512906058    14.003074004430
         C           -0.432933539805     0.034921512152    -0.000640906058    12.000000000000
         C           -1.138951539805     1.215257512152    -0.246594906058    12.000000000000
         C           -1.099483539805    -1.167980487848     0.246267093942    12.000000000000
         C            1.804750460195     1.069420512152     0.414617093942    12.000000000000
         C           -2.533806539805     1.190563512152    -0.222959906058    12.000000000000
         C           -2.493374539805    -1.180707487848     0.244462093942    12.000000000000
         C            3.101208460195     0.616899512152     0.245274093942    12.000000000000
         C           -3.214124539805    -0.004166487848     0.021475093942    12.000000000000
         C            2.965206460195    -0.686593487848    -0.261394906058    12.000000000000
         H           -0.605437539805     2.132004512152    -0.482682906058     1.007825032230
         H           -0.519168539805    -2.067601487848     0.423578093942     1.007825032230
         H            1.406012460195     1.989931512152     0.816850093942     1.007825032230
         H           -3.088255539805     2.105812512152    -0.414595906058     1.007825032230
         H           -3.018738539805    -2.113690487848     0.432593093942     1.007825032230
         H            4.011364460195     1.153992512152     0.472737093942     1.007825032230
         H           -4.300857539805    -0.020179487848     0.029584093942     1.007825032230
         H            3.736627460195    -1.393590487848    -0.538394906058     1.007825032230

  Basis Set: AUG-CC-PVTZ
    Blend: AUG-CC-PVTZ
  Basis Set: (AUG-CC-PVTZ AUX)
    Blend: AUG-CC-PVTZ-JKFIT
	 Reference Energy          =    -454.4607397847655079 [Eh]
	 Singles Energy            =      -0.0000000000000000 [Eh]
	 Same-Spin Energy          =      -0.5104985929664625 [Eh]
	 Opposite-Spin Energy      =      -1.5474168046259176 [Eh]
	 Correlation Energy        =      -2.0579153975923798 [Eh]
	 Total Energy              =    -456.5186551823578611 [Eh]

	 ================> DF-SCS-MP2 Energies <==================
	-----------------------------------------------------------
	 SCS Same-Spin Scale       =       0.3333333333333333 [-]
	 SCS Opposite-Spin Scale   =       1.2000000000000000 [-]
	 SCS Same-Spin Energy      =      -0.1701661976554875 [Eh]
	 SCS Opposite-Spin Energy  =      -1.8569001655511010 [Eh]
	 SCS Correlation Energy    =      -2.0270663632065884 [Eh]
	 SCS Total Energy          =    -456.4878061479720941 [Eh]
	-----------------------------------------------------------

  Dipole Moment: [D]
     X:    -1.3399      Y:     1.6636      Z:     0.7245     Total:     2.2556

*** Psi4 exiting successfully. Buy a developer a beer!
