                               Psi4 1.3.2 release

  ==> Input File <==

--------------------------------------------------------------------------
#psi4
#
memory 32 gb

molecule  {
0 1
  N        1.0119030     0.0333230     0.0008060
  N        1.6997840    -1.0566340    -0.4179730
  C       -0.4063900     0.0163860    -0.0081010
  C       -1.1124080     1.1967220    -0.2540550
  C       -1.0729400    -1.1865160     0.2388070
  C        1.8888968     1.1746562     0.4554849
  C       -2.5072630     1.1720280    -0.2304200
  C       -2.4668310    -1.1992430     0.2370020
  C        3.1277520     0.5983640     0.2378140
  C       -3.1875810    -0.0227020     0.0140150
  C        2.9917500    -0.7051290    -0.2688550
  H       -0.5788940     2.1134690    -0.4901430
  H       -0.4926250    -2.0861370     0.4161180
  H        1.4325560     1.9713960     0.8093900
  H       -3.0617120     2.0872770    -0.4220560
  H       -2.9921950    -2.1322260     0.4251330
  H        4.0379080     1.1354570     0.4652770
  H       -4.2743140    -0.0387150     0.0221240
  H        3.7631710    -1.4121260    -0.5458550
units angstrom
no_reorient  #important for SAPT in psi4, default
symmetry c1  #important for SAPT in psi4, default
}

set PROPERTIES_ORIGIN ["COM"]
properties('MP2/aug-cc-pvtz', properties = ['dipole'])
--------------------------------------------------------------------------

    Molecular point group: c1
  Charge       = 0
  Multiplicity = 1
  Basis Set: AUG-CC-PVTZ
    Blend: AUG-CC-PVTZ
  Basis Set: (AUG-CC-PVTZ AUX)
    Blend: AUG-CC-PVTZ-JKFIT

    Orbital Energies [Eh]
    ---------------------

    Doubly Occupied:

       1A    -15.647066     2A    -15.606570     3A    -11.288115
       4A    -11.287524     5A    -11.261500     6A    -11.245436
       7A    -11.243360     8A    -11.242678     9A    -11.241935
      10A    -11.237065    11A    -11.236814    12A     -1.362294
      13A     -1.171600    14A     -1.101437    15A     -1.062517
      16A     -1.021491    17A     -0.990851    18A     -0.860321
      19A     -0.844477    20A     -0.806496    21A     -0.775224
      22A     -0.739087    23A     -0.685680    24A     -0.648790
      25A     -0.637646    26A     -0.613236    27A     -0.601201
      28A     -0.594337    29A     -0.581886    30A     -0.563429
      31A     -0.514299    32A     -0.507313    33A     -0.504396
      34A     -0.466699    35A     -0.393986    36A     -0.354159
      37A     -0.344104    38A     -0.304745

  @DF-RHF Final Energy:  -454.45770504613796

   => Energetics <=

    Nuclear Repulsion Energy =            543.3752702790197873
    One-Electron Energy =               -1692.4864228214682953
    Two-Electron Energy =                 694.6534474963104913
    Total Energy =                       -454.4577050461380168
  Basis Set: (AUG-CC-PVTZ AUX)
    Blend: AUG-CC-PVTZ-RI
    Molecular point group: c1

    Geometry (in Angstrom), charge = 0, multiplicity = 1:

       Center              X                  Y                   Z               Mass
    ------------   -----------------  -----------------  -----------------  -----------------
         N            0.992129603405     0.034318981228     0.001472408547    14.003074004430
         N            1.680010603405    -1.055638018772    -0.417306591453    14.003074004430
         C           -0.426163396595     0.017381981228    -0.007434591453    12.000000000000
         C           -1.132181396595     1.197717981228    -0.253388591453    12.000000000000
         C           -1.092713396595    -1.185520018772     0.239473408547    12.000000000000
         C            1.869123403405     1.175652181228     0.456151308547    12.000000000000
         C           -2.527036396595     1.173023981228    -0.229753591453    12.000000000000
         C           -2.486604396595    -1.198247018772     0.237668408547    12.000000000000
         C            3.107978603405     0.599359981228     0.238480408547    12.000000000000
         C           -3.207354396595    -0.021706018772     0.014681408547    12.000000000000
         C            2.971976603405    -0.704133018772    -0.268188591453    12.000000000000
         H           -0.598667396595     2.114464981228    -0.489476591453     1.007825032230
         H           -0.512398396595    -2.085141018772     0.416784408547     1.007825032230
         H            1.412782603405     1.972391981228     0.810056408547     1.007825032230
         H           -3.081485396595     2.088272981228    -0.421389591453     1.007825032230
         H           -3.011968396595    -2.131230018772     0.425799408547     1.007825032230
         H            4.018134603405     1.136452981228     0.465943408547     1.007825032230
         H           -4.294087396595    -0.037719018772     0.022790408547     1.007825032230
         H            3.743397603405    -1.411130018772    -0.545188591453     1.007825032230

  Basis Set: AUG-CC-PVTZ
    Blend: AUG-CC-PVTZ
  Basis Set: (AUG-CC-PVTZ AUX)
    Blend: AUG-CC-PVTZ-JKFIT
	 Reference Energy          =    -454.4577050461379599 [Eh]
	 Singles Energy            =      -0.0000000000000000 [Eh]
	 Same-Spin Energy          =      -0.5112943572580954 [Eh]
	 Opposite-Spin Energy      =      -1.5528358687251282 [Eh]
	 Correlation Energy        =      -2.0641302259832237 [Eh]
	 Total Energy              =    -456.5218352721211659 [Eh]

	 ================> DF-SCS-MP2 Energies <==================
	-----------------------------------------------------------
	 SCS Same-Spin Scale       =       0.3333333333333333 [-]
	 SCS Opposite-Spin Scale   =       1.2000000000000000 [-]
	 SCS Same-Spin Energy      =      -0.1704314524193651 [Eh]
	 SCS Opposite-Spin Energy  =      -1.8634030424701538 [Eh]
	 SCS Correlation Energy    =      -2.0338344948895188 [Eh]
	 SCS Total Energy          =    -456.4915395410274641 [Eh]
	-----------------------------------------------------------

  Dipole Moment: [D]
     X:    -0.5764      Y:     1.6185      Z:     0.7389     Total:     1.8702

*** Psi4 exiting successfully. Buy a developer a beer!
