                               Psi4 1.4a3.dev225

  ==> Input File <==

--------------------------------------------------------------------------
#psi4
#
memory 32 gb

molecule  {
0 1
  N        1.0119030     0.0333230     0.0008060
  N        1.6997840    -1.0566340    -0.4179730
  C       -0.4063900     0.0163860    -0.0081010
  C       -1.1124080     1.1967220    -0.2540550
  C       -1.0729400    -1.1865160     0.2388070
  C        1.8312940     1.0508850     0.4071570
  C       -2.5072630     1.1720280    -0.2304200
  C       -2.4668310    -1.1992430     0.2370020
  C        3.1277520     0.5983640     0.2378140
  C       -3.1875810    -0.0227020     0.0140150
  C        2.9917500    -0.7051290    -0.2688550
  H       -0.5788940     2.1134690    -0.4901430
  H       -0.4926250    -2.0861370     0.4161180
  H        1.4325560     1.9713960     0.8093900
  H       -3.0617120     2.0872770    -0.4220560
  H       -2.9921950    -2.1322260     0.4251330
  H        4.0379080     1.1354570     0.4652770
  H       -4.2743140    -0.0387150     0.0221240
  H        3.7489176    -1.3990629    -0.5407369
units angstrom
no_reorient  #important for SAPT in psi4, default
symmetry c1  #important for SAPT in psi4, default
}

set PROPERTIES_ORIGIN ["COM"]
properties('MP2/aug-cc-pvtz', properties = ['dipole'])
--------------------------------------------------------------------------

    Molecular point group: c1
  Charge       = 0
  Multiplicity = 1
  Basis Set: AUG-CC-PVTZ
    Blend: AUG-CC-PVTZ
  Basis Set: (AUG-CC-PVTZ AUX)
    Blend: AUG-CC-PVTZ-JKFIT

    Orbital Energies [Eh]
    ---------------------

    Doubly Occupied:

       1A    -15.651750     2A    -15.590663     3A    -11.291696
       4A    -11.282428     5A    -11.257387     6A    -11.248198
       7A    -11.246716     8A    -11.245959     9A    -11.241014
      10A    -11.240853    11A    -11.227901    12A     -1.382353
      13A     -1.175537    14A     -1.110523    15A     -1.063864
      16A     -1.024420    17A     -0.998429    18A     -0.861194
      19A     -0.848316    20A     -0.798433    21A     -0.778218
      22A     -0.742710    23A     -0.687102    24A     -0.649312
      25A     -0.640302    26A     -0.615585    27A     -0.597624
      28A     -0.594774    29A     -0.588661    30A     -0.565537
      31A     -0.520313    32A     -0.510806    33A     -0.506943
      34A     -0.462977    35A     -0.394926    36A     -0.349760
      37A     -0.346287    38A     -0.312971

  @DF-RHF Final Energy:  -454.48817524122649

   => Energetics <=

    Nuclear Repulsion Energy =            546.4706191767598966
    One-Electron Energy =               -1698.6127071286207411
    Two-Electron Energy =                 697.6539127106344722
    Total Energy =                       -454.4881752412264859
  Basis Set: (AUG-CC-PVTZ AUX)
    Blend: AUG-CC-PVTZ-RI
    Molecular point group: c1

    Geometry (in Angstrom), charge = 0, multiplicity = 1:

       Center              X                  Y                   Z               Mass
    ------------   -----------------  -----------------  -----------------  -----------------
         N            0.997027254990     0.044536943823     0.005462008357    14.003074004430
         N            1.684908254990    -1.045420056177    -0.413316991643    14.003074004430
         C           -0.421265745010     0.027599943823    -0.003444991643    12.000000000000
         C           -1.127283745010     1.207935943823    -0.249398991643    12.000000000000
         C           -1.087815745010    -1.175302056177     0.243463008357    12.000000000000
         C            1.816418254990     1.062098943823     0.411813008357    12.000000000000
         C           -2.522138745010     1.183241943823    -0.225763991643    12.000000000000
         C           -2.481706745010    -1.188029056177     0.241658008357    12.000000000000
         C            3.112876254990     0.609577943823     0.242470008357    12.000000000000
         C           -3.202456745010    -0.011488056177     0.018671008357    12.000000000000
         C            2.976874254990    -0.693915056177    -0.264198991643    12.000000000000
         H           -0.593769745010     2.124682943823    -0.485486991643     1.007825032230
         H           -0.507500745010    -2.074923056177     0.420774008357     1.007825032230
         H            1.417680254990     1.982609943823     0.814046008357     1.007825032230
         H           -3.076587745010     2.098490943823    -0.417399991643     1.007825032230
         H           -3.007070745010    -2.121012056177     0.429789008357     1.007825032230
         H            4.023032254990     1.146670943823     0.469933008357     1.007825032230
         H           -4.289189745010    -0.027501056177     0.026780008357     1.007825032230
         H            3.734041854990    -1.387848956177    -0.536080891643     1.007825032230

  Basis Set: AUG-CC-PVTZ
    Blend: AUG-CC-PVTZ
  Basis Set: (AUG-CC-PVTZ AUX)
    Blend: AUG-CC-PVTZ-JKFIT
	 Reference Energy          =    -454.4881752412264859 [Eh]
	 Singles Energy            =      -0.0000000000000000 [Eh]
	 Same-Spin Energy          =      -0.5096413935276287 [Eh]
	 Opposite-Spin Energy      =      -1.5477928200802118 [Eh]
	 Correlation Energy        =      -2.0574342136078405 [Eh]
	 Total Energy              =    -456.5456094548343344 [Eh]

	 ================> DF-SCS-MP2 Energies <==================
	-----------------------------------------------------------
	 SCS Same-Spin Scale       =       0.3333333333333333 [-]
	 SCS Opposite-Spin Scale   =       1.2000000000000000 [-]
	 SCS Same-Spin Energy      =      -0.1698804645092096 [Eh]
	 SCS Opposite-Spin Energy  =      -1.8573513840962541 [Eh]
	 SCS Correlation Energy    =      -2.0272318486054637 [Eh]
	 SCS Total Energy          =    -456.5154070898319674 [Eh]
	-----------------------------------------------------------

  Dipole Moment: [D]
     X:    -0.8827      Y:     1.6373      Z:     0.7385     Total:     2.0014

*** Psi4 exiting successfully. Buy a developer a beer!
