                               Psi4 1.3.2 release

  ==> Input File <==

--------------------------------------------------------------------------
#psi4
#
memory 32 gb

molecule  {
0 1
  N        1.0119030     0.0333230     0.0008060
  N        1.6997840    -1.0566340    -0.4179730
  C       -0.4275165     0.0047501    -0.0045065
  C       -1.1124080     1.1967220    -0.2540550
  C       -1.0729400    -1.1865160     0.2388070
  C        1.8312940     1.0508850     0.4071570
  C       -2.5072630     1.1720280    -0.2304200
  C       -2.4668310    -1.1992430     0.2370020
  C        3.1277520     0.5983640     0.2378140
  C       -3.1875810    -0.0227020     0.0140150
  C        2.9917500    -0.7051290    -0.2688550
  H       -0.5788940     2.1134690    -0.4901430
  H       -0.4926250    -2.0861370     0.4161180
  H        1.4325560     1.9713960     0.8093900
  H       -3.0617120     2.0872770    -0.4220560
  H       -2.9921950    -2.1322260     0.4251330
  H        4.0379080     1.1354570     0.4652770
  H       -4.2743140    -0.0387150     0.0221240
  H        3.7631710    -1.4121260    -0.5458550
units angstrom
no_reorient  #important for SAPT in psi4, default
symmetry c1  #important for SAPT in psi4, default
}

set PROPERTIES_ORIGIN ["COM"]
properties('MP2/aug-cc-pvtz', properties = ['dipole'])
--------------------------------------------------------------------------

    Molecular point group: c1
  Charge       = 0
  Multiplicity = 1
  Basis Set: AUG-CC-PVTZ
    Blend: AUG-CC-PVTZ
  Basis Set: (AUG-CC-PVTZ AUX)
    Blend: AUG-CC-PVTZ-JKFIT

    Orbital Energies [Eh]
    ---------------------

    Doubly Occupied:

       1A    -15.650588     2A    -15.589399     3A    -11.291476
       4A    -11.281325     5A    -11.258040     6A    -11.248975
       7A    -11.247569     8A    -11.246925     9A    -11.241649
      10A    -11.239703    11A    -11.226722    12A     -1.378928
      13A     -1.176703    14A     -1.107441    15A     -1.062650
      16A     -1.026436    17A     -0.999635    18A     -0.858039
      19A     -0.848568    20A     -0.796679    21A     -0.777009
      22A     -0.741893    23A     -0.686922    24A     -0.648957
      25A     -0.639584    26A     -0.614896    27A     -0.598741
      28A     -0.592505    29A     -0.587976    30A     -0.562552
      31A     -0.519259    32A     -0.513047    33A     -0.509575
      34A     -0.461833    35A     -0.393253    36A     -0.349401
      37A     -0.346506    38A     -0.315472

  @DF-RHF Final Energy:  -454.48744136213026

   => Energetics <=

    Nuclear Repulsion Energy =            546.3274215086935328
    One-Electron Energy =               -1698.3560683032242196
    Two-Electron Energy =                 697.5412054324003748
    Total Energy =                       -454.4874413621303120
  Basis Set: (AUG-CC-PVTZ AUX)
    Blend: AUG-CC-PVTZ-RI
    Molecular point group: c1

    Geometry (in Angstrom), charge = 0, multiplicity = 1:

       Center              X                  Y                   Z               Mass
    ------------   -----------------  -----------------  -----------------  -----------------
         N            0.998687247664     0.045597521644     0.005198413017    14.003074004430
         N            1.686568247664    -1.044359478356    -0.413580586983    14.003074004430
         C           -0.440732252336     0.017024621644    -0.000114086983    12.000000000000
         C           -1.125623752336     1.208996521644    -0.249662586983    12.000000000000
         C           -1.086155752336    -1.174241478356     0.243199413017    12.000000000000
         C            1.818078247664     1.063159521644     0.411549413017    12.000000000000
         C           -2.520478752336     1.184302521644    -0.226027586983    12.000000000000
         C           -2.480046752336    -1.186968478356     0.241394413017    12.000000000000
         C            3.114536247664     0.610638521644     0.242206413017    12.000000000000
         C           -3.200796752336    -0.010427478356     0.018407413017    12.000000000000
         C            2.978534247664    -0.692854478356    -0.264462586983    12.000000000000
         H           -0.592109752336     2.125743521644    -0.485750586983     1.007825032230
         H           -0.505840752336    -2.073862478356     0.420510413017     1.007825032230
         H            1.419340247664     1.983670521644     0.813782413017     1.007825032230
         H           -3.074927752336     2.099551521644    -0.417663586983     1.007825032230
         H           -3.005410752336    -2.119951478356     0.429525413017     1.007825032230
         H            4.024692247664     1.147731521644     0.469669413017     1.007825032230
         H           -4.287529752336    -0.026440478356     0.026516413017     1.007825032230
         H            3.749955247664    -1.399851478356    -0.541462586983     1.007825032230

  Basis Set: AUG-CC-PVTZ
    Blend: AUG-CC-PVTZ
  Basis Set: (AUG-CC-PVTZ AUX)
    Blend: AUG-CC-PVTZ-JKFIT
	 Reference Energy          =    -454.4874413621302551 [Eh]
	 Singles Energy            =      -0.0000000000000000 [Eh]
	 Same-Spin Energy          =      -0.5096006005062363 [Eh]
	 Opposite-Spin Energy      =      -1.5478144675580485 [Eh]
	 Correlation Energy        =      -2.0574150680642846 [Eh]
	 Total Energy              =    -456.5448564301945567 [Eh]

	 ================> DF-SCS-MP2 Energies <==================
	-----------------------------------------------------------
	 SCS Same-Spin Scale       =       0.3333333333333333 [-]
	 SCS Opposite-Spin Scale   =       1.2000000000000000 [-]
	 SCS Same-Spin Energy      =      -0.1698668668354121 [Eh]
	 SCS Opposite-Spin Energy  =      -1.8573773610696582 [Eh]
	 SCS Correlation Energy    =      -2.0272442279050704 [Eh]
	 SCS Total Energy          =    -456.5146855900352989 [Eh]
	-----------------------------------------------------------

  Dipole Moment: [D]
     X:    -1.0087      Y:     1.6352      Z:     0.7405     Total:     2.0590

*** Psi4 exiting successfully. Buy a developer a beer!
