                               Psi4 1.3.2 release

  ==> Input File <==

--------------------------------------------------------------------------
#psi4
#
memory 32 gb

molecule  {
0 1
  N        1.0119030     0.0333230     0.0008060
  N        1.6997840    -1.0566340    -0.4179730
  C       -0.4063900     0.0163860    -0.0081010
  C       -1.1124080     1.1967220    -0.2540550
  C       -1.0729400    -1.1865160     0.2388070
  C        1.8230597     1.0297369     0.3989073
  C       -2.5072630     1.1720280    -0.2304200
  C       -2.4668310    -1.1992430     0.2370020
  C        3.1277520     0.5983640     0.2378140
  C       -3.1875810    -0.0227020     0.0140150
  C        2.9917500    -0.7051290    -0.2688550
  H       -0.5788940     2.1134690    -0.4901430
  H       -0.4926250    -2.0861370     0.4161180
  H        1.4325560     1.9713960     0.8093900
  H       -3.0617120     2.0872770    -0.4220560
  H       -2.9921950    -2.1322260     0.4251330
  H        4.0379080     1.1354570     0.4652770
  H       -4.2743140    -0.0387150     0.0221240
  H        3.7631710    -1.4121260    -0.5458550
units angstrom
no_reorient  #important for SAPT in psi4, default
symmetry c1  #important for SAPT in psi4, default
}

set PROPERTIES_ORIGIN ["COM"]
properties('MP2/aug-cc-pvtz', properties = ['dipole'])
--------------------------------------------------------------------------

    Molecular point group: c1
  Charge       = 0
  Multiplicity = 1
  Basis Set: AUG-CC-PVTZ
    Blend: AUG-CC-PVTZ
  Basis Set: (AUG-CC-PVTZ AUX)
    Blend: AUG-CC-PVTZ-JKFIT

    Orbital Energies [Eh]
    ---------------------

    Doubly Occupied:

       1A    -15.652220     2A    -15.588045     3A    -11.292472
       4A    -11.281833     5A    -11.259366     6A    -11.248753
       7A    -11.247427     8A    -11.246445     9A    -11.241781
      10A    -11.241594    11A    -11.226015    12A     -1.386989
      13A     -1.176274    14A     -1.112252    15A     -1.064466
      16A     -1.024985    17A     -0.999502    18A     -0.861770
      19A     -0.848601    20A     -0.798170    21A     -0.776622
      22A     -0.742019    23A     -0.687027    24A     -0.650412
      25A     -0.640299    26A     -0.617240    27A     -0.597800
      28A     -0.596192    29A     -0.588346    30A     -0.559153
      31A     -0.521238    32A     -0.511421    33A     -0.507444
      34A     -0.461789    35A     -0.395497    36A     -0.349403
      37A     -0.346548    38A     -0.314268

  @DF-RHF Final Energy:  -454.48846863375746

   => Energetics <=

    Nuclear Repulsion Energy =            546.8926083431957750
    One-Electron Energy =               -1699.4388025404825839
    Two-Electron Energy =                 698.0577255635292886
    Total Energy =                       -454.4884686337574067
  Basis Set: (AUG-CC-PVTZ AUX)
    Blend: AUG-CC-PVTZ-RI
    Molecular point group: c1

    Geometry (in Angstrom), charge = 0, multiplicity = 1:

       Center              X                  Y                   Z               Mass
    ------------   -----------------  -----------------  -----------------  -----------------
         N            0.997613410334     0.046389826717     0.006184958688    14.003074004430
         N            1.685494410334    -1.043567173283    -0.412594041312    14.003074004430
         C           -0.420679589666     0.029452826717    -0.002722041312    12.000000000000
         C           -1.126697589666     1.209788826717    -0.248676041312    12.000000000000
         C           -1.087229589666    -1.173449173283     0.244185958688    12.000000000000
         C            1.808770110334     1.042803726717     0.404286258688    12.000000000000
         C           -2.521552589666     1.185094826717    -0.225041041312    12.000000000000
         C           -2.481120589666    -1.186176173283     0.242380958688    12.000000000000
         C            3.113462410334     0.611430826717     0.243192958688    12.000000000000
         C           -3.201870589666    -0.009635173283     0.019393958688    12.000000000000
         C            2.977460410334    -0.692062173283    -0.263476041312    12.000000000000
         H           -0.593183589666     2.126535826717    -0.484764041312     1.007825032230
         H           -0.506914589666    -2.073070173283     0.421496958688     1.007825032230
         H            1.418266410334     1.984462826717     0.814768958688     1.007825032230
         H           -3.076001589666     2.100343826717    -0.416677041312     1.007825032230
         H           -3.006484589666    -2.119159173283     0.430511958688     1.007825032230
         H            4.023618410334     1.148523826717     0.470655958688     1.007825032230
         H           -4.288603589666    -0.025648173283     0.027502958688     1.007825032230
         H            3.748881410334    -1.399059173283    -0.540476041312     1.007825032230

  Basis Set: AUG-CC-PVTZ
    Blend: AUG-CC-PVTZ
  Basis Set: (AUG-CC-PVTZ AUX)
    Blend: AUG-CC-PVTZ-JKFIT
	 Reference Energy          =    -454.4884686337574635 [Eh]
	 Singles Energy            =      -0.0000000000000000 [Eh]
	 Same-Spin Energy          =      -0.5094593976410308 [Eh]
	 Opposite-Spin Energy      =      -1.5472643142511489 [Eh]
	 Correlation Energy        =      -2.0567237118921797 [Eh]
	 Total Energy              =    -456.5451923456496388 [Eh]

	 ================> DF-SCS-MP2 Energies <==================
	-----------------------------------------------------------
	 SCS Same-Spin Scale       =       0.3333333333333333 [-]
	 SCS Opposite-Spin Scale   =       1.2000000000000000 [-]
	 SCS Same-Spin Energy      =      -0.1698197992136769 [Eh]
	 SCS Opposite-Spin Energy  =      -1.8567171771013786 [Eh]
	 SCS Correlation Energy    =      -2.0265369763150556 [Eh]
	 SCS Total Energy          =    -456.5150056100725351 [Eh]
	-----------------------------------------------------------

  Dipole Moment: [D]
     X:    -0.9406      Y:     1.6404      Z:     0.7384     Total:     2.0300

*** Psi4 exiting successfully. Buy a developer a beer!
