                               Psi4 1.3.2 release

  ==> Input File <==

--------------------------------------------------------------------------
#psi4
#
memory 32 gb

molecule  {
0 1
  N        1.0119030     0.0333230     0.0008060
  N        1.6997840    -1.0566340    -0.4179730
  C       -0.4063900     0.0163860    -0.0081010
  C       -1.1124080     1.1967220    -0.2540550
  C       -1.0729400    -1.1865160     0.2388070
  C        1.8312940     1.0508850     0.4071570
  C       -2.5072630     1.1720280    -0.2304200
  C       -2.4668310    -1.1992430     0.2370020
  C        3.0788623     0.6019508     0.2393358
  C       -3.1875810    -0.0227020     0.0140150
  C        2.9917500    -0.7051290    -0.2688550
  H       -0.5788940     2.1134690    -0.4901430
  H       -0.4926250    -2.0861370     0.4161180
  H        1.4325560     1.9713960     0.8093900
  H       -3.0617120     2.0872770    -0.4220560
  H       -2.9921950    -2.1322260     0.4251330
  H        4.0379080     1.1354570     0.4652770
  H       -4.2743140    -0.0387150     0.0221240
  H        3.7631710    -1.4121260    -0.5458550
units angstrom
no_reorient  #important for SAPT in psi4, default
symmetry c1  #important for SAPT in psi4, default
}

set PROPERTIES_ORIGIN ["COM"]
properties('MP2/aug-cc-pvtz', properties = ['dipole'])
--------------------------------------------------------------------------

    Molecular point group: c1
  Charge       = 0
  Multiplicity = 1
  Basis Set: AUG-CC-PVTZ
    Blend: AUG-CC-PVTZ
  Basis Set: (AUG-CC-PVTZ AUX)
    Blend: AUG-CC-PVTZ-JKFIT

    Orbital Energies [Eh]
    ---------------------

    Doubly Occupied:

       1A    -15.648110     2A    -15.592807     3A    -11.290819
       4A    -11.275963     5A    -11.259099     6A    -11.247531
       7A    -11.245801     8A    -11.245325     9A    -11.240029
      10A    -11.239876    11A    -11.226129    12A     -1.384113
      13A     -1.175286    14A     -1.109904    15A     -1.071591
      16A     -1.023969    17A     -0.996921    18A     -0.858379
      19A     -0.847878    20A     -0.795155    21A     -0.779120
      22A     -0.743024    23A     -0.686053    24A     -0.648797
      25A     -0.639951    26A     -0.613985    27A     -0.597056
      28A     -0.594657    29A     -0.577625    30A     -0.574164
      31A     -0.519199    32A     -0.510600    33A     -0.505921
      34A     -0.462252    35A     -0.394987    36A     -0.356004
      37A     -0.346100    38A     -0.311499

  @DF-RHF Final Energy:  -454.48562861119274

   => Energetics <=

    Nuclear Repulsion Energy =            547.3542431199191469
    One-Electron Energy =               -1700.4083866645571561
    Two-Electron Energy =                 698.5685149334452717
    Total Energy =                       -454.4856286111927375
  Basis Set: (AUG-CC-PVTZ AUX)
    Blend: AUG-CC-PVTZ-RI
    Molecular point group: c1

    Geometry (in Angstrom), charge = 0, multiplicity = 1:

       Center              X                  Y                   Z               Mass
    ------------   -----------------  -----------------  -----------------  -----------------
         N            1.000999743636     0.044329568655     0.005371055594    14.003074004430
         N            1.688880743636    -1.045627431345    -0.413407944406    14.003074004430
         C           -0.417293256364     0.027392568655    -0.003535944406    12.000000000000
         C           -1.123311256364     1.207728568655    -0.249489944406    12.000000000000
         C           -1.083843256364    -1.175509431345     0.243372055594    12.000000000000
         C            1.820390743636     1.061891568655     0.411722055594    12.000000000000
         C           -2.518166256364     1.183034568655    -0.225854944406    12.000000000000
         C           -2.477734256364    -1.188236431345     0.241567055594    12.000000000000
         C            3.067959043636     0.612957368655     0.243900855594    12.000000000000
         C           -3.198484256364    -0.011695431345     0.018580055594    12.000000000000
         C            2.980846743636    -0.694122431345    -0.264289944406    12.000000000000
         H           -0.589797256364     2.124475568655    -0.485577944406     1.007825032230
         H           -0.503528256364    -2.075130431345     0.420683055594     1.007825032230
         H            1.421652743636     1.982402568655     0.813955055594     1.007825032230
         H           -3.072615256364     2.098283568655    -0.417490944406     1.007825032230
         H           -3.003098256364    -2.121219431345     0.429698055594     1.007825032230
         H            4.027004743636     1.146463568655     0.469842055594     1.007825032230
         H           -4.285217256364    -0.027708431345     0.026689055594     1.007825032230
         H            3.752267743636    -1.401119431345    -0.541289944406     1.007825032230

  Basis Set: AUG-CC-PVTZ
    Blend: AUG-CC-PVTZ
  Basis Set: (AUG-CC-PVTZ AUX)
    Blend: AUG-CC-PVTZ-JKFIT
	 Reference Energy          =    -454.4856286111927375 [Eh]
	 Singles Energy            =      -0.0000000000000000 [Eh]
	 Same-Spin Energy          =      -0.5094140829850564 [Eh]
	 Opposite-Spin Energy      =      -1.5473220594442934 [Eh]
	 Correlation Energy        =      -2.0567361424293500 [Eh]
	 Total Energy              =    -456.5423647536221097 [Eh]

	 ================> DF-SCS-MP2 Energies <==================
	-----------------------------------------------------------
	 SCS Same-Spin Scale       =       0.3333333333333333 [-]
	 SCS Opposite-Spin Scale   =       1.2000000000000000 [-]
	 SCS Same-Spin Energy      =      -0.1698046943283521 [Eh]
	 SCS Opposite-Spin Energy  =      -1.8567864713331519 [Eh]
	 SCS Correlation Energy    =      -2.0265911656615039 [Eh]
	 SCS Total Energy          =    -456.5122197768542378 [Eh]
	-----------------------------------------------------------

  Dipole Moment: [D]
     X:    -0.8030      Y:     1.6335      Z:     0.7362     Total:     1.9635

*** Psi4 exiting successfully. Buy a developer a beer!
