                               Psi4 1.4a3.dev225

  ==> Input File <==

--------------------------------------------------------------------------
#psi4
#
memory 32 gb

molecule  {
0 1
  N        1.0119030     0.0333230     0.0008060
  N        1.6997840    -1.0566340    -0.4179730
  C       -0.4063900     0.0163860    -0.0081010
  C       -1.1124080     1.1967220    -0.2540550
  C       -1.0729400    -1.1865160     0.2388070
  C        1.8312940     1.0508850     0.4071570
  C       -2.5072630     1.1720280    -0.2304200
  C       -2.4668310    -1.1992430     0.2370020
  C        3.1277520     0.5983640     0.2378140
  C       -3.1875810    -0.0227020     0.0140150
  C        2.9917500    -0.7051290    -0.2688550
  H       -0.5788940     2.1134690    -0.4901430
  H       -0.4926250    -2.0861370     0.4161180
  H        1.4325560     1.9713960     0.8093900
  H       -3.0617120     2.0872770    -0.4220560
  H       -2.9921950    -2.1322260     0.4251330
  H        4.0379080     1.1354570     0.4652770
  H       -4.2743140    -0.0387150     0.0221240
  H        3.7988046    -1.4447837    -0.5586502
units angstrom
no_reorient  #important for SAPT in psi4, default
symmetry c1  #important for SAPT in psi4, default
}

set PROPERTIES_ORIGIN ["COM"]
properties('MP2/aug-cc-pvtz', properties = ['dipole'])
--------------------------------------------------------------------------

    Molecular point group: c1
  Charge       = 0
  Multiplicity = 1
  Basis Set: AUG-CC-PVTZ
    Blend: AUG-CC-PVTZ
  Basis Set: (AUG-CC-PVTZ AUX)
    Blend: AUG-CC-PVTZ-JKFIT

    Orbital Energies [Eh]
    ---------------------

    Doubly Occupied:

       1A    -15.652076     2A    -15.591053     3A    -11.291874
       4A    -11.282859     5A    -11.265159     6A    -11.248311
       7A    -11.246848     8A    -11.246056     9A    -11.241124
      10A    -11.240960    11A    -11.228528    12A     -1.382750
      13A     -1.175555    14A     -1.110019    15A     -1.064295
      16A     -1.024532    17A     -0.997674    18A     -0.859932
      19A     -0.847155    20A     -0.795047    21A     -0.775944
      22A     -0.742388    23A     -0.686092    24A     -0.648781
      25A     -0.638692    26A     -0.615037    27A     -0.596812
      28A     -0.593447    29A     -0.588963    30A     -0.558365
      31A     -0.520315    32A     -0.510826    33A     -0.507073
      34A     -0.462756    35A     -0.395158    36A     -0.350083
      37A     -0.346436    38A     -0.313138

  @DF-RHF Final Energy:  -454.48557667976849

   => Energetics <=

    Nuclear Repulsion Energy =            546.1088670684874842
    One-Electron Energy =               -1697.9046638328886729
    Two-Electron Energy =                 697.3102200846326468
    Total Energy =                       -454.4855766797684282
  Basis Set: (AUG-CC-PVTZ AUX)
    Blend: AUG-CC-PVTZ-RI
    Molecular point group: c1

    Geometry (in Angstrom), charge = 0, multiplicity = 1:

       Center              X                  Y                   Z               Mass
    ------------   -----------------  -----------------  -----------------  -----------------
         N            0.996678273216     0.044856781173     0.005587319865    14.003074004430
         N            1.684559273216    -1.045100218827    -0.413191680135    14.003074004430
         C           -0.421614726784     0.027919781173    -0.003319680135    12.000000000000
         C           -1.127632726784     1.208255781173    -0.249273680135    12.000000000000
         C           -1.088164726784    -1.174982218827     0.243588319865    12.000000000000
         C            1.816069273216     1.062418781173     0.411938319865    12.000000000000
         C           -2.522487726784     1.183561781173    -0.225638680135    12.000000000000
         C           -2.482055726784    -1.187709218827     0.241783319865    12.000000000000
         C            3.112527273216     0.609897781173     0.242595319865    12.000000000000
         C           -3.202805726784    -0.011168218827     0.018796319865    12.000000000000
         C            2.976525273216    -0.693595218827    -0.264073680135    12.000000000000
         H           -0.594118726784     2.125002781173    -0.485361680135     1.007825032230
         H           -0.507849726784    -2.074603218827     0.420899319865     1.007825032230
         H            1.417331273216     1.982929781173     0.814171319865     1.007825032230
         H           -3.076936726784     2.098810781173    -0.417274680135     1.007825032230
         H           -3.007419726784    -2.120692218827     0.429914319865     1.007825032230
         H            4.022683273216     1.146990781173     0.470058319865     1.007825032230
         H           -4.289538726784    -0.027181218827     0.026905319865     1.007825032230
         H            3.783579873216    -1.433249918827    -0.553868880135     1.007825032230

  Basis Set: AUG-CC-PVTZ
    Blend: AUG-CC-PVTZ
  Basis Set: (AUG-CC-PVTZ AUX)
    Blend: AUG-CC-PVTZ-JKFIT
	 Reference Energy          =    -454.4855766797684851 [Eh]
	 Singles Energy            =      -0.0000000000000000 [Eh]
	 Same-Spin Energy          =      -0.5097652760961702 [Eh]
	 Opposite-Spin Energy      =      -1.5482738320922991 [Eh]
	 Correlation Energy        =      -2.0580391081884692 [Eh]
	 Total Energy              =    -456.5436157879569805 [Eh]

	 ================> DF-SCS-MP2 Energies <==================
	-----------------------------------------------------------
	 SCS Same-Spin Scale       =       0.3333333333333333 [-]
	 SCS Opposite-Spin Scale   =       1.2000000000000000 [-]
	 SCS Same-Spin Energy      =      -0.1699217586987234 [Eh]
	 SCS Opposite-Spin Energy  =      -1.8579285985107588 [Eh]
	 SCS Correlation Energy    =      -2.0278503572094819 [Eh]
	 SCS Total Energy          =    -456.5134270369779870 [Eh]
	-----------------------------------------------------------

  Dipole Moment: [D]
     X:    -0.8946      Y:     1.6408      Z:     0.7398     Total:     2.0099

*** Psi4 exiting successfully. Buy a developer a beer!
