                               Psi4 1.3.2 release

  ==> Input File <==

--------------------------------------------------------------------------
#psi4
#
memory 32 gb

molecule  {
0 1
  N        1.0119030     0.0333230     0.0008060
  N        1.6997840    -1.0566340    -0.4179730
  C       -0.4063900     0.0163860    -0.0081010
  C       -1.1124080     1.1967220    -0.2540550
  C       -1.0729400    -1.1865160     0.2388070
  C        1.7714055     0.9765124     0.3774572
  C       -2.5072630     1.1720280    -0.2304200
  C       -2.4668310    -1.1992430     0.2370020
  C        3.1277520     0.5983640     0.2378140
  C       -3.1875810    -0.0227020     0.0140150
  C        2.9917500    -0.7051290    -0.2688550
  H       -0.5788940     2.1134690    -0.4901430
  H       -0.4926250    -2.0861370     0.4161180
  H        1.4325560     1.9713960     0.8093900
  H       -3.0617120     2.0872770    -0.4220560
  H       -2.9921950    -2.1322260     0.4251330
  H        4.0379080     1.1354570     0.4652770
  H       -4.2743140    -0.0387150     0.0221240
  H        3.7631710    -1.4121260    -0.5458550
units angstrom
no_reorient  #important for SAPT in psi4, default
symmetry c1  #important for SAPT in psi4, default
}

set PROPERTIES_ORIGIN ["COM"]
properties('MP2/aug-cc-pvtz', properties = ['dipole'])
--------------------------------------------------------------------------

    Molecular point group: c1
  Charge       = 0
  Multiplicity = 1
  Basis Set: AUG-CC-PVTZ
    Blend: AUG-CC-PVTZ
  Basis Set: (AUG-CC-PVTZ AUX)
    Blend: AUG-CC-PVTZ-JKFIT

    Orbital Energies [Eh]
    ---------------------

    Doubly Occupied:

       1A    -15.655351     2A    -15.578809     3A    -11.294643
       4A    -11.281129     5A    -11.258493     6A    -11.251177
       7A    -11.249834     8A    -11.248230     9A    -11.244578
      10A    -11.244324    11A    -11.222063    12A     -1.404251
      13A     -1.179003    14A     -1.121150    15A     -1.063182
      16A     -1.027042    17A     -1.002159    18A     -0.866643
      19A     -0.850663    20A     -0.802900    21A     -0.774196
      22A     -0.741229    23A     -0.688182    24A     -0.656782
      25A     -0.641022    26A     -0.623457    27A     -0.603307
      28A     -0.599569    29A     -0.588724    30A     -0.539823
      31A     -0.523861    32A     -0.513357    33A     -0.509282
      34A     -0.457902    35A     -0.397966    36A     -0.349447
      37A     -0.343886    38A     -0.317127

  @DF-RHF Final Energy:  -454.47900733320876

   => Energetics <=

    Nuclear Repulsion Energy =            548.4607323282513107
    One-Electron Energy =               -1702.4499937806374419
    Two-Electron Energy =                 699.5102541191772616
    Total Energy =                       -454.4790073332087559
  Basis Set: (AUG-CC-PVTZ AUX)
    Blend: AUG-CC-PVTZ-RI
    Molecular point group: c1

    Geometry (in Angstrom), charge = 0, multiplicity = 1:

       Center              X                  Y                   Z               Mass
    ------------   -----------------  -----------------  -----------------  -----------------
         N            1.001915872925     0.050823085197     0.007971614039    14.003074004430
         N            1.689796872925    -1.039133914803    -0.410807385961    14.003074004430
         C           -0.416377127075     0.033886085197    -0.000935385961    12.000000000000
         C           -1.122395127075     1.214222085197    -0.246889385961    12.000000000000
         C           -1.082927127075    -1.169015914803     0.245972614039    12.000000000000
         C            1.761418372925     0.994012485197     0.384622814039    12.000000000000
         C           -2.517250127075     1.189528085197    -0.223254385961    12.000000000000
         C           -2.476818127075    -1.181742914803     0.244167614039    12.000000000000
         C            3.117764872925     0.615864085197     0.244979614039    12.000000000000
         C           -3.197568127075    -0.005201914803     0.021180614039    12.000000000000
         C            2.981762872925    -0.687628914803    -0.261689385961    12.000000000000
         H           -0.588881127075     2.130969085197    -0.482977385961     1.007825032230
         H           -0.502612127075    -2.068636914803     0.423283614039     1.007825032230
         H            1.422568872925     1.988896085197     0.816555614039     1.007825032230
         H           -3.071699127075     2.104777085197    -0.414890385961     1.007825032230
         H           -3.002182127075    -2.114725914803     0.432298614039     1.007825032230
         H            4.027920872925     1.152957085197     0.472442614039     1.007825032230
         H           -4.284301127075    -0.021214914803     0.029289614039     1.007825032230
         H            3.753183872925    -1.394625914803    -0.538689385961     1.007825032230

  Basis Set: AUG-CC-PVTZ
    Blend: AUG-CC-PVTZ
  Basis Set: (AUG-CC-PVTZ AUX)
    Blend: AUG-CC-PVTZ-JKFIT
	 Reference Energy          =    -454.4790073332087559 [Eh]
	 Singles Energy            =      -0.0000000000000000 [Eh]
	 Same-Spin Energy          =      -0.5090466103944027 [Eh]
	 Opposite-Spin Energy      =      -1.5458344430665640 [Eh]
	 Correlation Energy        =      -2.0548810534609667 [Eh]
	 Total Energy              =    -456.5338883866697302 [Eh]

	 ================> DF-SCS-MP2 Energies <==================
	-----------------------------------------------------------
	 SCS Same-Spin Scale       =       0.3333333333333333 [-]
	 SCS Opposite-Spin Scale   =       1.2000000000000000 [-]
	 SCS Same-Spin Energy      =      -0.1696822034648009 [Eh]
	 SCS Opposite-Spin Energy  =      -1.8550013316798768 [Eh]
	 SCS Correlation Energy    =      -2.0246835351446775 [Eh]
	 SCS Total Energy          =    -456.5036908683534307 [Eh]
	-----------------------------------------------------------

  Dipole Moment: [D]
     X:    -1.1701      Y:     1.6402      Z:     0.7365     Total:     2.1451

*** Psi4 exiting successfully. Buy a developer a beer!
