                               Psi4 1.3.2 release

  ==> Input File <==

--------------------------------------------------------------------------
#psi4
#
memory 32 gb

molecule  {
0 1
  N        1.0119030     0.0333230     0.0008060
  N        1.6997840    -1.0566340    -0.4179730
  C       -0.3854577     0.0285532    -0.0110064
  C       -1.1124080     1.1967220    -0.2540550
  C       -1.0729400    -1.1865160     0.2388070
  C        1.8312940     1.0508850     0.4071570
  C       -2.5072630     1.1720280    -0.2304200
  C       -2.4668310    -1.1992430     0.2370020
  C        3.1277520     0.5983640     0.2378140
  C       -3.1875810    -0.0227020     0.0140150
  C        2.9917500    -0.7051290    -0.2688550
  H       -0.5788940     2.1134690    -0.4901430
  H       -0.4926250    -2.0861370     0.4161180
  H        1.4325560     1.9713960     0.8093900
  H       -3.0617120     2.0872770    -0.4220560
  H       -2.9921950    -2.1322260     0.4251330
  H        4.0379080     1.1354570     0.4652770
  H       -4.2743140    -0.0387150     0.0221240
  H        3.7631710    -1.4121260    -0.5458550
units angstrom
no_reorient  #important for SAPT in psi4, default
symmetry c1  #important for SAPT in psi4, default
}

set PROPERTIES_ORIGIN ["COM"]
properties('MP2/aug-cc-pvtz', properties = ['dipole'])
--------------------------------------------------------------------------

    Molecular point group: c1
  Charge       = 0
  Multiplicity = 1
  Basis Set: AUG-CC-PVTZ
    Blend: AUG-CC-PVTZ
  Basis Set: (AUG-CC-PVTZ AUX)
    Blend: AUG-CC-PVTZ-JKFIT

    Orbital Energies [Eh]
    ---------------------

    Doubly Occupied:

       1A    -15.652960     2A    -15.592121     3A    -11.292060
       4A    -11.283729     5A    -11.261278     6A    -11.247504
       7A    -11.245955     8A    -11.245097     9A    -11.242166
      10A    -11.240214    11A    -11.229413    12A     -1.386115
      13A     -1.174928    14A     -1.113048    15A     -1.065375
      16A     -1.022650    17A     -0.996555    18A     -0.863782
      19A     -0.847316    20A     -0.797866    21A     -0.778059
      22A     -0.743368    23A     -0.686608    24A     -0.649611
      25A     -0.640274    26A     -0.616104    27A     -0.597488
      28A     -0.594488    29A     -0.589140    30A     -0.564836
      31A     -0.521381    32A     -0.508646    33A     -0.503960
      34A     -0.463915    35A     -0.396798    36A     -0.350882
      37A     -0.345661    38A     -0.310388

  @DF-RHF Final Energy:  -454.48718442159486

   => Energetics <=

    Nuclear Repulsion Energy =            546.4108798876920901
    One-Electron Energy =               -1698.4726442767214394
    Two-Electron Energy =                 697.5745799674344880
    Total Energy =                       -454.4871844215948613
  Basis Set: (AUG-CC-PVTZ AUX)
    Blend: AUG-CC-PVTZ-RI
    Molecular point group: c1

    Geometry (in Angstrom), charge = 0, multiplicity = 1:

       Center              X                  Y                   Z               Mass
    ------------   -----------------  -----------------  -----------------  -----------------
         N            0.995184020170     0.043614876529     0.005739812876    14.003074004430
         N            1.683065020170    -1.046342123471    -0.413039187124    14.003074004430
         C           -0.402176679830     0.038845076529    -0.006072587124    12.000000000000
         C           -1.129126979830     1.207013876529    -0.249121187124    12.000000000000
         C           -1.089658979830    -1.176224123471     0.243740812876    12.000000000000
         C            1.814575020170     1.061176876529     0.412090812876    12.000000000000
         C           -2.523981979830     1.182319876529    -0.225486187124    12.000000000000
         C           -2.483549979830    -1.188951123471     0.241935812876    12.000000000000
         C            3.111033020170     0.608655876529     0.242747812876    12.000000000000
         C           -3.204299979830    -0.012410123471     0.018948812876    12.000000000000
         C            2.975031020170    -0.694837123471    -0.263921187124    12.000000000000
         H           -0.595612979830     2.123760876529    -0.485209187124     1.007825032230
         H           -0.509343979830    -2.075845123471     0.421051812876     1.007825032230
         H            1.415837020170     1.981687876529     0.814323812876     1.007825032230
         H           -3.078430979830     2.097568876529    -0.417122187124     1.007825032230
         H           -3.008913979830    -2.121934123471     0.430066812876     1.007825032230
         H            4.021189020170     1.145748876529     0.470210812876     1.007825032230
         H           -4.291032979830    -0.028423123471     0.027057812876     1.007825032230
         H            3.746452020170    -1.401834123471    -0.540921187124     1.007825032230

  Basis Set: AUG-CC-PVTZ
    Blend: AUG-CC-PVTZ
  Basis Set: (AUG-CC-PVTZ AUX)
    Blend: AUG-CC-PVTZ-JKFIT
	 Reference Energy          =    -454.4871844215948613 [Eh]
	 Singles Energy            =      -0.0000000000000000 [Eh]
	 Same-Spin Energy          =      -0.5097800563382934 [Eh]
	 Opposite-Spin Energy      =      -1.5480927711263317 [Eh]
	 Correlation Energy        =      -2.0578728274646250 [Eh]
	 Total Energy              =    -456.5450572490594823 [Eh]

	 ================> DF-SCS-MP2 Energies <==================
	-----------------------------------------------------------
	 SCS Same-Spin Scale       =       0.3333333333333333 [-]
	 SCS Opposite-Spin Scale   =       1.2000000000000000 [-]
	 SCS Same-Spin Energy      =      -0.1699266854460978 [Eh]
	 SCS Opposite-Spin Energy  =      -1.8577113253515980 [Eh]
	 SCS Correlation Energy    =      -2.0276380107976957 [Eh]
	 SCS Total Energy          =    -456.5148224323925774 [Eh]
	-----------------------------------------------------------

  Dipole Moment: [D]
     X:    -0.7631      Y:     1.6396      Z:     0.7371     Total:     1.9530

*** Psi4 exiting successfully. Buy a developer a beer!
