                               Psi4 1.3.2 release

  ==> Input File <==

--------------------------------------------------------------------------
#psi4
#
memory 32 gb

molecule  {
0 1
  N        1.0119030     0.0333230     0.0008060
  N        1.6997840    -1.0566340    -0.4179730
  C       -0.4063900     0.0163860    -0.0081010
  C       -1.1124080     1.1967220    -0.2540550
  C       -1.0729400    -1.1865160     0.2388070
  C        1.8312940     1.0508850     0.4071570
  C       -2.5072630     1.1720280    -0.2304200
  C       -2.4668310    -1.1992430     0.2370020
  C        3.1277520     0.5983640     0.2378140
  C       -3.1875810    -0.0227020     0.0140150
  C        2.9917500    -0.7051290    -0.2688550
  H       -0.5788940     2.1134690    -0.4901430
  H       -0.4926250    -2.0861370     0.4161180
  H        1.4325560     1.9713960     0.8093900
  H       -3.0617120     2.0872770    -0.4220560
  H       -2.9921950    -2.1322260     0.4251330
  H        3.8695188     1.0360887     0.4231938
  H       -4.2743140    -0.0387150     0.0221240
  H        3.7631710    -1.4121260    -0.5458550
units angstrom
no_reorient  #important for SAPT in psi4, default
symmetry c1  #important for SAPT in psi4, default
}

set PROPERTIES_ORIGIN ["COM"]
properties('MP2/aug-cc-pvtz', properties = ['dipole'])
--------------------------------------------------------------------------

    Molecular point group: c1
  Charge       = 0
  Multiplicity = 1
  Basis Set: AUG-CC-PVTZ
    Blend: AUG-CC-PVTZ
  Basis Set: (AUG-CC-PVTZ AUX)
    Blend: AUG-CC-PVTZ-JKFIT

    Orbital Energies [Eh]
    ---------------------

    Doubly Occupied:

       1A    -15.651245     2A    -15.589848     3A    -11.291438
       4A    -11.281833     5A    -11.258618     6A    -11.248065
       7A    -11.246571     8A    -11.245805     9A    -11.240837
      10A    -11.240678    11A    -11.205073    12A     -1.381640
      13A     -1.175334    14A     -1.110184    15A     -1.069256
      16A     -1.024532    17A     -1.001075    18A     -0.869785
      19A     -0.849021    20A     -0.811484    21A     -0.777271
      22A     -0.748632    23A     -0.691343    24A     -0.652061
      25A     -0.645130    26A     -0.627062    27A     -0.603121
      28A     -0.596885    29A     -0.591890    30A     -0.563592
      31A     -0.520372    32A     -0.510628    33A     -0.507034
      34A     -0.463078    35A     -0.394631    36A     -0.349474
      37A     -0.346100    38A     -0.312790

  @DF-RHF Final Energy:  -454.45174267243743

   => Energetics <=

    Nuclear Repulsion Energy =            547.5482053173420809
    One-Electron Energy =               -1700.6130711769496884
    Two-Electron Energy =                 698.6131231871702312
    Total Energy =                       -454.4517426724373763
  Basis Set: (AUG-CC-PVTZ AUX)
    Blend: AUG-CC-PVTZ-RI
    Molecular point group: c1

    Geometry (in Angstrom), charge = 0, multiplicity = 1:

       Center              X                  Y                   Z               Mass
    ------------   -----------------  -----------------  -----------------  -----------------
         N            0.998105503531     0.045323451519     0.005792202464    14.003074004430
         N            1.685986503531    -1.044633548481    -0.412986797536    14.003074004430
         C           -0.420187496469     0.028386451519    -0.003114797536    12.000000000000
         C           -1.126205496469     1.208722451519    -0.249068797536    12.000000000000
         C           -1.086737496469    -1.174515548481     0.243793202464    12.000000000000
         C            1.817496503531     1.062885451519     0.412143202464    12.000000000000
         C           -2.521060496469     1.184028451519    -0.225433797536    12.000000000000
         C           -2.480628496469    -1.187242548481     0.241988202464    12.000000000000
         C            3.113954503531     0.610364451519     0.242800202464    12.000000000000
         C           -3.201378496469    -0.010701548481     0.019001202464    12.000000000000
         C            2.977952503531    -0.693128548481    -0.263868797536    12.000000000000
         H           -0.592691496469     2.125469451519    -0.485156797536     1.007825032230
         H           -0.506422496469    -2.074136548481     0.421104202464     1.007825032230
         H            1.418758503531     1.983396451519     0.814376202464     1.007825032230
         H           -3.075509496469     2.099277451519    -0.417069797536     1.007825032230
         H           -3.005992496469    -2.120225548481     0.430119202464     1.007825032230
         H            3.855721303531     1.048089151519     0.428180002464     1.007825032230
         H           -4.288111496469    -0.026714548481     0.027110202464     1.007825032230
         H            3.749373503531    -1.400125548481    -0.540868797536     1.007825032230

  Basis Set: AUG-CC-PVTZ
    Blend: AUG-CC-PVTZ
  Basis Set: (AUG-CC-PVTZ AUX)
    Blend: AUG-CC-PVTZ-JKFIT
	 Reference Energy          =    -454.4517426724374332 [Eh]
	 Singles Energy            =      -0.0000000000000000 [Eh]
	 Same-Spin Energy          =      -0.5095022805112908 [Eh]
	 Opposite-Spin Energy      =      -1.5474998469731993 [Eh]
	 Correlation Energy        =      -2.0570021274844903 [Eh]
	 Total Energy              =    -456.5087447999219421 [Eh]

	 ================> DF-SCS-MP2 Energies <==================
	-----------------------------------------------------------
	 SCS Same-Spin Scale       =       0.3333333333333333 [-]
	 SCS Opposite-Spin Scale   =       1.2000000000000000 [-]
	 SCS Same-Spin Energy      =      -0.1698340935037636 [Eh]
	 SCS Opposite-Spin Energy  =      -1.8569998163678392 [Eh]
	 SCS Correlation Energy    =      -2.0268339098716028 [Eh]
	 SCS Total Energy          =    -456.4785765823090173 [Eh]
	-----------------------------------------------------------

  Dipole Moment: [D]
     X:    -0.8885      Y:     1.6389      Z:     0.7392     Total:     2.0054

*** Psi4 exiting successfully. Buy a developer a beer!
