                               Psi4 1.3.2 release

  ==> Input File <==

--------------------------------------------------------------------------
#psi4
#
memory 32 gb

molecule  {
0 1
  N        0.9374694     0.0891633     0.0222881
  N        1.6997840    -1.0566340    -0.4179730
  C       -0.4063900     0.0163860    -0.0081010
  C       -1.1124080     1.1967220    -0.2540550
  C       -1.0729400    -1.1865160     0.2388070
  C        1.8312940     1.0508850     0.4071570
  C       -2.5072630     1.1720280    -0.2304200
  C       -2.4668310    -1.1992430     0.2370020
  C        3.1277520     0.5983640     0.2378140
  C       -3.1875810    -0.0227020     0.0140150
  C        2.9917500    -0.7051290    -0.2688550
  H       -0.5788940     2.1134690    -0.4901430
  H       -0.4926250    -2.0861370     0.4161180
  H        1.4325560     1.9713960     0.8093900
  H       -3.0617120     2.0872770    -0.4220560
  H       -2.9921950    -2.1322260     0.4251330
  H        4.0379080     1.1354570     0.4652770
  H       -4.2743140    -0.0387150     0.0221240
  H        3.7631710    -1.4121260    -0.5458550
units angstrom
no_reorient  #important for SAPT in psi4, default
symmetry c1  #important for SAPT in psi4, default
}

set PROPERTIES_ORIGIN ["COM"]
properties('MP2/aug-cc-pvtz', properties = ['dipole'])
--------------------------------------------------------------------------

    Molecular point group: c1
  Charge       = 0
  Multiplicity = 1
  Basis Set: AUG-CC-PVTZ
    Blend: AUG-CC-PVTZ
  Basis Set: (AUG-CC-PVTZ AUX)
    Blend: AUG-CC-PVTZ-JKFIT

    Orbital Energies [Eh]
    ---------------------

    Doubly Occupied:

       1A    -15.646685     2A    -15.593579     3A    -11.292915
       4A    -11.286019     5A    -11.270655     6A    -11.244975
       7A    -11.243645     8A    -11.241374     9A    -11.237240
      10A    -11.236744    11A    -11.231419    12A     -1.361618
      13A     -1.181099    14A     -1.119087    15A     -1.058455
      16A     -1.021531    17A     -0.994674    18A     -0.872904
      19A     -0.847917    20A     -0.789884    21A     -0.778985
      22A     -0.740681    23A     -0.683792    24A     -0.650258
      25A     -0.642348    26A     -0.612629    27A     -0.602982
      28A     -0.594615    29A     -0.575611    30A     -0.568037
      31A     -0.520290    32A     -0.506987    33A     -0.504384
      34A     -0.454692    35A     -0.405821    36A     -0.350650
      37A     -0.344238    38A     -0.305433

  @DF-RHF Final Energy:  -454.47418570106231

   => Energetics <=

    Nuclear Repulsion Energy =            546.2068106008415498
    One-Electron Energy =               -1698.1322872979826570
    Two-Electron Energy =                 697.4512909960789102
    Total Energy =                       -454.4741857010623107
  Basis Set: (AUG-CC-PVTZ AUX)
    Blend: AUG-CC-PVTZ-RI
    Molecular point group: c1

    Geometry (in Angstrom), charge = 0, multiplicity = 1:

       Center              X                  Y                   Z               Mass
    ------------   -----------------  -----------------  -----------------  -----------------
         N            0.929728681068     0.095041107128     0.024891912511    14.003074004430
         N            1.692043281068    -1.050756192872    -0.415369187489    14.003074004430
         C           -0.414130718932     0.022263807128    -0.005497187489    12.000000000000
         C           -1.120148718932     1.202599807128    -0.251451187489    12.000000000000
         C           -1.080680718932    -1.180638192872     0.241410812511    12.000000000000
         C            1.823553281068     1.056762807128     0.409760812511    12.000000000000
         C           -2.515003718932     1.177905807128    -0.227816187489    12.000000000000
         C           -2.474571718932    -1.193365192872     0.239605812511    12.000000000000
         C            3.120011281068     0.604241807128     0.240417812511    12.000000000000
         C           -3.195321718932    -0.016824192872     0.016618812511    12.000000000000
         C            2.984009281068    -0.699251192872    -0.266251187489    12.000000000000
         H           -0.586634718932     2.119346807128    -0.487539187489     1.007825032230
         H           -0.500365718932    -2.080259192872     0.418721812511     1.007825032230
         H            1.424815281068     1.977273807128     0.811993812511     1.007825032230
         H           -3.069452718932     2.093154807128    -0.419452187489     1.007825032230
         H           -2.999935718932    -2.126348192872     0.427736812511     1.007825032230
         H            4.030167281068     1.141334807128     0.467880812511     1.007825032230
         H           -4.282054718932    -0.032837192872     0.024727812511     1.007825032230
         H            3.755430281068    -1.406248192872    -0.543251187489     1.007825032230

  Basis Set: AUG-CC-PVTZ
    Blend: AUG-CC-PVTZ
  Basis Set: (AUG-CC-PVTZ AUX)
    Blend: AUG-CC-PVTZ-JKFIT
	 Reference Energy          =    -454.4741857010623107 [Eh]
	 Singles Energy            =      -0.0000000000000000 [Eh]
	 Same-Spin Energy          =      -0.5101657862818680 [Eh]
	 Opposite-Spin Energy      =      -1.5503731408214956 [Eh]
	 Correlation Energy        =      -2.0605389271033636 [Eh]
	 Total Energy              =    -456.5347246281656908 [Eh]

	 ================> DF-SCS-MP2 Energies <==================
	-----------------------------------------------------------
	 SCS Same-Spin Scale       =       0.3333333333333333 [-]
	 SCS Opposite-Spin Scale   =       1.2000000000000000 [-]
	 SCS Same-Spin Energy      =      -0.1700552620939560 [Eh]
	 SCS Opposite-Spin Energy  =      -1.8604477689857946 [Eh]
	 SCS Correlation Energy    =      -2.0305030310797507 [Eh]
	 SCS Total Energy          =    -456.5046887321420854 [Eh]
	-----------------------------------------------------------

  Dipole Moment: [D]
     X:    -0.5280      Y:     1.5820      Z:     0.7336     Total:     1.8220

*** Psi4 exiting successfully. Buy a developer a beer!
