                               Psi4 1.3.2 release

  ==> Input File <==

--------------------------------------------------------------------------
#psi4
#
memory 32 gb

molecule  {
0 1
  N        1.0119030     0.0333230     0.0008060
  N        1.7401149    -1.0335914    -0.4090275
  C       -0.4063900     0.0163860    -0.0081010
  C       -1.1124080     1.1967220    -0.2540550
  C       -1.0729400    -1.1865160     0.2388070
  C        1.8312940     1.0508850     0.4071570
  C       -2.5072630     1.1720280    -0.2304200
  C       -2.4668310    -1.1992430     0.2370020
  C        3.1277520     0.5983640     0.2378140
  C       -3.1875810    -0.0227020     0.0140150
  C        2.9917500    -0.7051290    -0.2688550
  H       -0.5788940     2.1134690    -0.4901430
  H       -0.4926250    -2.0861370     0.4161180
  H        1.4325560     1.9713960     0.8093900
  H       -3.0617120     2.0872770    -0.4220560
  H       -2.9921950    -2.1322260     0.4251330
  H        4.0379080     1.1354570     0.4652770
  H       -4.2743140    -0.0387150     0.0221240
  H        3.7631710    -1.4121260    -0.5458550
units angstrom
no_reorient  #important for SAPT in psi4, default
symmetry c1  #important for SAPT in psi4, default
}

set PROPERTIES_ORIGIN ["COM"]
properties('MP2/aug-cc-pvtz', properties = ['dipole'])
--------------------------------------------------------------------------

    Molecular point group: c1
  Charge       = 0
  Multiplicity = 1
  Basis Set: AUG-CC-PVTZ
    Blend: AUG-CC-PVTZ
  Basis Set: (AUG-CC-PVTZ AUX)
    Blend: AUG-CC-PVTZ-JKFIT

    Orbital Energies [Eh]
    ---------------------

    Doubly Occupied:

       1A    -15.648881     2A    -15.585041     3A    -11.292814
       4A    -11.281231     5A    -11.254189     6A    -11.248505
       7A    -11.246972     8A    -11.246266     9A    -11.241247
      10A    -11.240979    11A    -11.225227    12A     -1.386513
      13A     -1.179628    14A     -1.117737    15A     -1.060350
      16A     -1.024822    17A     -0.999341    18A     -0.860617
      19A     -0.849243    20A     -0.800444    21A     -0.776443
      22A     -0.741946    23A     -0.687278    24A     -0.650030
      25A     -0.642379    26A     -0.616644    27A     -0.599160
      28A     -0.596267    29A     -0.588744    30A     -0.565703
      31A     -0.520749    32A     -0.512037    33A     -0.507231
      34A     -0.455607    35A     -0.398958    36A     -0.351116
      37A     -0.346941    38A     -0.313033

  @DF-RHF Final Energy:  -454.49055823662297

   => Energetics <=

    Nuclear Repulsion Energy =            546.9431673144007391
    One-Electron Energy =               -1699.5468235991024812
    Two-Electron Energy =                 698.1130980480786548
    Total Energy =                       -454.4905582366229737
  Basis Set: (AUG-CC-PVTZ AUX)
    Blend: AUG-CC-PVTZ-RI
    Molecular point group: c1

    Geometry (in Angstrom), charge = 0, multiplicity = 1:

       Center              X                  Y                   Z               Mass
    ------------   -----------------  -----------------  -----------------  -----------------
         N            0.993007496940     0.042388650611     0.004628334499    14.003074004430
         N            1.721219396940    -1.024525749389    -0.405205165501    14.003074004430
         C           -0.425285503060     0.025451650611    -0.004278665501    12.000000000000
         C           -1.131303503060     1.205787650611    -0.250232665501    12.000000000000
         C           -1.091835503060    -1.177450349389     0.242629334499    12.000000000000
         C            1.812398496940     1.059950650611     0.410979334499    12.000000000000
         C           -2.526158503060     1.181093650611    -0.226597665501    12.000000000000
         C           -2.485726503060    -1.190177349389     0.240824334499    12.000000000000
         C            3.108856496940     0.607429650611     0.241636334499    12.000000000000
         C           -3.206476503060    -0.013636349389     0.017837334499    12.000000000000
         C            2.972854496940    -0.696063349389    -0.265032665501    12.000000000000
         H           -0.597789503060     2.122534650611    -0.486320665501     1.007825032230
         H           -0.511520503060    -2.077071349389     0.419940334499     1.007825032230
         H            1.413660496940     1.980461650611     0.813212334499     1.007825032230
         H           -3.080607503060     2.096342650611    -0.418233665501     1.007825032230
         H           -3.011090503060    -2.123160349389     0.428955334499     1.007825032230
         H            4.019012496940     1.144522650611     0.469099334499     1.007825032230
         H           -4.293209503060    -0.029649349389     0.025946334499     1.007825032230
         H            3.744275496940    -1.403060349389    -0.542032665501     1.007825032230

  Basis Set: AUG-CC-PVTZ
    Blend: AUG-CC-PVTZ
  Basis Set: (AUG-CC-PVTZ AUX)
    Blend: AUG-CC-PVTZ-JKFIT
	 Reference Energy          =    -454.4905582366229737 [Eh]
	 Singles Energy            =      -0.0000000000000000 [Eh]
	 Same-Spin Energy          =      -0.5083186515016238 [Eh]
	 Opposite-Spin Energy      =      -1.5452198150486867 [Eh]
	 Correlation Energy        =      -2.0535384665503105 [Eh]
	 Total Energy              =    -456.5440967031732953 [Eh]

	 ================> DF-SCS-MP2 Energies <==================
	-----------------------------------------------------------
	 SCS Same-Spin Scale       =       0.3333333333333333 [-]
	 SCS Opposite-Spin Scale   =       1.2000000000000000 [-]
	 SCS Same-Spin Energy      =      -0.1694395505005413 [Eh]
	 SCS Opposite-Spin Energy  =      -1.8542637780584239 [Eh]
	 SCS Correlation Energy    =      -2.0237033285589652 [Eh]
	 SCS Total Energy          =    -456.5142615651819256 [Eh]
	-----------------------------------------------------------

  Dipole Moment: [D]
     X:    -0.9180      Y:     1.5639      Z:     0.7080     Total:     1.9467

*** Psi4 exiting successfully. Buy a developer a beer!
