                               Psi4 1.3.2 release

  ==> Input File <==

--------------------------------------------------------------------------
#psi4
#
memory 32 gb

molecule  {
0 1
  N        1.0119030     0.0333230     0.0008060
  N        1.7200560    -1.0453588    -0.4133525
  C       -0.4063900     0.0163860    -0.0081010
  C       -1.1124080     1.1967220    -0.2540550
  C       -1.0729400    -1.1865160     0.2388070
  C        1.8312940     1.0508850     0.4071570
  C       -2.5072630     1.1720280    -0.2304200
  C       -2.4668310    -1.1992430     0.2370020
  C        3.1277520     0.5983640     0.2378140
  C       -3.1875810    -0.0227020     0.0140150
  C        2.9917500    -0.7051290    -0.2688550
  H       -0.5788940     2.1134690    -0.4901430
  H       -0.4926250    -2.0861370     0.4161180
  H        1.4325560     1.9713960     0.8093900
  H       -3.0617120     2.0872770    -0.4220560
  H       -2.9921950    -2.1322260     0.4251330
  H        4.0379080     1.1354570     0.4652770
  H       -4.2743140    -0.0387150     0.0221240
  H        3.7631710    -1.4121260    -0.5458550
units angstrom
no_reorient  #important for SAPT in psi4, default
symmetry c1  #important for SAPT in psi4, default
}

set PROPERTIES_ORIGIN ["COM"]
properties('MP2/aug-cc-pvtz', properties = ['dipole'])
--------------------------------------------------------------------------

    Molecular point group: c1
  Charge       = 0
  Multiplicity = 1
  Basis Set: AUG-CC-PVTZ
    Blend: AUG-CC-PVTZ
  Basis Set: (AUG-CC-PVTZ AUX)
    Blend: AUG-CC-PVTZ-JKFIT

    Orbital Energies [Eh]
    ---------------------

    Doubly Occupied:

       1A    -15.650336     2A    -15.587965     3A    -11.292271
       4A    -11.281898     5A    -11.256966     6A    -11.248364
       7A    -11.246860     8A    -11.246124     9A    -11.241135
      10A    -11.240934    11A    -11.226645    12A     -1.384375
      13A     -1.177456    14A     -1.114057    15A     -1.062150
      16A     -1.024632    17A     -0.998781    18A     -0.860674
      19A     -0.848578    20A     -0.798834    21A     -0.777050
      22A     -0.742325    23A     -0.687012    24A     -0.649527
      25A     -0.641038    26A     -0.615992    27A     -0.597955
      28A     -0.595482    29A     -0.588900    30A     -0.564702
      31A     -0.520537    32A     -0.511409    33A     -0.507112
      34A     -0.459465    35A     -0.396819    36A     -0.350502
      37A     -0.346665    38A     -0.313066

  @DF-RHF Final Energy:  -454.48995850589267

   => Energetics <=

    Nuclear Repulsion Energy =            546.6456250123725340
    One-Electron Energy =               -1698.9619812168955377
    Two-Electron Energy =                 697.8263976986302168
    Total Energy =                       -454.4899585058926732
  Basis Set: (AUG-CC-PVTZ AUX)
    Blend: AUG-CC-PVTZ-RI
    Molecular point group: c1

    Geometry (in Angstrom), charge = 0, multiplicity = 1:

       Center              X                  Y                   Z               Mass
    ------------   -----------------  -----------------  -----------------  -----------------
         N            0.994957165168     0.043532408540     0.005048712241    14.003074004430
         N            1.703110165168    -1.035149391460    -0.409109787759    14.003074004430
         C           -0.423335834832     0.026595408540    -0.003858287759    12.000000000000
         C           -1.129353834832     1.206931408540    -0.249812287759    12.000000000000
         C           -1.089885834832    -1.176306591460     0.243049712241    12.000000000000
         C            1.814348165168     1.061094408540     0.411399712241    12.000000000000
         C           -2.524208834832     1.182237408540    -0.226177287759    12.000000000000
         C           -2.483776834832    -1.189033591460     0.241244712241    12.000000000000
         C            3.110806165168     0.608573408540     0.242056712241    12.000000000000
         C           -3.204526834832    -0.012492591460     0.018257712241    12.000000000000
         C            2.974804165168    -0.694919591460    -0.264612287759    12.000000000000
         H           -0.595839834832     2.123678408540    -0.485900287759     1.007825032230
         H           -0.509570834832    -2.075927591460     0.420360712241     1.007825032230
         H            1.415610165168     1.981605408540     0.813632712241     1.007825032230
         H           -3.078657834832     2.097486408540    -0.417813287759     1.007825032230
         H           -3.009140834832    -2.122016591460     0.429375712241     1.007825032230
         H            4.020962165168     1.145666408540     0.469519712241     1.007825032230
         H           -4.291259834832    -0.028505591460     0.026366712241     1.007825032230
         H            3.746225165168    -1.401916591460    -0.541612287759     1.007825032230

  Basis Set: AUG-CC-PVTZ
    Blend: AUG-CC-PVTZ
  Basis Set: (AUG-CC-PVTZ AUX)
    Blend: AUG-CC-PVTZ-JKFIT
	 Reference Energy          =    -454.4899585058926732 [Eh]
	 Singles Energy            =      -0.0000000000000000 [Eh]
	 Same-Spin Energy          =      -0.5089803933130944 [Eh]
	 Opposite-Spin Energy      =      -1.5465246148355480 [Eh]
	 Correlation Energy        =      -2.0555050081486423 [Eh]
	 Total Energy              =    -456.5454635140413302 [Eh]

	 ================> DF-SCS-MP2 Energies <==================
	-----------------------------------------------------------
	 SCS Same-Spin Scale       =       0.3333333333333333 [-]
	 SCS Opposite-Spin Scale   =       1.2000000000000000 [-]
	 SCS Same-Spin Energy      =      -0.1696601311043648 [Eh]
	 SCS Opposite-Spin Energy  =      -1.8558295378026575 [Eh]
	 SCS Correlation Energy    =      -2.0254896689070221 [Eh]
	 SCS Total Energy          =    -456.5154481747997011 [Eh]
	-----------------------------------------------------------

  Dipole Moment: [D]
     X:    -0.9016      Y:     1.6022      Z:     0.7237     Total:     1.9757

*** Psi4 exiting successfully. Buy a developer a beer!
