                               Psi4 1.3.2 release

  ==> Input File <==

--------------------------------------------------------------------------
#psi4
#
memory 32 gb

molecule  {
0 1
  N        1.0119030     0.0333230     0.0008060
  N        1.6997840    -1.0566340    -0.4179730
  C       -0.4063900     0.0163860    -0.0081010
  C       -1.1124080     1.1967220    -0.2540550
  C       -1.0729400    -1.1865160     0.2388070
  C        1.8312940     1.0508850     0.4071570
  C       -2.5072630     1.1720280    -0.2304200
  C       -2.4668310    -1.1992430     0.2370020
  C        3.1521384     0.5959747     0.2368215
  C       -3.1875810    -0.0227020     0.0140150
  C        2.9917500    -0.7051290    -0.2688550
  H       -0.5788940     2.1134690    -0.4901430
  H       -0.4926250    -2.0861370     0.4161180
  H        1.4325560     1.9713960     0.8093900
  H       -3.0617120     2.0872770    -0.4220560
  H       -2.9921950    -2.1322260     0.4251330
  H        4.0379080     1.1354570     0.4652770
  H       -4.2743140    -0.0387150     0.0221240
  H        3.7631710    -1.4121260    -0.5458550
units angstrom
no_reorient  #important for SAPT in psi4, default
symmetry c1  #important for SAPT in psi4, default
}

set PROPERTIES_ORIGIN ["COM"]
properties('MP2/aug-cc-pvtz', properties = ['dipole'])
--------------------------------------------------------------------------

    Molecular point group: c1
  Charge       = 0
  Multiplicity = 1
  Basis Set: AUG-CC-PVTZ
    Blend: AUG-CC-PVTZ
  Basis Set: (AUG-CC-PVTZ AUX)
    Blend: AUG-CC-PVTZ-JKFIT

    Orbital Energies [Eh]
    ---------------------

    Doubly Occupied:

       1A    -15.653728     2A    -15.589769     3A    -11.292217
       4A    -11.285676     5A    -11.260042     6A    -11.248602
       7A    -11.247230     8A    -11.246327     9A    -11.241569
      10A    -11.241391    11A    -11.229053    12A     -1.381817
      13A     -1.175691    14A     -1.110605    15A     -1.060563
      16A     -1.024671    17A     -0.998811    18A     -0.862083
      19A     -0.847982    20A     -0.798619    21A     -0.776833
      22A     -0.742510    23A     -0.687193    24A     -0.649441
      25A     -0.639827    26A     -0.617023    27A     -0.597679
      28A     -0.596157    29A     -0.591431    30A     -0.557734
      31A     -0.520839    32A     -0.510942    33A     -0.507463
      34A     -0.463178    35A     -0.395121    36A     -0.348153
      37A     -0.345222    38A     -0.313789

  @DF-RHF Final Energy:  -454.48661338801310

   => Energetics <=

    Nuclear Repulsion Energy =            545.8893033579727216
    One-Electron Energy =               -1697.4378760621063975
    Two-Electron Energy =                 697.0619593161205785
    Total Energy =                       -454.4866133880130974
  Basis Set: (AUG-CC-PVTZ AUX)
    Blend: AUG-CC-PVTZ-RI
    Molecular point group: c1

    Geometry (in Angstrom), charge = 0, multiplicity = 1:

       Center              X                  Y                   Z               Mass
    ------------   -----------------  -----------------  -----------------  -----------------
         N            0.994896315859     0.044827339344     0.005580480611    14.003074004430
         N            1.682777315859    -1.045129660656    -0.413198519389    14.003074004430
         C           -0.423396684141     0.027890339344    -0.003326519389    12.000000000000
         C           -1.129414684141     1.208226339344    -0.249280519389    12.000000000000
         C           -1.089946684141    -1.175011660656     0.243581480611    12.000000000000
         C            1.814287315859     1.062389339344     0.411931480611    12.000000000000
         C           -2.524269684141     1.183532339344    -0.225645519389    12.000000000000
         C           -2.483837684141    -1.187738660656     0.241776480611    12.000000000000
         C            3.135131715859     0.607479039344     0.241595980611    12.000000000000
         C           -3.204587684141    -0.011197660656     0.018789480611    12.000000000000
         C            2.974743315859    -0.693624660656    -0.264080519389    12.000000000000
         H           -0.595900684141     2.124973339344    -0.485368519389     1.007825032230
         H           -0.509631684141    -2.074632660656     0.420892480611     1.007825032230
         H            1.415549315859     1.982900339344     0.814164480611     1.007825032230
         H           -3.078718684141     2.098781339344    -0.417281519389     1.007825032230
         H           -3.009201684141    -2.120721660656     0.429907480611     1.007825032230
         H            4.020901315859     1.146961339344     0.470051480611     1.007825032230
         H           -4.291320684141    -0.027210660656     0.026898480611     1.007825032230
         H            3.746164315859    -1.400621660656    -0.541080519389     1.007825032230

  Basis Set: AUG-CC-PVTZ
    Blend: AUG-CC-PVTZ
  Basis Set: (AUG-CC-PVTZ AUX)
    Blend: AUG-CC-PVTZ-JKFIT
	 Reference Energy          =    -454.4866133880130974 [Eh]
	 Singles Energy            =      -0.0000000000000000 [Eh]
	 Same-Spin Energy          =      -0.5098308344923809 [Eh]
	 Opposite-Spin Energy      =      -1.5483102185585571 [Eh]
	 Correlation Energy        =      -2.0581410530509379 [Eh]
	 Total Energy              =    -456.5447544410640148 [Eh]

	 ================> DF-SCS-MP2 Energies <==================
	-----------------------------------------------------------
	 SCS Same-Spin Scale       =       0.3333333333333333 [-]
	 SCS Opposite-Spin Scale   =       1.2000000000000000 [-]
	 SCS Same-Spin Energy      =      -0.1699436114974603 [Eh]
	 SCS Opposite-Spin Energy  =      -1.8579722622702683 [Eh]
	 SCS Correlation Energy    =      -2.0279158737677285 [Eh]
	 SCS Total Energy          =    -456.5145292617808082 [Eh]
	-----------------------------------------------------------

  Dipole Moment: [D]
     X:    -0.9288      Y:     1.6380      Z:     0.7391     Total:     2.0229

*** Psi4 exiting successfully. Buy a developer a beer!
