                               Psi4 1.3.2 release

  ==> Input File <==

--------------------------------------------------------------------------
#psi4
#
memory 32 gb

molecule  {
0 1
  N        1.0115564    -0.0151949     0.0106603
  N        1.6997840    -1.0566340    -0.4179730
  C       -0.4063900     0.0163860    -0.0081010
  C       -1.1124080     1.1967220    -0.2540550
  C       -1.0729400    -1.1865160     0.2388070
  C        1.8312940     1.0508850     0.4071570
  C       -2.5072630     1.1720280    -0.2304200
  C       -2.4668310    -1.1992430     0.2370020
  C        3.1277520     0.5983640     0.2378140
  C       -3.1875810    -0.0227020     0.0140150
  C        2.9917500    -0.7051290    -0.2688550
  H       -0.5788940     2.1134690    -0.4901430
  H       -0.4926250    -2.0861370     0.4161180
  H        1.4325560     1.9713960     0.8093900
  H       -3.0617120     2.0872770    -0.4220560
  H       -2.9921950    -2.1322260     0.4251330
  H        4.0379080     1.1354570     0.4652770
  H       -4.2743140    -0.0387150     0.0221240
  H        3.7631710    -1.4121260    -0.5458550
units angstrom
no_reorient  #important for SAPT in psi4, default
symmetry c1  #important for SAPT in psi4, default
}

set PROPERTIES_ORIGIN ["COM"]
properties('MP2/aug-cc-pvtz', properties = ['dipole'])
--------------------------------------------------------------------------

    Molecular point group: c1
  Charge       = 0
  Multiplicity = 1
  Basis Set: AUG-CC-PVTZ
    Blend: AUG-CC-PVTZ
  Basis Set: (AUG-CC-PVTZ AUX)
    Blend: AUG-CC-PVTZ-JKFIT

    Orbital Energies [Eh]
    ---------------------

    Doubly Occupied:

       1A    -15.653795     2A    -15.592499     3A    -11.291610
       4A    -11.281213     5A    -11.256742     6A    -11.248902
       7A    -11.247659     8A    -11.245826     9A    -11.241125
      10A    -11.240361    11A    -11.230707    12A     -1.391422
      13A     -1.176043    14A     -1.107418    15A     -1.064164
      16A     -1.024591    17A     -0.998048    18A     -0.860642
      19A     -0.848347    20A     -0.798742    21A     -0.777172
      22A     -0.741449    23A     -0.687025    24A     -0.650095
      25A     -0.641263    26A     -0.617181    27A     -0.599526
      28A     -0.597299    29A     -0.586693    30A     -0.562864
      31A     -0.520102    32A     -0.511194    33A     -0.507218
      34A     -0.462186    35A     -0.393841    36A     -0.350020
      37A     -0.346378    38A     -0.311748

  @DF-RHF Final Energy:  -454.48561764356975

   => Energetics <=

    Nuclear Repulsion Energy =            546.4832179460789803
    One-Electron Energy =               -1698.6114525257398782
    Two-Electron Energy =                 697.6426169360910308
    Total Energy =                       -454.4856176435697535
  Basis Set: (AUG-CC-PVTZ AUX)
    Blend: AUG-CC-PVTZ-RI
    Molecular point group: c1

    Geometry (in Angstrom), charge = 0, multiplicity = 1:

       Center              X                  Y                   Z               Mass
    ------------   -----------------  -----------------  -----------------  -----------------
         N            0.996614634649     0.000826228391     0.014394301714    14.003074004430
         N            1.684842234649    -1.040612871609    -0.414238998286    14.003074004430
         C           -0.421331765351     0.032407128391    -0.004366998286    12.000000000000
         C           -1.127349765351     1.212743128391    -0.250320998286    12.000000000000
         C           -1.087881765351    -1.170494871609     0.242541001714    12.000000000000
         C            1.816352234649     1.066906128391     0.410891001714    12.000000000000
         C           -2.522204765351     1.188049128391    -0.226685998286    12.000000000000
         C           -2.481772765351    -1.183221871609     0.240736001714    12.000000000000
         C            3.112810234649     0.614385128391     0.241548001714    12.000000000000
         C           -3.202522765351    -0.006680871609     0.017749001714    12.000000000000
         C            2.976808234649    -0.689107871609    -0.265120998286    12.000000000000
         H           -0.593835765351     2.129490128391    -0.486408998286     1.007825032230
         H           -0.507566765351    -2.070115871609     0.419852001714     1.007825032230
         H            1.417614234649     1.987417128391     0.813124001714     1.007825032230
         H           -3.076653765351     2.103298128391    -0.418321998286     1.007825032230
         H           -3.007136765351    -2.116204871609     0.428867001714     1.007825032230
         H            4.022966234649     1.151478128391     0.469011001714     1.007825032230
         H           -4.289255765351    -0.022693871609     0.025858001714     1.007825032230
         H            3.748229234649    -1.396104871609    -0.542120998286     1.007825032230

  Basis Set: AUG-CC-PVTZ
    Blend: AUG-CC-PVTZ
  Basis Set: (AUG-CC-PVTZ AUX)
    Blend: AUG-CC-PVTZ-JKFIT
	 Reference Energy          =    -454.4856176435697535 [Eh]
	 Singles Energy            =      -0.0000000000000000 [Eh]
	 Same-Spin Energy          =      -0.5099962616086604 [Eh]
	 Opposite-Spin Energy      =      -1.5480635581813045 [Eh]
	 Correlation Energy        =      -2.0580598197899649 [Eh]
	 Total Energy              =    -456.5436774633596997 [Eh]

	 ================> DF-SCS-MP2 Energies <==================
	-----------------------------------------------------------
	 SCS Same-Spin Scale       =       0.3333333333333333 [-]
	 SCS Opposite-Spin Scale   =       1.2000000000000000 [-]
	 SCS Same-Spin Energy      =      -0.1699987538695535 [Eh]
	 SCS Opposite-Spin Energy  =      -1.8576762698175653 [Eh]
	 SCS Correlation Energy    =      -2.0276750236871188 [Eh]
	 SCS Total Energy          =    -456.5132926672568487 [Eh]
	-----------------------------------------------------------

  Dipole Moment: [D]
     X:    -0.8888      Y:     1.6528      Z:     0.7336     Total:     2.0149

*** Psi4 exiting successfully. Buy a developer a beer!
