                               Psi4 1.3.2 release

  ==> Input File <==

--------------------------------------------------------------------------
#psi4
#
memory 32 gb

molecule  {
0 1
  N        1.0119030     0.0333230     0.0008060
  N        1.7200573    -1.0452770    -0.4135634
  C       -0.4063900     0.0163860    -0.0081010
  C       -1.1124080     1.1967220    -0.2540550
  C       -1.0729400    -1.1865160     0.2388070
  C        1.8312940     1.0508850     0.4071570
  C       -2.5072630     1.1720280    -0.2304200
  C       -2.4668310    -1.1992430     0.2370020
  C        3.1277520     0.5983640     0.2378140
  C       -3.1875810    -0.0227020     0.0140150
  C        2.9917500    -0.7051290    -0.2688550
  H       -0.5788940     2.1134690    -0.4901430
  H       -0.4926250    -2.0861370     0.4161180
  H        1.4325560     1.9713960     0.8093900
  H       -3.0617120     2.0872770    -0.4220560
  H       -2.9921950    -2.1322260     0.4251330
  H        4.0379080     1.1354570     0.4652770
  H       -4.2743140    -0.0387150     0.0221240
  H        3.7631710    -1.4121260    -0.5458550
units angstrom
no_reorient  #important for SAPT in psi4, default
symmetry c1  #important for SAPT in psi4, default
}

set PROPERTIES_ORIGIN ["COM"]
properties('MP2/aug-cc-pvtz', properties = ['dipole'])
--------------------------------------------------------------------------

    Molecular point group: c1
  Charge       = 0
  Multiplicity = 1
  Basis Set: AUG-CC-PVTZ
    Blend: AUG-CC-PVTZ
  Basis Set: (AUG-CC-PVTZ AUX)
    Blend: AUG-CC-PVTZ-JKFIT

    Orbital Energies [Eh]
    ---------------------

    Doubly Occupied:

       1A    -15.650335     2A    -15.587964     3A    -11.292271
       4A    -11.281897     5A    -11.256964     6A    -11.248365
       7A    -11.246860     8A    -11.246125     9A    -11.241137
      10A    -11.240936    11A    -11.226644    12A     -1.384374
      13A     -1.177456    14A     -1.114057    15A     -1.062149
      16A     -1.024633    17A     -0.998781    18A     -0.860674
      19A     -0.848578    20A     -0.798834    21A     -0.777050
      22A     -0.742325    23A     -0.687013    24A     -0.649528
      25A     -0.641040    26A     -0.615987    27A     -0.597955
      28A     -0.595481    29A     -0.588899    30A     -0.564703
      31A     -0.520538    32A     -0.511409    33A     -0.507113
      34A     -0.459465    35A     -0.396816    36A     -0.350500
      37A     -0.346666    38A     -0.313069

  @DF-RHF Final Energy:  -454.48995809874327

   => Energetics <=

    Nuclear Repulsion Energy =            546.6454684740800758
    One-Electron Energy =               -1698.9616735746899394
    Two-Electron Energy =                 697.8262470018664771
    Total Energy =                       -454.4899580987432728
  Basis Set: (AUG-CC-PVTZ AUX)
    Blend: AUG-CC-PVTZ-RI
    Molecular point group: c1

    Geometry (in Angstrom), charge = 0, multiplicity = 1:

       Center              X                  Y                   Z               Mass
    ------------   -----------------  -----------------  -----------------  -----------------
         N            0.994957038811     0.043524457812     0.005069211123    14.003074004430
         N            1.703111338811    -1.035075542188    -0.409300188877    14.003074004430
         C           -0.423335961189     0.026587457812    -0.003837788877    12.000000000000
         C           -1.129353961189     1.206923457812    -0.249791788877    12.000000000000
         C           -1.089885961189    -1.176314542188     0.243070211123    12.000000000000
         C            1.814348038811     1.061086457812     0.411420211123    12.000000000000
         C           -2.524208961189     1.182229457812    -0.226156788877    12.000000000000
         C           -2.483776961189    -1.189041542188     0.241265211123    12.000000000000
         C            3.110806038811     0.608565457812     0.242077211123    12.000000000000
         C           -3.204526961189    -0.012500542188     0.018278211123    12.000000000000
         C            2.974804038811    -0.694927542188    -0.264591788877    12.000000000000
         H           -0.595839961189     2.123670457812    -0.485879788877     1.007825032230
         H           -0.509570961189    -2.075935542188     0.420381211123     1.007825032230
         H            1.415610038811     1.981597457812     0.813653211123     1.007825032230
         H           -3.078657961189     2.097478457812    -0.417792788877     1.007825032230
         H           -3.009140961189    -2.122024542188     0.429396211123     1.007825032230
         H            4.020962038811     1.145658457812     0.469540211123     1.007825032230
         H           -4.291259961189    -0.028513542188     0.026387211123     1.007825032230
         H            3.746225038811    -1.401924542188    -0.541591788877     1.007825032230

  Basis Set: AUG-CC-PVTZ
    Blend: AUG-CC-PVTZ
  Basis Set: (AUG-CC-PVTZ AUX)
    Blend: AUG-CC-PVTZ-JKFIT
	 Reference Energy          =    -454.4899580987432728 [Eh]
	 Singles Energy            =      -0.0000000000000000 [Eh]
	 Same-Spin Energy          =      -0.5089803488059281 [Eh]
	 Opposite-Spin Energy      =      -1.5465246010225298 [Eh]
	 Correlation Energy        =      -2.0555049498284577 [Eh]
	 Total Energy              =    -456.5454630485717189 [Eh]

	 ================> DF-SCS-MP2 Energies <==================
	-----------------------------------------------------------
	 SCS Same-Spin Scale       =       0.3333333333333333 [-]
	 SCS Opposite-Spin Scale   =       1.2000000000000000 [-]
	 SCS Same-Spin Energy      =      -0.1696601162686427 [Eh]
	 SCS Opposite-Spin Energy  =      -1.8558295212270357 [Eh]
	 SCS Correlation Energy    =      -2.0254896374956783 [Eh]
	 SCS Total Energy          =    -456.5154477362389684 [Eh]
	-----------------------------------------------------------

  Dipole Moment: [D]
     X:    -0.9017      Y:     1.6021      Z:     0.7239     Total:     1.9758

*** Psi4 exiting successfully. Buy a developer a beer!
