                               Psi4 1.3.2 release

  ==> Input File <==

--------------------------------------------------------------------------
#psi4
#
memory 32 gb

molecule  {
0 1
  N        1.0119030     0.0333230     0.0008060
  N        1.6997840    -1.0566340    -0.4179730
  C       -0.4063900     0.0163860    -0.0081010
  C       -1.1124080     1.1967220    -0.2540550
  C       -1.0729400    -1.1865160     0.2388070
  C        1.8399232     1.0718952     0.4153551
  C       -2.5072630     1.1720280    -0.2304200
  C       -2.4668310    -1.1992430     0.2370020
  C        3.1277520     0.5983640     0.2378140
  C       -3.1875810    -0.0227020     0.0140150
  C        2.9917500    -0.7051290    -0.2688550
  H       -0.5788940     2.1134690    -0.4901430
  H       -0.4926250    -2.0861370     0.4161180
  H        1.4325560     1.9713960     0.8093900
  H       -3.0617120     2.0872770    -0.4220560
  H       -2.9921950    -2.1322260     0.4251330
  H        4.0379080     1.1354570     0.4652770
  H       -4.2743140    -0.0387150     0.0221240
  H        3.7631710    -1.4121260    -0.5458550
units angstrom
no_reorient  #important for SAPT in psi4, default
symmetry c1  #important for SAPT in psi4, default
}

set PROPERTIES_ORIGIN ["COM"]
properties('MP2/aug-cc-pvtz', properties = ['dipole'])
--------------------------------------------------------------------------

    Molecular point group: c1
  Charge       = 0
  Multiplicity = 1
  Basis Set: AUG-CC-PVTZ
    Blend: AUG-CC-PVTZ
  Basis Set: (AUG-CC-PVTZ AUX)
    Blend: AUG-CC-PVTZ-JKFIT

    Orbital Energies [Eh]
    ---------------------

    Doubly Occupied:

       1A    -15.651333     2A    -15.593468     3A    -11.291023
       4A    -11.283311     5A    -11.259945     6A    -11.247726
       7A    -11.246064     8A    -11.245529     9A    -11.240326
      10A    -11.240175    11A    -11.230197    12A     -1.378300
      13A     -1.174819    14A     -1.108576    15A     -1.063558
      16A     -1.023925    17A     -0.996874    18A     -0.859960
      19A     -0.847322    20A     -0.797163    21A     -0.778248
      22A     -0.742816    23A     -0.686557    24A     -0.648092
      25A     -0.639432    26A     -0.613701    27A     -0.596797
      28A     -0.594467    29A     -0.588040    30A     -0.566930
      31A     -0.519373    32A     -0.510213    33A     -0.506516
      34A     -0.463940    35A     -0.394569    36A     -0.350440
      37A     -0.346020    38A     -0.311698

  @DF-RHF Final Energy:  -454.48616856564826

   => Energetics <=

    Nuclear Repulsion Energy =            545.8447718934223758
    One-Electron Energy =               -1697.3869960195797830
    Two-Electron Energy =                 697.0560555605090940
    Total Energy =                       -454.4861685656483132
  Basis Set: (AUG-CC-PVTZ AUX)
    Blend: AUG-CC-PVTZ-RI
    Molecular point group: c1

    Geometry (in Angstrom), charge = 0, multiplicity = 1:

       Center              X                  Y                   Z               Mass
    ------------   -----------------  -----------------  -----------------  -----------------
         N            0.996208789260     0.042878311512     0.004814962750    14.003074004430
         N            1.684089789260    -1.047078688488    -0.413964037250    14.003074004430
         C           -0.422084210740     0.025941311512    -0.004092037250    12.000000000000
         C           -1.128102210740     1.206277311512    -0.250046037250    12.000000000000
         C           -1.088634210740    -1.176960688488     0.242815962750    12.000000000000
         C            1.824228989260     1.081450511512     0.419364062750    12.000000000000
         C           -2.522957210740     1.181583311512    -0.226411037250    12.000000000000
         C           -2.482525210740    -1.189687688488     0.241010962750    12.000000000000
         C            3.112057789260     0.607919311512     0.241822962750    12.000000000000
         C           -3.203275210740    -0.013146688488     0.018023962750    12.000000000000
         C            2.976055789260    -0.695573688488    -0.264846037250    12.000000000000
         H           -0.594588210740     2.123024311512    -0.486134037250     1.007825032230
         H           -0.508319210740    -2.076581688488     0.420126962750     1.007825032230
         H            1.416861789260     1.980951311512     0.813398962750     1.007825032230
         H           -3.077406210740     2.096832311512    -0.418047037250     1.007825032230
         H           -3.007889210740    -2.122670688488     0.429141962750     1.007825032230
         H            4.022213789260     1.145012311512     0.469285962750     1.007825032230
         H           -4.290008210740    -0.029159688488     0.026132962750     1.007825032230
         H            3.747476789260    -1.402570688488    -0.541846037250     1.007825032230

  Basis Set: AUG-CC-PVTZ
    Blend: AUG-CC-PVTZ
  Basis Set: (AUG-CC-PVTZ AUX)
    Blend: AUG-CC-PVTZ-JKFIT
	 Reference Energy          =    -454.4861685656482564 [Eh]
	 Singles Energy            =      -0.0000000000000000 [Eh]
	 Same-Spin Energy          =      -0.5099027369441376 [Eh]
	 Opposite-Spin Energy      =      -1.5486086506356875 [Eh]
	 Correlation Energy        =      -2.0585113875798253 [Eh]
	 Total Energy              =    -456.5446799532280693 [Eh]

	 ================> DF-SCS-MP2 Energies <==================
	-----------------------------------------------------------
	 SCS Same-Spin Scale       =       0.3333333333333333 [-]
	 SCS Opposite-Spin Scale   =       1.2000000000000000 [-]
	 SCS Same-Spin Energy      =      -0.1699675789813792 [Eh]
	 SCS Opposite-Spin Energy  =      -1.8583303807628249 [Eh]
	 SCS Correlation Energy    =      -2.0282979597442039 [Eh]
	 SCS Total Energy          =    -456.5144665253924359 [Eh]
	-----------------------------------------------------------

  Dipole Moment: [D]
     X:    -0.8315      Y:     1.6348      Z:     0.7388     Total:     1.9773

*** Psi4 exiting successfully. Buy a developer a beer!
