                               Psi4 1.4a3.dev225

  ==> Input File <==

--------------------------------------------------------------------------
#psi4
#
memory 32 gb

molecule  {
0 1
  N        1.0119030     0.0333230     0.0008060
  N        1.6997840    -1.0566340    -0.4179730
  C       -0.4063900     0.0163860    -0.0081010
  C       -1.1124080     1.1967220    -0.2540550
  C       -1.0729400    -1.1865160     0.2388070
  C        1.8312940     1.0508850     0.4071570
  C       -2.5072630     1.1720280    -0.2304200
  C       -2.4668310    -1.1992430     0.2370020
  C        3.1277520     0.5983640     0.2378140
  C       -3.1875810    -0.0227020     0.0140150
  C        2.9917500    -0.7051290    -0.2688550
  H       -0.5788940     2.1134690    -0.4901430
  H       -0.4926250    -2.0861370     0.4161180
  H        1.4141095     2.0139808     0.8279982
  H       -3.0617120     2.0872770    -0.4220560
  H       -2.9921950    -2.1322260     0.4251330
  H        4.0379080     1.1354570     0.4652770
  H       -4.2743140    -0.0387150     0.0221240
  H        3.7631710    -1.4121260    -0.5458550
units angstrom
no_reorient  #important for SAPT in psi4, default
symmetry c1  #important for SAPT in psi4, default
}

set PROPERTIES_ORIGIN ["COM"]
properties('MP2/aug-cc-pvtz', properties = ['dipole'])
--------------------------------------------------------------------------

    Molecular point group: c1
  Charge       = 0
  Multiplicity = 1
  Basis Set: AUG-CC-PVTZ
    Blend: AUG-CC-PVTZ
  Basis Set: (AUG-CC-PVTZ AUX)
    Blend: AUG-CC-PVTZ-JKFIT

    Orbital Energies [Eh]
    ---------------------

    Doubly Occupied:

       1A    -15.652113     2A    -15.590911     3A    -11.291688
       4A    -11.287815     5A    -11.259916     6A    -11.248130
       7A    -11.246635     8A    -11.245916     9A    -11.240997
      10A    -11.240830    11A    -11.228329    12A     -1.382638
      13A     -1.175507    14A     -1.110188    15A     -1.062885
      16A     -1.024340    17A     -0.998213    18A     -0.860177
      19A     -0.847911    20A     -0.795957    21A     -0.775458
      22A     -0.737197    23A     -0.685846    24A     -0.648947
      25A     -0.639624    26A     -0.615129    27A     -0.597213
      28A     -0.594401    29A     -0.586409    30A     -0.560894
      31A     -0.520257    32A     -0.510755    33A     -0.506891
      34A     -0.462884    35A     -0.395083    36A     -0.349923
      37A     -0.346275    38A     -0.313056

  @DF-RHF Final Energy:  -454.48546998402810

   => Energetics <=

    Nuclear Repulsion Energy =            546.1228511497201907
    One-Electron Energy =               -1697.9419730404513302
    Two-Electron Energy =                 697.3336519067030395
    Total Energy =                       -454.4854699840281000
  Basis Set: (AUG-CC-PVTZ AUX)
    Blend: AUG-CC-PVTZ-RI
    Molecular point group: c1

    Geometry (in Angstrom), charge = 0, multiplicity = 1:

       Center              X                  Y                   Z               Mass
    ------------   -----------------  -----------------  -----------------  -----------------
         N            0.997056587591     0.044330426389     0.005367639102    14.003074004430
         N            1.684937587591    -1.045626573611    -0.413411360898    14.003074004430
         C           -0.421236412409     0.027393426389    -0.003539360898    12.000000000000
         C           -1.127254412409     1.207729426389    -0.249493360898    12.000000000000
         C           -1.087786412409    -1.175508573611     0.243368639102    12.000000000000
         C            1.816447587591     1.061892426389     0.411718639102    12.000000000000
         C           -2.522109412409     1.183035426389    -0.225858360898    12.000000000000
         C           -2.481677412409    -1.188235573611     0.241563639102    12.000000000000
         C            3.112905587591     0.609371426389     0.242375639102    12.000000000000
         C           -3.202427412409    -0.011694573611     0.018576639102    12.000000000000
         C            2.976903587591    -0.694121573611    -0.264293360898    12.000000000000
         H           -0.593740412409     2.124476426389    -0.485581360898     1.007825032230
         H           -0.507471412409    -2.075129573611     0.420679639102     1.007825032230
         H            1.399263087591     2.024988226389     0.832559839102     1.007825032230
         H           -3.076558412409     2.098284426389    -0.417494360898     1.007825032230
         H           -3.007041412409    -2.121218573611     0.429694639102     1.007825032230
         H            4.023061587591     1.146464426389     0.469838639102     1.007825032230
         H           -4.289160412409    -0.027707573611     0.026685639102     1.007825032230
         H            3.748324587591    -1.401118573611    -0.541293360898     1.007825032230

  Basis Set: AUG-CC-PVTZ
    Blend: AUG-CC-PVTZ
  Basis Set: (AUG-CC-PVTZ AUX)
    Blend: AUG-CC-PVTZ-JKFIT
	 Reference Energy          =    -454.4854699840281000 [Eh]
	 Singles Energy            =      -0.0000000000000000 [Eh]
	 Same-Spin Energy          =      -0.5098220675846308 [Eh]
	 Opposite-Spin Energy      =      -1.5483662191243488 [Eh]
	 Correlation Energy        =      -2.0581882867089796 [Eh]
	 Total Energy              =    -456.5436582707370690 [Eh]

	 ================> DF-SCS-MP2 Energies <==================
	-----------------------------------------------------------
	 SCS Same-Spin Scale       =       0.3333333333333333 [-]
	 SCS Opposite-Spin Scale   =       1.2000000000000000 [-]
	 SCS Same-Spin Energy      =      -0.1699406891948769 [Eh]
	 SCS Opposite-Spin Energy  =      -1.8580394629492185 [Eh]
	 SCS Correlation Energy    =      -2.0279801521440954 [Eh]
	 SCS Total Energy          =    -456.5134501361721959 [Eh]
	-----------------------------------------------------------

  Dipole Moment: [D]
     X:    -0.8830      Y:     1.6404      Z:     0.7404     Total:     2.0047

*** Psi4 exiting successfully. Buy a developer a beer!
