                               Psi4 1.3.2 release

  ==> Input File <==

--------------------------------------------------------------------------
#psi4
#
memory 32 gb

molecule  {
0 1
  N        1.0950250     0.0751169     0.0178812
  N        1.6997840    -1.0566340    -0.4179730
  C       -0.4063900     0.0163860    -0.0081010
  C       -1.1124080     1.1967220    -0.2540550
  C       -1.0729400    -1.1865160     0.2388070
  C        1.8312940     1.0508850     0.4071570
  C       -2.5072630     1.1720280    -0.2304200
  C       -2.4668310    -1.1992430     0.2370020
  C        3.1277520     0.5983640     0.2378140
  C       -3.1875810    -0.0227020     0.0140150
  C        2.9917500    -0.7051290    -0.2688550
  H       -0.5788940     2.1134690    -0.4901430
  H       -0.4926250    -2.0861370     0.4161180
  H        1.4325560     1.9713960     0.8093900
  H       -3.0617120     2.0872770    -0.4220560
  H       -2.9921950    -2.1322260     0.4251330
  H        4.0379080     1.1354570     0.4652770
  H       -4.2743140    -0.0387150     0.0221240
  H        3.7631710    -1.4121260    -0.5458550
units angstrom
no_reorient  #important for SAPT in psi4, default
symmetry c1  #important for SAPT in psi4, default
}

set PROPERTIES_ORIGIN ["COM"]
properties('MP2/aug-cc-pvtz', properties = ['dipole'])
--------------------------------------------------------------------------

    Molecular point group: c1
  Charge       = 0
  Multiplicity = 1
  Basis Set: AUG-CC-PVTZ
    Blend: AUG-CC-PVTZ
  Basis Set: (AUG-CC-PVTZ AUX)
    Blend: AUG-CC-PVTZ-JKFIT

    Orbital Energies [Eh]
    ---------------------

    Doubly Occupied:

       1A    -15.652277     2A    -15.584359     3A    -11.298151
       4A    -11.273993     5A    -11.255319     6A    -11.251049
       7A    -11.249676     8A    -11.248729     9A    -11.245909
      10A    -11.244714    11A    -11.217962    12A     -1.393840
      13A     -1.171740    14A     -1.114979    15A     -1.067564
      16A     -1.027516    17A     -0.999380    18A     -0.851526
      19A     -0.846215    20A     -0.802134    21A     -0.775318
      22A     -0.748149    23A     -0.689374    24A     -0.649615
      25A     -0.636501    26A     -0.619141    27A     -0.600071
      28A     -0.594011    29A     -0.577441    30A     -0.561123
      31A     -0.518872    32A     -0.512997    33A     -0.508520
      34A     -0.469599    35A     -0.388965    36A     -0.351160
      37A     -0.348734    38A     -0.318809

  @DF-RHF Final Energy:  -454.47645580762935

   => Energetics <=

    Nuclear Repulsion Energy =            546.4282309977331806
    One-Electron Energy =               -1698.4785105843948259
    Two-Electron Energy =                 697.5738237790322955
    Total Energy =                       -454.4764558076293497
  Basis Set: (AUG-CC-PVTZ AUX)
    Blend: AUG-CC-PVTZ-RI
    Molecular point group: c1

    Geometry (in Angstrom), charge = 0, multiplicity = 1:

       Center              X                  Y                   Z               Mass
    ------------   -----------------  -----------------  -----------------  -----------------
         N            1.071970323300     0.082359977397     0.020913350700    14.003074004430
         N            1.676729323300    -1.049390922603    -0.414940849300    14.003074004430
         C           -0.429444676700     0.023629077397    -0.005068849300    12.000000000000
         C           -1.135462676700     1.203965077397    -0.251022849300    12.000000000000
         C           -1.095994676700    -1.179272922603     0.241839150700    12.000000000000
         C            1.808239323300     1.058128077397     0.410189150700    12.000000000000
         C           -2.530317676700     1.179271077397    -0.227387849300    12.000000000000
         C           -2.489885676700    -1.191999922603     0.240034150700    12.000000000000
         C            3.104697323300     0.605607077397     0.240846150700    12.000000000000
         C           -3.210635676700    -0.015458922603     0.017047150700    12.000000000000
         C            2.968695323300    -0.697885922603    -0.265822849300    12.000000000000
         H           -0.601948676700     2.120712077397    -0.487110849300     1.007825032230
         H           -0.515679676700    -2.078893922603     0.419150150700     1.007825032230
         H            1.409501323300     1.978639077397     0.812422150700     1.007825032230
         H           -3.084766676700     2.094520077397    -0.419023849300     1.007825032230
         H           -3.015249676700    -2.124982922603     0.428165150700     1.007825032230
         H            4.014853323300     1.142700077397     0.468309150700     1.007825032230
         H           -4.297368676700    -0.031471922603     0.025156150700     1.007825032230
         H            3.740116323300    -1.404882922603    -0.542822849300     1.007825032230

  Basis Set: AUG-CC-PVTZ
    Blend: AUG-CC-PVTZ
  Basis Set: (AUG-CC-PVTZ AUX)
    Blend: AUG-CC-PVTZ-JKFIT
	 Reference Energy          =    -454.4764558076293497 [Eh]
	 Singles Energy            =      -0.0000000000000000 [Eh]
	 Same-Spin Energy          =      -0.5092403840120323 [Eh]
	 Opposite-Spin Energy      =      -1.5468748897179858 [Eh]
	 Correlation Energy        =      -2.0561152737300183 [Eh]
	 Total Energy              =    -456.5325710813593787 [Eh]

	 ================> DF-SCS-MP2 Energies <==================
	-----------------------------------------------------------
	 SCS Same-Spin Scale       =       0.3333333333333333 [-]
	 SCS Opposite-Spin Scale   =       1.2000000000000000 [-]
	 SCS Same-Spin Energy      =      -0.1697467946706774 [Eh]
	 SCS Opposite-Spin Energy  =      -1.8562498676615828 [Eh]
	 SCS Correlation Energy    =      -2.0259966623322603 [Eh]
	 SCS Total Energy          =    -456.5024524699616109 [Eh]
	-----------------------------------------------------------

  Dipole Moment: [D]
     X:    -1.2643      Y:     1.6527      Z:     0.7529     Total:     2.2129

*** Psi4 exiting successfully. Buy a developer a beer!
