                               Psi4 1.3.2 release

  ==> Input File <==

--------------------------------------------------------------------------
#psi4
#
memory 32 gb

molecule  {
0 1
  N        1.0119030     0.0333230     0.0008060
  N        1.6997840    -1.0566340    -0.4179730
  C       -0.4921216    -0.0279655     0.0058165
  C       -1.1124080     1.1967220    -0.2540550
  C       -1.0729400    -1.1865160     0.2388070
  C        1.8312940     1.0508850     0.4071570
  C       -2.5072630     1.1720280    -0.2304200
  C       -2.4668310    -1.1992430     0.2370020
  C        3.1277520     0.5983640     0.2378140
  C       -3.1875810    -0.0227020     0.0140150
  C        2.9917500    -0.7051290    -0.2688550
  H       -0.5788940     2.1134690    -0.4901430
  H       -0.4926250    -2.0861370     0.4161180
  H        1.4325560     1.9713960     0.8093900
  H       -3.0617120     2.0872770    -0.4220560
  H       -2.9921950    -2.1322260     0.4251330
  H        4.0379080     1.1354570     0.4652770
  H       -4.2743140    -0.0387150     0.0221240
  H        3.7631710    -1.4121260    -0.5458550
units angstrom
no_reorient  #important for SAPT in psi4, default
symmetry c1  #important for SAPT in psi4, default
}

set PROPERTIES_ORIGIN ["COM"]
properties('MP2/aug-cc-pvtz', properties = ['dipole'])
--------------------------------------------------------------------------

    Molecular point group: c1
  Charge       = 0
  Multiplicity = 1
  Basis Set: AUG-CC-PVTZ
    Blend: AUG-CC-PVTZ
  Basis Set: (AUG-CC-PVTZ AUX)
    Blend: AUG-CC-PVTZ-JKFIT

    Orbital Energies [Eh]
    ---------------------

    Doubly Occupied:

       1A    -15.645965     2A    -15.585214     3A    -11.291109
       4A    -11.277402     5A    -11.253266     6A    -11.251458
       7A    -11.250218     8A    -11.250032     9A    -11.243714
      10A    -11.235686    11A    -11.222630    12A     -1.368973
      13A     -1.183069    14A     -1.098065    15A     -1.059467
      16A     -1.033139    17A     -1.002924    18A     -0.856001
      19A     -0.846237    20A     -0.794243    21A     -0.774534
      22A     -0.740048    23A     -0.687060    24A     -0.650796
      25A     -0.639834    26A     -0.615528    27A     -0.600704
      28A     -0.586353    29A     -0.584164    30A     -0.558954
      31A     -0.521815    32A     -0.519842    33A     -0.509281
      34A     -0.458133    35A     -0.388901    36A     -0.352281
      37A     -0.343423    38A     -0.321592

  @DF-RHF Final Energy:  -454.47650086823637

   => Energetics <=

    Nuclear Repulsion Energy =            546.2780741335932362
    One-Electron Energy =               -1698.3050417498961906
    Two-Electron Energy =                 697.5504667480665830
    Total Energy =                       -454.4765008682363714
  Basis Set: (AUG-CC-PVTZ AUX)
    Blend: AUG-CC-PVTZ-RI
    Molecular point group: c1

    Geometry (in Angstrom), charge = 0, multiplicity = 1:

       Center              X                  Y                   Z               Mass
    ------------   -----------------  -----------------  -----------------  -----------------
         N            1.004068436918     0.048322520679     0.004338573520    14.003074004430
         N            1.691949436918    -1.041634479321    -0.414440426480    14.003074004430
         C           -0.499956163082    -0.012965979321     0.009349073520    12.000000000000
         C           -1.120242563082     1.211721520679    -0.250522426480    12.000000000000
         C           -1.080774563082    -1.171516479321     0.242339573520    12.000000000000
         C            1.823459436918     1.065884520679     0.410689573520    12.000000000000
         C           -2.515097563082     1.187027520679    -0.226887426480    12.000000000000
         C           -2.474665563082    -1.184243479321     0.240534573520    12.000000000000
         C            3.119917436918     0.613363520679     0.241346573520    12.000000000000
         C           -3.195415563082    -0.007702479321     0.017547573520    12.000000000000
         C            2.983915436918    -0.690129479321    -0.265322426480    12.000000000000
         H           -0.586728563082     2.128468520679    -0.486610426480     1.007825032230
         H           -0.500459563082    -2.071137479321     0.419650573520     1.007825032230
         H            1.424721436918     1.986395520679     0.812922573520     1.007825032230
         H           -3.069546563082     2.102276520679    -0.418523426480     1.007825032230
         H           -3.000029563082    -2.117226479321     0.428665573520     1.007825032230
         H            4.030073436918     1.150456520679     0.468809573520     1.007825032230
         H           -4.282148563082    -0.023715479321     0.025656573520     1.007825032230
         H            3.755336436918    -1.397126479321    -0.542322426480     1.007825032230

  Basis Set: AUG-CC-PVTZ
    Blend: AUG-CC-PVTZ
  Basis Set: (AUG-CC-PVTZ AUX)
    Blend: AUG-CC-PVTZ-JKFIT
	 Reference Energy          =    -454.4765008682363714 [Eh]
	 Singles Energy            =      -0.0000000000000000 [Eh]
	 Same-Spin Energy          =      -0.5096066283728935 [Eh]
	 Opposite-Spin Energy      =      -1.5480852443211885 [Eh]
	 Correlation Energy        =      -2.0576918726940820 [Eh]
	 Total Energy              =    -456.5341927409304503 [Eh]

	 ================> DF-SCS-MP2 Energies <==================
	-----------------------------------------------------------
	 SCS Same-Spin Scale       =       0.3333333333333333 [-]
	 SCS Opposite-Spin Scale   =       1.2000000000000000 [-]
	 SCS Same-Spin Energy      =      -0.1698688761242978 [Eh]
	 SCS Opposite-Spin Energy  =      -1.8577022931854261 [Eh]
	 SCS Correlation Energy    =      -2.0275711693097240 [Eh]
	 SCS Total Energy          =    -456.5040720375461092 [Eh]
	-----------------------------------------------------------

  Dipole Moment: [D]
     X:    -1.3878      Y:     1.6210      Z:     0.7465     Total:     2.2607

*** Psi4 exiting successfully. Buy a developer a beer!
