                               Psi4 1.3.2 release

  ==> Input File <==

--------------------------------------------------------------------------
#psi4
#
memory 32 gb

molecule  {
0 1
  N        1.0119030     0.0333230     0.0008060
  N        1.6997840    -1.0566340    -0.4179730
  C       -0.4063900     0.0163860    -0.0081010
  C       -1.1124080     1.1967220    -0.2540550
  C       -1.0729400    -1.1865160     0.2388070
  C        1.8312940     1.0508850     0.4071570
  C       -2.5072630     1.1720280    -0.2304200
  C       -2.4668310    -1.1992430     0.2370020
  C        3.0298664     0.6039451     0.2402385
  C       -3.1875810    -0.0227020     0.0140150
  C        2.9917500    -0.7051290    -0.2688550
  H       -0.5788940     2.1134690    -0.4901430
  H       -0.4926250    -2.0861370     0.4161180
  H        1.4325560     1.9713960     0.8093900
  H       -3.0617120     2.0872770    -0.4220560
  H       -2.9921950    -2.1322260     0.4251330
  H        4.0379080     1.1354570     0.4652770
  H       -4.2743140    -0.0387150     0.0221240
  H        3.7631710    -1.4121260    -0.5458550
units angstrom
no_reorient  #important for SAPT in psi4, default
symmetry c1  #important for SAPT in psi4, default
}

set PROPERTIES_ORIGIN ["COM"]
properties('MP2/aug-cc-pvtz', properties = ['dipole'])
--------------------------------------------------------------------------

    Molecular point group: c1
  Charge       = 0
  Multiplicity = 1
  Basis Set: AUG-CC-PVTZ
    Blend: AUG-CC-PVTZ
  Basis Set: (AUG-CC-PVTZ AUX)
    Blend: AUG-CC-PVTZ-JKFIT

    Orbital Energies [Eh]
    ---------------------

    Doubly Occupied:

       1A    -15.644548     2A    -15.594952     3A    -11.289958
       4A    -11.269082     5A    -11.258876     6A    -11.246917
       7A    -11.244902     8A    -11.244723     9A    -11.239095
      10A    -11.238917    11A    -11.224261    12A     -1.386362
      13A     -1.175160    14A     -1.109596    15A     -1.080151
      16A     -1.023488    17A     -0.995686    18A     -0.856710
      19A     -0.847581    20A     -0.793856    21A     -0.780305
      22A     -0.743650    23A     -0.685444    24A     -0.648895
      25A     -0.640320    26A     -0.614159    27A     -0.598794
      28A     -0.595308    29A     -0.582908    30A     -0.563268
      31A     -0.517956    32A     -0.510495    33A     -0.504688
      34A     -0.461281    35A     -0.395523    36A     -0.362765
      37A     -0.345581    38A     -0.310075

  @DF-RHF Final Energy:  -454.47535856487372

   => Energetics <=

    Nuclear Repulsion Energy =            548.4003016470240937
    One-Electron Energy =               -1702.4988475911998194
    Two-Electron Energy =                 699.6231873793021805
    Total Energy =                       -454.4753585648736589
  Basis Set: (AUG-CC-PVTZ AUX)
    Blend: AUG-CC-PVTZ-RI
    Molecular point group: c1

    Geometry (in Angstrom), charge = 0, multiplicity = 1:

       Center              X                  Y                   Z               Mass
    ------------   -----------------  -----------------  -----------------  -----------------
         N            1.005080786937     0.044163456294     0.005295866491    14.003074004430
         N            1.692961786937    -1.045793543706    -0.413483133509    14.003074004430
         C           -0.413212213063     0.027226456294    -0.003611133509    12.000000000000
         C           -1.119230213063     1.207562456294    -0.249565133509    12.000000000000
         C           -1.079762213063    -1.175675543706     0.243296866491    12.000000000000
         C            1.824471786937     1.061725456294     0.411646866491    12.000000000000
         C           -2.514085213063     1.182868456294    -0.225930133509    12.000000000000
         C           -2.473653213063    -1.188402543706     0.241491866491    12.000000000000
         C            3.023044186937     0.614785556294     0.244728366491    12.000000000000
         C           -3.194403213063    -0.011861543706     0.018504866491    12.000000000000
         C            2.984927786937    -0.694288543706    -0.264365133509    12.000000000000
         H           -0.585716213063     2.124309456294    -0.485653133509     1.007825032230
         H           -0.499447213063    -2.075296543706     0.420607866491     1.007825032230
         H            1.425733786937     1.982236456294     0.813879866491     1.007825032230
         H           -3.068534213063     2.098117456294    -0.417566133509     1.007825032230
         H           -2.999017213063    -2.121385543706     0.429622866491     1.007825032230
         H            4.031085786937     1.146297456294     0.469766866491     1.007825032230
         H           -4.281136213063    -0.027874543706     0.026613866491     1.007825032230
         H            3.756348786937    -1.401285543706    -0.541365133509     1.007825032230

  Basis Set: AUG-CC-PVTZ
    Blend: AUG-CC-PVTZ
  Basis Set: (AUG-CC-PVTZ AUX)
    Blend: AUG-CC-PVTZ-JKFIT
	 Reference Energy          =    -454.4753585648737157 [Eh]
	 Singles Energy            =      -0.0000000000000000 [Eh]
	 Same-Spin Energy          =      -0.5092440986310061 [Eh]
	 Opposite-Spin Energy      =      -1.5470255700320368 [Eh]
	 Correlation Energy        =      -2.0562696686630426 [Eh]
	 Total Energy              =    -456.5316282335367646 [Eh]

	 ================> DF-SCS-MP2 Energies <==================
	-----------------------------------------------------------
	 SCS Same-Spin Scale       =       0.3333333333333333 [-]
	 SCS Opposite-Spin Scale   =       1.2000000000000000 [-]
	 SCS Same-Spin Energy      =      -0.1697480328770020 [Eh]
	 SCS Opposite-Spin Energy  =      -1.8564306840384441 [Eh]
	 SCS Correlation Energy    =      -2.0261787169154459 [Eh]
	 SCS Total Energy          =    -456.5015372817891830 [Eh]
	-----------------------------------------------------------

  Dipole Moment: [D]
     X:    -0.7289      Y:     1.6232      Z:     0.7312     Total:     1.9237

*** Psi4 exiting successfully. Buy a developer a beer!
