                               Psi4 1.4a3.dev225

  ==> Input File <==

--------------------------------------------------------------------------
#psi4
#
memory 32 gb

molecule  {
0 1
  N        1.0119030     0.0333230     0.0008060
  N        1.7099357    -1.0727196    -0.4241533
  C       -0.4063900     0.0163860    -0.0081010
  C       -1.1124080     1.1967220    -0.2540550
  C       -1.0729400    -1.1865160     0.2388070
  C        1.8312940     1.0508850     0.4071570
  C       -2.5072630     1.1720280    -0.2304200
  C       -2.4668310    -1.1992430     0.2370020
  C        3.1277520     0.5983640     0.2378140
  C       -3.1875810    -0.0227020     0.0140150
  C        2.9917500    -0.7051290    -0.2688550
  H       -0.5788940     2.1134690    -0.4901430
  H       -0.4926250    -2.0861370     0.4161180
  H        1.4325560     1.9713960     0.8093900
  H       -3.0617120     2.0872770    -0.4220560
  H       -2.9921950    -2.1322260     0.4251330
  H        4.0379080     1.1354570     0.4652770
  H       -4.2743140    -0.0387150     0.0221240
  H        3.7631710    -1.4121260    -0.5458550
units angstrom
no_reorient  #important for SAPT in psi4, default
symmetry c1  #important for SAPT in psi4, default
}

set PROPERTIES_ORIGIN ["COM"]
properties('MP2/aug-cc-pvtz', properties = ['dipole'])
--------------------------------------------------------------------------

    Molecular point group: c1
  Charge       = 0
  Multiplicity = 1
  Basis Set: AUG-CC-PVTZ
    Blend: AUG-CC-PVTZ
  Basis Set: (AUG-CC-PVTZ AUX)
    Blend: AUG-CC-PVTZ-JKFIT

    Orbital Energies [Eh]
    ---------------------

    Doubly Occupied:

       1A    -15.650263     2A    -15.592200     3A    -11.291446
       4A    -11.284948     5A    -11.260803     6A    -11.247883
       7A    -11.246273     8A    -11.245643     9A    -11.240493
      10A    -11.240340    11A    -11.228004    12A     -1.375461
      13A     -1.175406    14A     -1.111627    15A     -1.063268
      16A     -1.024155    17A     -0.997134    18A     -0.860096
      19A     -0.847226    20A     -0.795558    21A     -0.778164
      22A     -0.742602    23A     -0.686306    24A     -0.647879
      25A     -0.638838    26A     -0.613609    27A     -0.596776
      28A     -0.593172    29A     -0.587821    30A     -0.563954
      31A     -0.519845    32A     -0.510362    33A     -0.506813
      34A     -0.464880    35A     -0.396033    36A     -0.350867
      37A     -0.346283    38A     -0.312338

  @DF-RHF Final Energy:  -454.48715638038829

   => Energetics <=

    Nuclear Repulsion Energy =            545.8663504394627353
    One-Electron Energy =               -1697.4374749734715806
    Two-Electron Energy =                 697.0839681536206172
    Total Energy =                       -454.4871563803883419
  Basis Set: (AUG-CC-PVTZ AUX)
    Blend: AUG-CC-PVTZ-RI
    Molecular point group: c1

    Geometry (in Angstrom), charge = 0, multiplicity = 1:

       Center              X                  Y                   Z               Mass
    ------------   -----------------  -----------------  -----------------  -----------------
         N            0.995940829644     0.046191800752     0.006098519388    14.003074004430
         N            1.693973529644    -1.059850799248    -0.418860780612    14.003074004430
         C           -0.422352170356     0.029254800752    -0.002808480612    12.000000000000
         C           -1.128370170356     1.209590800752    -0.248762480612    12.000000000000
         C           -1.088902170356    -1.173647199248     0.244099519388    12.000000000000
         C            1.815331829644     1.063753800752     0.412449519388    12.000000000000
         C           -2.523225170356     1.184896800752    -0.225127480612    12.000000000000
         C           -2.482793170356    -1.186374199248     0.242294519388    12.000000000000
         C            3.111789829644     0.611232800752     0.243106519388    12.000000000000
         C           -3.203543170356    -0.009833199248     0.019307519388    12.000000000000
         C            2.975787829644    -0.692260199248    -0.263562480612    12.000000000000
         H           -0.594856170356     2.126337800752    -0.484850480612     1.007825032230
         H           -0.508587170356    -2.073268199248     0.421410519388     1.007825032230
         H            1.416593829644     1.984264800752     0.814682519388     1.007825032230
         H           -3.077674170356     2.100145800752    -0.416763480612     1.007825032230
         H           -3.008157170356    -2.119357199248     0.430425519388     1.007825032230
         H            4.021945829644     1.148325800752     0.470569519388     1.007825032230
         H           -4.290276170356    -0.025846199248     0.027416519388     1.007825032230
         H            3.747208829644    -1.399257199248    -0.540562480612     1.007825032230

  Basis Set: AUG-CC-PVTZ
    Blend: AUG-CC-PVTZ
  Basis Set: (AUG-CC-PVTZ AUX)
    Blend: AUG-CC-PVTZ-JKFIT
	 Reference Energy          =    -454.4871563803882850 [Eh]
	 Singles Energy            =      -0.0000000000000000 [Eh]
	 Same-Spin Energy          =      -0.5095598315546506 [Eh]
	 Opposite-Spin Energy      =      -1.5482153462809658 [Eh]
	 Correlation Energy        =      -2.0577751778356164 [Eh]
	 Total Energy              =    -456.5449315582238796 [Eh]

	 ================> DF-SCS-MP2 Energies <==================
	-----------------------------------------------------------
	 SCS Same-Spin Scale       =       0.3333333333333333 [-]
	 SCS Opposite-Spin Scale   =       1.2000000000000000 [-]
	 SCS Same-Spin Energy      =      -0.1698532771848835 [Eh]
	 SCS Opposite-Spin Energy  =      -1.8578584155371589 [Eh]
	 SCS Correlation Energy    =      -2.0277116927220424 [Eh]
	 SCS Total Energy          =    -456.5148680731103354 [Eh]
	-----------------------------------------------------------

  Dipole Moment: [D]
     X:    -0.8558      Y:     1.6543      Z:     0.7454     Total:     2.0062

*** Psi4 exiting successfully. Buy a developer a beer!
