                               Psi4 1.3.2 release

  ==> Input File <==

--------------------------------------------------------------------------
#psi4
#
memory 32 gb

molecule  {
0 1
  N        1.0119030     0.0333230     0.0008060
  N        1.6793011    -1.0676590    -0.4222551
  C       -0.4063900     0.0163860    -0.0081010
  C       -1.1124080     1.1967220    -0.2540550
  C       -1.0729400    -1.1865160     0.2388070
  C        1.8312940     1.0508850     0.4071570
  C       -2.5072630     1.1720280    -0.2304200
  C       -2.4668310    -1.1992430     0.2370020
  C        3.1277520     0.5983640     0.2378140
  C       -3.1875810    -0.0227020     0.0140150
  C        2.9917500    -0.7051290    -0.2688550
  H       -0.5788940     2.1134690    -0.4901430
  H       -0.4926250    -2.0861370     0.4161180
  H        1.4325560     1.9713960     0.8093900
  H       -3.0617120     2.0872770    -0.4220560
  H       -2.9921950    -2.1322260     0.4251330
  H        4.0379080     1.1354570     0.4652770
  H       -4.2743140    -0.0387150     0.0221240
  H        3.7631710    -1.4121260    -0.5458550
units angstrom
no_reorient  #important for SAPT in psi4, default
symmetry c1  #important for SAPT in psi4, default
}

set PROPERTIES_ORIGIN ["COM"]
properties('MP2/aug-cc-pvtz', properties = ['dipole'])
--------------------------------------------------------------------------

    Molecular point group: c1
  Charge       = 0
  Multiplicity = 1
  Basis Set: AUG-CC-PVTZ
    Blend: AUG-CC-PVTZ
  Basis Set: (AUG-CC-PVTZ AUX)
    Blend: AUG-CC-PVTZ-JKFIT

    Orbital Energies [Eh]
    ---------------------

    Doubly Occupied:

       1A    -15.653368     2A    -15.593423     3A    -11.291227
       4A    -11.283171     5A    -11.262227     6A    -11.248088
       7A    -11.246638     8A    -11.245840     9A    -11.240969
      10A    -11.240799    11A    -11.229492    12A     -1.380746
      13A     -1.173827    14A     -1.106667    15A     -1.065824
      16A     -1.024262    17A     -0.997548    18A     -0.860792
      19A     -0.847380    20A     -0.795914    21A     -0.778056
      22A     -0.742830    23A     -0.686593    24A     -0.648756
      25A     -0.638726    26A     -0.614873    27A     -0.596890
      28A     -0.593624    29A     -0.588075    30A     -0.562723
      31A     -0.520079    32A     -0.510250    33A     -0.506805
      34A     -0.465944    35A     -0.393461    36A     -0.349196
      37A     -0.345886    38A     -0.312853

  @DF-RHF Final Energy:  -454.48502149918630

   => Energetics <=

    Nuclear Repulsion Energy =            546.0990571221587970
    One-Electron Energy =               -1697.8805063703725864
    Two-Electron Energy =                 697.2964277490276572
    Total Energy =                       -454.4850214991862458
  Basis Set: (AUG-CC-PVTZ AUX)
    Blend: AUG-CC-PVTZ-RI
    Molecular point group: c1

    Geometry (in Angstrom), charge = 0, multiplicity = 1:

       Center              X                  Y                   Z               Mass
    ------------   -----------------  -----------------  -----------------  -----------------
         N            0.998918425938     0.045699924775     0.005914019728    14.003074004430
         N            1.666316525938    -1.055282075225    -0.417147080272    14.003074004430
         C           -0.419374574062     0.028762924775    -0.002992980272    12.000000000000
         C           -1.125392574062     1.209098924775    -0.248946980272    12.000000000000
         C           -1.085924574062    -1.174139075225     0.243915019728    12.000000000000
         C            1.818309425938     1.063261924775     0.412265019728    12.000000000000
         C           -2.520247574062     1.184404924775    -0.225311980272    12.000000000000
         C           -2.479815574062    -1.186866075225     0.242110019728    12.000000000000
         C            3.114767425938     0.610740924775     0.242922019728    12.000000000000
         C           -3.200565574062    -0.010325075225     0.019123019728    12.000000000000
         C            2.978765425938    -0.692752075225    -0.263746980272    12.000000000000
         H           -0.591878574062     2.125845924775    -0.485034980272     1.007825032230
         H           -0.505609574062    -2.073760075225     0.421226019728     1.007825032230
         H            1.419571425938     1.983772924775     0.814498019728     1.007825032230
         H           -3.074696574062     2.099653924775    -0.416947980272     1.007825032230
         H           -3.005179574062    -2.119849075225     0.430241019728     1.007825032230
         H            4.024923425938     1.147833924775     0.470385019728     1.007825032230
         H           -4.287298574062    -0.026338075225     0.027232019728     1.007825032230
         H            3.750186425938    -1.399749075225    -0.540746980272     1.007825032230

  Basis Set: AUG-CC-PVTZ
    Blend: AUG-CC-PVTZ
  Basis Set: (AUG-CC-PVTZ AUX)
    Blend: AUG-CC-PVTZ-JKFIT
	 Reference Energy          =    -454.4850214991863027 [Eh]
	 Singles Energy            =      -0.0000000000000000 [Eh]
	 Same-Spin Energy          =      -0.5103928882269304 [Eh]
	 Opposite-Spin Energy      =      -1.5493660420737003 [Eh]
	 Correlation Energy        =      -2.0597589303006307 [Eh]
	 Total Energy              =    -456.5447804294869343 [Eh]

	 ================> DF-SCS-MP2 Energies <==================
	-----------------------------------------------------------
	 SCS Same-Spin Scale       =       0.3333333333333333 [-]
	 SCS Opposite-Spin Scale   =       1.2000000000000000 [-]
	 SCS Same-Spin Energy      =      -0.1701309627423101 [Eh]
	 SCS Opposite-Spin Energy  =      -1.8592392504884403 [Eh]
	 SCS Correlation Energy    =      -2.0293702132307505 [Eh]
	 SCS Total Energy          =    -456.5143917124170798 [Eh]
	-----------------------------------------------------------

  Dipole Moment: [D]
     X:    -0.8690      Y:     1.6711      Z:     0.7526     Total:     2.0283

*** Psi4 exiting successfully. Buy a developer a beer!
