                               Psi4 1.3.2 release

  ==> Input File <==

--------------------------------------------------------------------------
#psi4
#
memory 32 gb

molecule  {
0 1
  N        1.0119030     0.0333230     0.0008060
  N        1.6997840    -1.0566340    -0.4179730
  C       -0.4048619    -0.0295915    -0.0264027
  C       -1.1124080     1.1967220    -0.2540550
  C       -1.0729400    -1.1865160     0.2388070
  C        1.8312940     1.0508850     0.4071570
  C       -2.5072630     1.1720280    -0.2304200
  C       -2.4668310    -1.1992430     0.2370020
  C        3.1277520     0.5983640     0.2378140
  C       -3.1875810    -0.0227020     0.0140150
  C        2.9917500    -0.7051290    -0.2688550
  H       -0.5788940     2.1134690    -0.4901430
  H       -0.4926250    -2.0861370     0.4161180
  H        1.4325560     1.9713960     0.8093900
  H       -3.0617120     2.0872770    -0.4220560
  H       -2.9921950    -2.1322260     0.4251330
  H        4.0379080     1.1354570     0.4652770
  H       -4.2743140    -0.0387150     0.0221240
  H        3.7631710    -1.4121260    -0.5458550
units angstrom
no_reorient  #important for SAPT in psi4, default
symmetry c1  #important for SAPT in psi4, default
}

set PROPERTIES_ORIGIN ["COM"]
properties('MP2/aug-cc-pvtz', properties = ['dipole'])
--------------------------------------------------------------------------

    Molecular point group: c1
  Charge       = 0
  Multiplicity = 1
  Basis Set: AUG-CC-PVTZ
    Blend: AUG-CC-PVTZ
  Basis Set: (AUG-CC-PVTZ AUX)
    Blend: AUG-CC-PVTZ-JKFIT

    Orbital Energies [Eh]
    ---------------------

    Doubly Occupied:

       1A    -15.651775     2A    -15.589889     3A    -11.291546
       4A    -11.283478     5A    -11.259151     6A    -11.250372
       7A    -11.247655     8A    -11.246578     9A    -11.240930
      10A    -11.237068    11A    -11.228377    12A     -1.382692
      13A     -1.174984    14A     -1.109530    15A     -1.065310
      16A     -1.024762    17A     -0.997732    18A     -0.861420
      19A     -0.847135    20A     -0.798180    21A     -0.776610
      22A     -0.742865    23A     -0.687032    24A     -0.649130
      25A     -0.639572    26A     -0.616015    27A     -0.598138
      28A     -0.593300    29A     -0.587620    30A     -0.563721
      31A     -0.521468    32A     -0.510605    33A     -0.504715
      34A     -0.463188    35A     -0.394909    36A     -0.350120
      37A     -0.346330    38A     -0.313017

  @DF-RHF Final Energy:  -454.48529475761222

   => Energetics <=

    Nuclear Repulsion Energy =            546.3840273162529684
    One-Electron Energy =               -1698.4448066834868314
    Two-Electron Energy =                 697.5754846096216397
    Total Energy =                       -454.4852947576122233
  Basis Set: (AUG-CC-PVTZ AUX)
    Blend: AUG-CC-PVTZ-RI
    Molecular point group: c1

    Geometry (in Angstrom), charge = 0, multiplicity = 1:

       Center              X                  Y                   Z               Mass
    ------------   -----------------  -----------------  -----------------  -----------------
         N            0.996800265211     0.048457956020     0.007022225628    14.003074004430
         N            1.684681265211    -1.041499043980    -0.411756774372    14.003074004430
         C           -0.419964634789    -0.014456543980    -0.020186474372    12.000000000000
         C           -1.127510734789     1.211856956020    -0.247838774372    12.000000000000
         C           -1.088042734789    -1.171381043980     0.245023225628    12.000000000000
         C            1.816191265211     1.066019956020     0.413373225628    12.000000000000
         C           -2.522365734789     1.187162956020    -0.224203774372    12.000000000000
         C           -2.481933734789    -1.184108043980     0.243218225628    12.000000000000
         C            3.112649265211     0.613498956020     0.244030225628    12.000000000000
         C           -3.202683734789    -0.007567043980     0.020231225628    12.000000000000
         C            2.976647265211    -0.689994043980    -0.262638774372    12.000000000000
         H           -0.593996734789     2.128603956020    -0.483926774372     1.007825032230
         H           -0.507727734789    -2.071002043980     0.422334225628     1.007825032230
         H            1.417453265211     1.986530956020     0.815606225628     1.007825032230
         H           -3.076814734789     2.102411956020    -0.415839774372     1.007825032230
         H           -3.007297734789    -2.117091043980     0.431349225628     1.007825032230
         H            4.022805265211     1.150591956020     0.471493225628     1.007825032230
         H           -4.289416734789    -0.023580043980     0.028340225628     1.007825032230
         H            3.748068265211    -1.396991043980    -0.539638774372     1.007825032230

  Basis Set: AUG-CC-PVTZ
    Blend: AUG-CC-PVTZ
  Basis Set: (AUG-CC-PVTZ AUX)
    Blend: AUG-CC-PVTZ-JKFIT
	 Reference Energy          =    -454.4852947576122233 [Eh]
	 Singles Energy            =      -0.0000000000000000 [Eh]
	 Same-Spin Energy          =      -0.5096941563743661 [Eh]
	 Opposite-Spin Energy      =      -1.5481756277451744 [Eh]
	 Correlation Energy        =      -2.0578697841195406 [Eh]
	 Total Energy              =    -456.5431645417317554 [Eh]

	 ================> DF-SCS-MP2 Energies <==================
	-----------------------------------------------------------
	 SCS Same-Spin Scale       =       0.3333333333333333 [-]
	 SCS Opposite-Spin Scale   =       1.2000000000000000 [-]
	 SCS Same-Spin Energy      =      -0.1698980521247887 [Eh]
	 SCS Opposite-Spin Energy  =      -1.8578107532942092 [Eh]
	 SCS Correlation Energy    =      -2.0277088054189978 [Eh]
	 SCS Total Energy          =    -456.5130035630312477 [Eh]
	-----------------------------------------------------------

  Dipole Moment: [D]
     X:    -0.8857      Y:     1.6306      Z:     0.7462     Total:     2.0000

*** Psi4 exiting successfully. Buy a developer a beer!
