                               Psi4 1.4a3.dev225

  ==> Input File <==

--------------------------------------------------------------------------
#psi4
#
memory 32 gb

molecule  {
0 1
  N        1.0119030     0.0333230     0.0008060
  N        1.6997840    -1.0566340    -0.4179730
  C       -0.4063900     0.0163860    -0.0081010
  C       -1.1124080     1.1967220    -0.2540550
  C       -1.0729400    -1.1865160     0.2388070
  C        1.8312940     1.0508850     0.4071570
  C       -2.5072630     1.1720280    -0.2304200
  C       -2.4668310    -1.1992430     0.2370020
  C        3.1277520     0.5983640     0.2378140
  C       -3.1875810    -0.0227020     0.0140150
  C        2.9869104    -0.7515134    -0.2868847
  H       -0.5788940     2.1134690    -0.4901430
  H       -0.4926250    -2.0861370     0.4161180
  H        1.4325560     1.9713960     0.8093900
  H       -3.0617120     2.0872770    -0.4220560
  H       -2.9921950    -2.1322260     0.4251330
  H        4.0379080     1.1354570     0.4652770
  H       -4.2743140    -0.0387150     0.0221240
  H        3.7631710    -1.4121260    -0.5458550
units angstrom
no_reorient  #important for SAPT in psi4, default
symmetry c1  #important for SAPT in psi4, default
}

set PROPERTIES_ORIGIN ["COM"]
properties('MP2/aug-cc-pvtz', properties = ['dipole'])
--------------------------------------------------------------------------

    Molecular point group: c1
  Charge       = 0
  Multiplicity = 1
  Basis Set: AUG-CC-PVTZ
    Blend: AUG-CC-PVTZ
  Basis Set: (AUG-CC-PVTZ AUX)
    Blend: AUG-CC-PVTZ-JKFIT

    Orbital Energies [Eh]
    ---------------------

    Doubly Occupied:

       1A    -15.649258     2A    -15.592566     3A    -11.291577
       4A    -11.282386     5A    -11.262005     6A    -11.247804
       7A    -11.246148     8A    -11.245585     9A    -11.240343
      10A    -11.240186    11A    -11.231410    12A     -1.382025
      13A     -1.175642    14A     -1.112815    15A     -1.060084
      16A     -1.024032    17A     -0.995787    18A     -0.858204
      19A     -0.849109    20A     -0.800789    21A     -0.776878
      22A     -0.741240    23A     -0.686539    24A     -0.650479
      25A     -0.641602    26A     -0.616924    27A     -0.599664
      28A     -0.594862    29A     -0.586499    30A     -0.566327
      31A     -0.519903    32A     -0.510479    33A     -0.506302
      34A     -0.457785    35A     -0.393383    36A     -0.352645
      37A     -0.346336    38A     -0.310399

  @DF-RHF Final Energy:  -454.48712335353741

   => Energetics <=

    Nuclear Repulsion Energy =            545.9244040682719969
    One-Electron Energy =               -1697.5310545360648575
    Two-Electron Energy =                 697.1195271142554475
    Total Energy =                       -454.4871233535374131
  Basis Set: (AUG-CC-PVTZ AUX)
    Blend: AUG-CC-PVTZ-RI
    Molecular point group: c1

    Geometry (in Angstrom), charge = 0, multiplicity = 1:

       Center              X                  Y                   Z               Mass
    ------------   -----------------  -----------------  -----------------  -----------------
         N            0.997330653661     0.048491848173     0.006999569778    14.003074004430
         N            1.685211653661    -1.041465151827    -0.411779430222    14.003074004430
         C           -0.420962346339     0.031554848173    -0.001907430222    12.000000000000
         C           -1.126980346339     1.211890848173    -0.247861430222    12.000000000000
         C           -1.087512346339    -1.171347151827     0.245000569778    12.000000000000
         C            1.816721653661     1.066053848173     0.413350569778    12.000000000000
         C           -2.521835346339     1.187196848173    -0.224226430222    12.000000000000
         C           -2.481403346339    -1.184074151827     0.243195569778    12.000000000000
         C            3.113179653661     0.613532848173     0.244007569778    12.000000000000
         C           -3.202153346339    -0.007533151827     0.020208569778    12.000000000000
         C            2.972338053661    -0.736344551827    -0.280691130222    12.000000000000
         H           -0.593466346339     2.128637848173    -0.483949430222     1.007825032230
         H           -0.507197346339    -2.070968151827     0.422311569778     1.007825032230
         H            1.417983653661     1.986564848173     0.815583569778     1.007825032230
         H           -3.076284346339     2.102445848173    -0.415862430222     1.007825032230
         H           -3.006767346339    -2.117057151827     0.431326569778     1.007825032230
         H            4.023335653661     1.150625848173     0.471470569778     1.007825032230
         H           -4.288886346339    -0.023546151827     0.028317569778     1.007825032230
         H            3.748598653661    -1.396957151827    -0.539661430222     1.007825032230

  Basis Set: AUG-CC-PVTZ
    Blend: AUG-CC-PVTZ
  Basis Set: (AUG-CC-PVTZ AUX)
    Blend: AUG-CC-PVTZ-JKFIT
	 Reference Energy          =    -454.4871233535374131 [Eh]
	 Singles Energy            =      -0.0000000000000000 [Eh]
	 Same-Spin Energy          =      -0.5087373028924881 [Eh]
	 Opposite-Spin Energy      =      -1.5468812135890886 [Eh]
	 Correlation Energy        =      -2.0556185164815766 [Eh]
	 Total Energy              =    -456.5427418700189719 [Eh]

	 ================> DF-SCS-MP2 Energies <==================
	-----------------------------------------------------------
	 SCS Same-Spin Scale       =       0.3333333333333333 [-]
	 SCS Opposite-Spin Scale   =       1.2000000000000000 [-]
	 SCS Same-Spin Energy      =      -0.1695791009641627 [Eh]
	 SCS Opposite-Spin Energy  =      -1.8562574563069063 [Eh]
	 SCS Correlation Energy    =      -2.0258365572710688 [Eh]
	 SCS Total Energy          =    -456.5129599108084903 [Eh]
	-----------------------------------------------------------

  Dipole Moment: [D]
     X:    -0.8244      Y:     1.5705      Z:     0.7113     Total:     1.9111

*** Psi4 exiting successfully. Buy a developer a beer!
