                               Psi4 1.4a3.dev225

  ==> Input File <==

--------------------------------------------------------------------------
#psi4
#
memory 32 gb

molecule  {
0 1
  N        1.0119030     0.0333230     0.0008060
  N        1.6997840    -1.0566340    -0.4179730
  C       -0.4063900     0.0163860    -0.0081010
  C       -1.1124080     1.1967220    -0.2540550
  C       -1.0729400    -1.1865160     0.2388070
  C        1.8312940     1.0508850     0.4071570
  C       -2.5072630     1.1720280    -0.2304200
  C       -2.4668310    -1.1992430     0.2370020
  C        3.1090112     0.6049054     0.2402619
  C       -3.1875810    -0.0227020     0.0140150
  C        2.9917500    -0.7051290    -0.2688550
  H       -0.5788940     2.1134690    -0.4901430
  H       -0.4926250    -2.0861370     0.4161180
  H        1.4325560     1.9713960     0.8093900
  H       -3.0617120     2.0872770    -0.4220560
  H       -2.9921950    -2.1322260     0.4251330
  H        4.0379080     1.1354570     0.4652770
  H       -4.2743140    -0.0387150     0.0221240
  H        3.7631710    -1.4121260    -0.5458550
units angstrom
no_reorient  #important for SAPT in psi4, default
symmetry c1  #important for SAPT in psi4, default
}

set PROPERTIES_ORIGIN ["COM"]
properties('MP2/aug-cc-pvtz', properties = ['dipole'])
--------------------------------------------------------------------------

    Molecular point group: c1
  Charge       = 0
  Multiplicity = 1
  Basis Set: AUG-CC-PVTZ
    Blend: AUG-CC-PVTZ
  Basis Set: (AUG-CC-PVTZ AUX)
    Blend: AUG-CC-PVTZ-JKFIT

    Orbital Energies [Eh]
    ---------------------

    Doubly Occupied:

       1A    -15.650060     2A    -15.591885     3A    -11.291352
       4A    -11.279975     5A    -11.260033     6A    -11.247888
       7A    -11.246293     8A    -11.245677     9A    -11.240563
      10A    -11.240409    11A    -11.227483    12A     -1.382885
      13A     -1.175278    14A     -1.109953    15A     -1.067001
      16A     -1.024223    17A     -0.997426    18A     -0.859422
      19A     -0.847972    20A     -0.796660    21A     -0.778007
      22A     -0.742767    23A     -0.686452    24A     -0.648890
      25A     -0.639894    26A     -0.614791    27A     -0.597072
      28A     -0.594371    29A     -0.584890    30A     -0.568008
      31A     -0.519849    32A     -0.510647    33A     -0.506527
      34A     -0.462738    35A     -0.394576    36A     -0.352612
      37A     -0.346334    38A     -0.312134

  @DF-RHF Final Energy:  -454.48810751717861

   => Energetics <=

    Nuclear Repulsion Energy =            546.6837293194474796
    One-Electron Energy =               -1699.0576787023931047
    Two-Electron Energy =                 697.8858418657671336
    Total Energy =                       -454.4881075171786051
  Basis Set: (AUG-CC-PVTZ AUX)
    Blend: AUG-CC-PVTZ-RI
    Molecular point group: c1

    Geometry (in Angstrom), charge = 0, multiplicity = 1:

       Center              X                  Y                   Z               Mass
    ------------   -----------------  -----------------  -----------------  -----------------
         N            0.998488534200     0.044083469481     0.005293917421    14.003074004430
         N            1.686369534200    -1.045873530519    -0.413485082579    14.003074004430
         C           -0.419804465800     0.027146469481    -0.003613082579    12.000000000000
         C           -1.125822465800     1.207482469481    -0.249567082579    12.000000000000
         C           -1.086354465800    -1.175755530519     0.243294917421    12.000000000000
         C            1.817879534200     1.061645469481     0.411644917421    12.000000000000
         C           -2.520677465800     1.182788469481    -0.225932082579    12.000000000000
         C           -2.480245465800    -1.188482530519     0.241489917421    12.000000000000
         C            3.095596734200     0.615665869481     0.244749817421    12.000000000000
         C           -3.200995465800    -0.011941530519     0.018502917421    12.000000000000
         C            2.978335534200    -0.694368530519    -0.264367082579    12.000000000000
         H           -0.592308465800     2.124229469481    -0.485655082579     1.007825032230
         H           -0.506039465800    -2.075376530519     0.420605917421     1.007825032230
         H            1.419141534200     1.982156469481     0.813877917421     1.007825032230
         H           -3.075126465800     2.098037469481    -0.417568082579     1.007825032230
         H           -3.005609465800    -2.121465530519     0.429620917421     1.007825032230
         H            4.024493534200     1.146217469481     0.469764917421     1.007825032230
         H           -4.287728465800    -0.027954530519     0.026611917421     1.007825032230
         H            3.749756534200    -1.401365530519    -0.541367082579     1.007825032230

  Basis Set: AUG-CC-PVTZ
    Blend: AUG-CC-PVTZ
  Basis Set: (AUG-CC-PVTZ AUX)
    Blend: AUG-CC-PVTZ-JKFIT
	 Reference Energy          =    -454.4881075171786051 [Eh]
	 Singles Energy            =      -0.0000000000000000 [Eh]
	 Same-Spin Energy          =      -0.5094869881489155 [Eh]
	 Opposite-Spin Energy      =      -1.5475871626584343 [Eh]
	 Correlation Energy        =      -2.0570741508073498 [Eh]
	 Total Energy              =    -456.5451816679859576 [Eh]

	 ================> DF-SCS-MP2 Energies <==================
	-----------------------------------------------------------
	 SCS Same-Spin Scale       =       0.3333333333333333 [-]
	 SCS Opposite-Spin Scale   =       1.2000000000000000 [-]
	 SCS Same-Spin Energy      =      -0.1698289960496385 [Eh]
	 SCS Opposite-Spin Energy  =      -1.8571045951901211 [Eh]
	 SCS Correlation Energy    =      -2.0269335912397595 [Eh]
	 SCS Total Energy          =    -456.5150411084183588 [Eh]
	-----------------------------------------------------------

  Dipole Moment: [D]
     X:    -0.8454      Y:     1.6359      Z:     0.7376     Total:     1.9836

*** Psi4 exiting successfully. Buy a developer a beer!
