                               Psi4 1.4a3.dev225

  ==> Input File <==

--------------------------------------------------------------------------
#psi4
#
memory 32 gb

molecule  {
0 1
  N        1.0119030     0.0333230     0.0008060
  N        1.6997840    -1.0566340    -0.4179730
  C       -0.4063900     0.0163860    -0.0081010
  C       -1.1124080     1.1967220    -0.2540550
  C       -1.0729400    -1.1865160     0.2388070
  C        1.8312940     1.0508850     0.4071570
  C       -2.5072630     1.1720280    -0.2304200
  C       -2.4668310    -1.1992430     0.2370020
  C        3.1277520     0.5983640     0.2378140
  C       -3.1875810    -0.0227020     0.0140150
  C        2.9438002    -0.7181747    -0.2743893
  H       -0.5788940     2.1134690    -0.4901430
  H       -0.4926250    -2.0861370     0.4161180
  H        1.4325560     1.9713960     0.8093900
  H       -3.0617120     2.0872770    -0.4220560
  H       -2.9921950    -2.1322260     0.4251330
  H        4.0379080     1.1354570     0.4652770
  H       -4.2743140    -0.0387150     0.0221240
  H        3.7631710    -1.4121260    -0.5458550
units angstrom
no_reorient  #important for SAPT in psi4, default
symmetry c1  #important for SAPT in psi4, default
}

set PROPERTIES_ORIGIN ["COM"]
properties('MP2/aug-cc-pvtz', properties = ['dipole'])
--------------------------------------------------------------------------

    Molecular point group: c1
  Charge       = 0
  Multiplicity = 1
  Basis Set: AUG-CC-PVTZ
    Blend: AUG-CC-PVTZ
  Basis Set: (AUG-CC-PVTZ AUX)
    Blend: AUG-CC-PVTZ-JKFIT

    Orbital Energies [Eh]
    ---------------------

    Doubly Occupied:

       1A    -15.647597     2A    -15.588558     3A    -11.291109
       4A    -11.283701     5A    -11.259332     6A    -11.247619
       7A    -11.245783     8A    -11.245505     9A    -11.240104
      10A    -11.239925    11A    -11.228028    12A     -1.389073
      13A     -1.178334    14A     -1.116726    15A     -1.064658
      16A     -1.024094    17A     -0.996209    18A     -0.857901
      19A     -0.847907    20A     -0.799291    21A     -0.775286
      22A     -0.743727    23A     -0.685907    24A     -0.649773
      25A     -0.639768    26A     -0.618137    27A     -0.597229
      28A     -0.594083    29A     -0.590931    30A     -0.557593
      31A     -0.519559    32A     -0.510983    33A     -0.506717
      34A     -0.463206    35A     -0.397213    36A     -0.355303
      37A     -0.346308    38A     -0.311170

  @DF-RHF Final Energy:  -454.48897429552369

   => Energetics <=

    Nuclear Repulsion Energy =            547.2342028163395753
    One-Electron Energy =               -1700.1376613070237909
    Two-Electron Energy =                 698.4144841951605258
    Total Energy =                       -454.4889742955236898
  Basis Set: (AUG-CC-PVTZ AUX)
    Blend: AUG-CC-PVTZ-RI
    Molecular point group: c1

    Geometry (in Angstrom), charge = 0, multiplicity = 1:

       Center              X                  Y                   Z               Mass
    ------------   -----------------  -----------------  -----------------  -----------------
         N            1.000921456012     0.045714948916     0.005958783335    14.003074004430
         N            1.688802456012    -1.044242051084    -0.412820216665    14.003074004430
         C           -0.417371543988     0.028777948916    -0.002948216665    12.000000000000
         C           -1.123389543988     1.209113948916    -0.248902216665    12.000000000000
         C           -1.083921543988    -1.174124051084     0.243959783335    12.000000000000
         C            1.820312456012     1.063276948916     0.412309783335    12.000000000000
         C           -2.518244543988     1.184419948916    -0.225267216665    12.000000000000
         C           -2.477812543988    -1.186851051084     0.242154783335    12.000000000000
         C            3.116770456012     0.610755948916     0.242966783335    12.000000000000
         C           -3.198562543988    -0.010310051084     0.019167783335    12.000000000000
         C            2.932818656012    -0.705782751084    -0.269236516665    12.000000000000
         H           -0.589875543988     2.125860948916    -0.484990216665     1.007825032230
         H           -0.503606543988    -2.073745051084     0.421270783335     1.007825032230
         H            1.421574456012     1.983787948916     0.814542783335     1.007825032230
         H           -3.072693543988     2.099668948916    -0.416903216665     1.007825032230
         H           -3.003176543988    -2.119834051084     0.430285783335     1.007825032230
         H            4.026926456012     1.147848948916     0.470429783335     1.007825032230
         H           -4.285295543988    -0.026323051084     0.027276783335     1.007825032230
         H            3.752189456012    -1.399734051084    -0.540702216665     1.007825032230

  Basis Set: AUG-CC-PVTZ
    Blend: AUG-CC-PVTZ
  Basis Set: (AUG-CC-PVTZ AUX)
    Blend: AUG-CC-PVTZ-JKFIT
	 Reference Energy          =    -454.4889742955236898 [Eh]
	 Singles Energy            =      -0.0000000000000000 [Eh]
	 Same-Spin Energy          =      -0.5082993912517606 [Eh]
	 Opposite-Spin Energy      =      -1.5455235433841787 [Eh]
	 Correlation Energy        =      -2.0538229346359396 [Eh]
	 Total Energy              =    -456.5427972301596355 [Eh]

	 ================> DF-SCS-MP2 Energies <==================
	-----------------------------------------------------------
	 SCS Same-Spin Scale       =       0.3333333333333333 [-]
	 SCS Opposite-Spin Scale   =       1.2000000000000000 [-]
	 SCS Same-Spin Energy      =      -0.1694331304172535 [Eh]
	 SCS Opposite-Spin Energy  =      -1.8546282520610144 [Eh]
	 SCS Correlation Energy    =      -2.0240613824782678 [Eh]
	 SCS Total Energy          =    -456.5130356780019838 [Eh]
	-----------------------------------------------------------

  Dipole Moment: [D]
     X:    -0.8124      Y:     1.6156      Z:     0.7287     Total:     1.9497

*** Psi4 exiting successfully. Buy a developer a beer!
