                               Psi4 1.3.2 release

  ==> Input File <==

--------------------------------------------------------------------------
#psi4
#
memory 32 gb

molecule  {
0 1
  N        1.0119030     0.0333230     0.0008060
  N        1.6997840    -1.0566340    -0.4179730
  C       -0.3647886     0.0407328    -0.0155135
  C       -1.1124080     1.1967220    -0.2540550
  C       -1.0729400    -1.1865160     0.2388070
  C        1.8312940     1.0508850     0.4071570
  C       -2.5072630     1.1720280    -0.2304200
  C       -2.4668310    -1.1992430     0.2370020
  C        3.1277520     0.5983640     0.2378140
  C       -3.1875810    -0.0227020     0.0140150
  C        2.9917500    -0.7051290    -0.2688550
  H       -0.5788940     2.1134690    -0.4901430
  H       -0.4926250    -2.0861370     0.4161180
  H        1.4325560     1.9713960     0.8093900
  H       -3.0617120     2.0872770    -0.4220560
  H       -2.9921950    -2.1322260     0.4251330
  H        4.0379080     1.1354570     0.4652770
  H       -4.2743140    -0.0387150     0.0221240
  H        3.7631710    -1.4121260    -0.5458550
units angstrom
no_reorient  #important for SAPT in psi4, default
symmetry c1  #important for SAPT in psi4, default
}

set PROPERTIES_ORIGIN ["COM"]
properties('MP2/aug-cc-pvtz', properties = ['dipole'])
--------------------------------------------------------------------------

    Molecular point group: c1
  Charge       = 0
  Multiplicity = 1
  Basis Set: AUG-CC-PVTZ
    Blend: AUG-CC-PVTZ
  Basis Set: (AUG-CC-PVTZ AUX)
    Blend: AUG-CC-PVTZ-JKFIT

    Orbital Energies [Eh]
    ---------------------

    Doubly Occupied:

       1A    -15.653983     2A    -15.593464     3A    -11.292424
       4A    -11.284904     5A    -11.262924     6A    -11.246809
       7A    -11.245178     8A    -11.244424     9A    -11.243073
      10A    -11.239469    11A    -11.230771    12A     -1.389909
      13A     -1.174939    14A     -1.115422    15A     -1.066837
      16A     -1.021052    17A     -0.994790    18A     -0.867024
      19A     -0.846795    20A     -0.798383    21A     -0.778348
      22A     -0.744131    23A     -0.686389    24A     -0.650466
      25A     -0.640911    26A     -0.616957    27A     -0.599186
      28A     -0.593310    29A     -0.588725    30A     -0.565940
      31A     -0.522314    32A     -0.506569    33A     -0.500693
      34A     -0.464808    35A     -0.398648    36A     -0.352105
      37A     -0.344925    38A     -0.307641

  @DF-RHF Final Energy:  -454.48479080623201

   => Energetics <=

    Nuclear Repulsion Energy =            546.4671756299054550
    One-Electron Energy =               -1698.5546567695330396
    Two-Electron Energy =                 697.6026903333954579
    Total Energy =                       -454.4847908062320130
  Basis Set: (AUG-CC-PVTZ AUX)
    Blend: AUG-CC-PVTZ-RI
    Molecular point group: c1

    Geometry (in Angstrom), charge = 0, multiplicity = 1:

       Center              X                  Y                   Z               Mass
    ------------   -----------------  -----------------  -----------------  -----------------
         N            0.993462417095     0.042600394195     0.006115225314    14.003074004430
         N            1.681343417095    -1.047356605805    -0.412663774686    14.003074004430
         C           -0.383229182905     0.050010194195    -0.010204274686    12.000000000000
         C           -1.130848582905     1.205999394195    -0.248745774686    12.000000000000
         C           -1.091380582905    -1.177238605805     0.244116225314    12.000000000000
         C            1.812853417095     1.060162394195     0.412466225314    12.000000000000
         C           -2.525703582905     1.181305394195    -0.225110774686    12.000000000000
         C           -2.485271582905    -1.189965605805     0.242311225314    12.000000000000
         C            3.109311417095     0.607641394195     0.243123225314    12.000000000000
         C           -3.206021582905    -0.013424605805     0.019324225314    12.000000000000
         C            2.973309417095    -0.695851605805    -0.263545774686    12.000000000000
         H           -0.597334582905     2.122746394195    -0.484833774686     1.007825032230
         H           -0.511065582905    -2.076859605805     0.421427225314     1.007825032230
         H            1.414115417095     1.980673394195     0.814699225314     1.007825032230
         H           -3.080152582905     2.096554394195    -0.416746774686     1.007825032230
         H           -3.010635582905    -2.122948605805     0.430442225314     1.007825032230
         H            4.019467417095     1.144734394195     0.470586225314     1.007825032230
         H           -4.292754582905    -0.029437605805     0.027433225314     1.007825032230
         H            3.744730417095    -1.402848605805    -0.540545774686     1.007825032230

  Basis Set: AUG-CC-PVTZ
    Blend: AUG-CC-PVTZ
  Basis Set: (AUG-CC-PVTZ AUX)
    Blend: AUG-CC-PVTZ-JKFIT
	 Reference Energy          =    -454.4847908062320130 [Eh]
	 Singles Energy            =      -0.0000000000000000 [Eh]
	 Same-Spin Energy          =      -0.5099213429949369 [Eh]
	 Opposite-Spin Energy      =      -1.5483715885296205 [Eh]
	 Correlation Energy        =      -2.0582929315245573 [Eh]
	 Total Energy              =    -456.5430837377565467 [Eh]

	 ================> DF-SCS-MP2 Energies <==================
	-----------------------------------------------------------
	 SCS Same-Spin Scale       =       0.3333333333333333 [-]
	 SCS Opposite-Spin Scale   =       1.2000000000000000 [-]
	 SCS Same-Spin Energy      =      -0.1699737809983123 [Eh]
	 SCS Opposite-Spin Energy  =      -1.8580459062355446 [Eh]
	 SCS Correlation Energy    =      -2.0280196872338569 [Eh]
	 SCS Total Energy          =    -456.5128104934658495 [Eh]
	-----------------------------------------------------------

  Dipole Moment: [D]
     X:    -0.6419      Y:     1.6406      Z:     0.7355     Total:     1.9091

*** Psi4 exiting successfully. Buy a developer a beer!
