                               Psi4 1.3.2 release

  ==> Input File <==

--------------------------------------------------------------------------
#psi4
#
memory 32 gb

molecule  {
0 1
  N        1.0119030     0.0333230     0.0008060
  N        1.6997840    -1.0566340    -0.4179730
  C       -0.4063900     0.0163860    -0.0081010
  C       -1.1124080     1.1967220    -0.2540550
  C       -1.0729400    -1.1865160     0.2388070
  C        1.8312940     1.0508850     0.4071570
  C       -2.5072630     1.1720280    -0.2304200
  C       -2.4668310    -1.1992430     0.2370020
  C        3.1277520     0.5983640     0.2378140
  C       -3.1875810    -0.0227020     0.0140150
  C        3.0406296    -0.7091223    -0.2693282
  H       -0.5788940     2.1134690    -0.4901430
  H       -0.4926250    -2.0861370     0.4161180
  H        1.4325560     1.9713960     0.8093900
  H       -3.0617120     2.0872770    -0.4220560
  H       -2.9921950    -2.1322260     0.4251330
  H        4.0379080     1.1354570     0.4652770
  H       -4.2743140    -0.0387150     0.0221240
  H        3.7631710    -1.4121260    -0.5458550
units angstrom
no_reorient  #important for SAPT in psi4, default
symmetry c1  #important for SAPT in psi4, default
}

set PROPERTIES_ORIGIN ["COM"]
properties('MP2/aug-cc-pvtz', properties = ['dipole'])
--------------------------------------------------------------------------

    Molecular point group: c1
  Charge       = 0
  Multiplicity = 1
  Basis Set: AUG-CC-PVTZ
    Blend: AUG-CC-PVTZ
  Basis Set: (AUG-CC-PVTZ AUX)
    Blend: AUG-CC-PVTZ-JKFIT

    Orbital Energies [Eh]
    ---------------------

    Doubly Occupied:

       1A    -15.655439     2A    -15.593351     3A    -11.292413
       4A    -11.281252     5A    -11.260921     6A    -11.248813
       7A    -11.247545     8A    -11.246395     9A    -11.241841
      10A    -11.241670    11A    -11.229881    12A     -1.376800
      13A     -1.173490    14A     -1.105198    15A     -1.061347
      16A     -1.024666    17A     -0.999282    18A     -0.863138
      19A     -0.848338    20A     -0.798393    21A     -0.778324
      22A     -0.741120    23A     -0.687646    24A     -0.649087
      25A     -0.640311    26A     -0.613507    27A     -0.599084
      28A     -0.595651    29A     -0.584329    30A     -0.572363
      31A     -0.521029    32A     -0.510675    33A     -0.506889
      34A     -0.458301    35A     -0.393187    36A     -0.347978
      37A     -0.343369    38A     -0.313764

  @DF-RHF Final Energy:  -454.48135526847659

   => Energetics <=

    Nuclear Repulsion Energy =            545.3146650122067740
    One-Electron Energy =               -1696.2984632086138390
    Two-Electron Energy =                 696.5024429279303604
    Total Energy =                       -454.4813552684765909
  Basis Set: (AUG-CC-PVTZ AUX)
    Blend: AUG-CC-PVTZ-RI
    Molecular point group: c1

    Geometry (in Angstrom), charge = 0, multiplicity = 1:

       Center              X                  Y                   Z               Mass
    ------------   -----------------  -----------------  -----------------  -----------------
         N            0.992856189853     0.044960942226     0.005537226261    14.003074004430
         N            1.680737189853    -1.044996057774    -0.413241773739    14.003074004430
         C           -0.425436810147     0.028023942226    -0.003369773739    12.000000000000
         C           -1.131454810147     1.208359942226    -0.249323773739    12.000000000000
         C           -1.091986810147    -1.174878057774     0.243538226261    12.000000000000
         C            1.812247189853     1.062522942226     0.411888226261    12.000000000000
         C           -2.526309810147     1.183665942226    -0.225688773739    12.000000000000
         C           -2.485877810147    -1.187605057774     0.241733226261    12.000000000000
         C            3.108705189853     0.610001942226     0.242545226261    12.000000000000
         C           -3.206627810147    -0.011064057774     0.018746226261    12.000000000000
         C            3.021582789853    -0.697484357774    -0.264596973739    12.000000000000
         H           -0.597940810147     2.125106942226    -0.485411773739     1.007825032230
         H           -0.511671810147    -2.074499057774     0.420849226261     1.007825032230
         H            1.413509189853     1.983033942226     0.814121226261     1.007825032230
         H           -3.080758810147     2.098914942226    -0.417324773739     1.007825032230
         H           -3.011241810147    -2.120588057774     0.429864226261     1.007825032230
         H            4.018861189853     1.147094942226     0.470008226261     1.007825032230
         H           -4.293360810147    -0.027077057774     0.026855226261     1.007825032230
         H            3.744124189853    -1.400488057774    -0.541123773739     1.007825032230

  Basis Set: AUG-CC-PVTZ
    Blend: AUG-CC-PVTZ
  Basis Set: (AUG-CC-PVTZ AUX)
    Blend: AUG-CC-PVTZ-JKFIT
	 Reference Energy          =    -454.4813552684765909 [Eh]
	 Singles Energy            =      -0.0000000000000000 [Eh]
	 Same-Spin Energy          =      -0.5108289955041001 [Eh]
	 Opposite-Spin Energy      =      -1.5502682096844964 [Eh]
	 Correlation Energy        =      -2.0610972051885965 [Eh]
	 Total Energy              =    -456.5424524736652074 [Eh]

	 ================> DF-SCS-MP2 Energies <==================
	-----------------------------------------------------------
	 SCS Same-Spin Scale       =       0.3333333333333333 [-]
	 SCS Opposite-Spin Scale   =       1.2000000000000000 [-]
	 SCS Same-Spin Energy      =      -0.1702763318347000 [Eh]
	 SCS Opposite-Spin Energy  =      -1.8603218516213955 [Eh]
	 SCS Correlation Energy    =      -2.0305981834560956 [Eh]
	 SCS Total Energy          =    -456.5119534519326976 [Eh]
	-----------------------------------------------------------

  Dipole Moment: [D]
     X:    -0.9413      Y:     1.6359      Z:     0.7384     Total:     2.0267

*** Psi4 exiting successfully. Buy a developer a beer!
