                               Psi4 1.3.2 release

  ==> Input File <==

--------------------------------------------------------------------------
#psi4
#
memory 32 gb

molecule  {
0 1
  N        1.0056830    -0.1120563     0.0302883
  N        1.6997840    -1.0566340    -0.4179730
  C       -0.4063900     0.0163860    -0.0081010
  C       -1.1124080     1.1967220    -0.2540550
  C       -1.0729400    -1.1865160     0.2388070
  C        1.8312940     1.0508850     0.4071570
  C       -2.5072630     1.1720280    -0.2304200
  C       -2.4668310    -1.1992430     0.2370020
  C        3.1277520     0.5983640     0.2378140
  C       -3.1875810    -0.0227020     0.0140150
  C        2.9917500    -0.7051290    -0.2688550
  H       -0.5788940     2.1134690    -0.4901430
  H       -0.4926250    -2.0861370     0.4161180
  H        1.4325560     1.9713960     0.8093900
  H       -3.0617120     2.0872770    -0.4220560
  H       -2.9921950    -2.1322260     0.4251330
  H        4.0379080     1.1354570     0.4652770
  H       -4.2743140    -0.0387150     0.0221240
  H        3.7631710    -1.4121260    -0.5458550
units angstrom
no_reorient  #important for SAPT in psi4, default
symmetry c1  #important for SAPT in psi4, default
}

set PROPERTIES_ORIGIN ["COM"]
properties('MP2/aug-cc-pvtz', properties = ['dipole'])
--------------------------------------------------------------------------

    Molecular point group: c1
  Charge       = 0
  Multiplicity = 1
  Basis Set: AUG-CC-PVTZ
    Blend: AUG-CC-PVTZ
  Basis Set: (AUG-CC-PVTZ AUX)
    Blend: AUG-CC-PVTZ-JKFIT

    Orbital Energies [Eh]
    ---------------------

    Doubly Occupied:

       1A    -15.657528     2A    -15.596235     3A    -11.292212
       4A    -11.277684     5A    -11.250985     6A    -11.250746
       7A    -11.249396     8A    -11.245761     9A    -11.241902
      10A    -11.239695    11A    -11.235566    12A     -1.413460
      13A     -1.177539    14A     -1.104312    15A     -1.063579
      16A     -1.025517    17A     -0.995667    18A     -0.862454
      19A     -0.849494    20A     -0.801015    21A     -0.776354
      22A     -0.738868    23A     -0.687530    24A     -0.653579
      25A     -0.645371    26A     -0.621705    27A     -0.609324
      28A     -0.598371    29A     -0.579431    30A     -0.560881
      31A     -0.520385    32A     -0.512300    33A     -0.507436
      34A     -0.455534    35A     -0.394859    36A     -0.350746
      37A     -0.346931    38A     -0.305798

  @DF-RHF Final Energy:  -454.46671646021827

   => Energetics <=

    Nuclear Repulsion Energy =            546.6883549485688718
    One-Electron Energy =               -1698.9178393390411657
    Two-Electron Energy =                 697.7627679302540855
    Total Energy =                       -454.4667164602183220
  Basis Set: (AUG-CC-PVTZ AUX)
    Blend: AUG-CC-PVTZ-RI
    Molecular point group: c1

    Geometry (in Angstrom), charge = 0, multiplicity = 1:

       Center              X                  Y                   Z               Mass
    ------------   -----------------  -----------------  -----------------  -----------------
         N            0.991312112483    -0.086620518059     0.032114515745    14.003074004430
         N            1.685413112483    -1.031198218059    -0.416146784255    14.003074004430
         C           -0.420760887517     0.041821781941    -0.006274784255    12.000000000000
         C           -1.126778887517     1.222157781941    -0.252228784255    12.000000000000
         C           -1.087310887517    -1.161080218059     0.240633215745    12.000000000000
         C            1.816923112483     1.076320781941     0.408983215745    12.000000000000
         C           -2.521633887517     1.197463781941    -0.228593784255    12.000000000000
         C           -2.481201887517    -1.173807218059     0.238828215745    12.000000000000
         C            3.113381112483     0.623799781941     0.239640215745    12.000000000000
         C           -3.201951887517     0.002733781941     0.015841215745    12.000000000000
         C            2.977379112483    -0.679693218059    -0.267028784255    12.000000000000
         H           -0.593264887517     2.138904781941    -0.488316784255     1.007825032230
         H           -0.506995887517    -2.060701218059     0.417944215745     1.007825032230
         H            1.418185112483     1.996831781941     0.811216215745     1.007825032230
         H           -3.076082887517     2.112712781941    -0.420229784255     1.007825032230
         H           -3.006565887517    -2.106790218059     0.426959215745     1.007825032230
         H            4.023537112483     1.160892781941     0.467103215745     1.007825032230
         H           -4.288684887517    -0.013279218059     0.023950215745     1.007825032230
         H            3.748800112483    -1.386690218059    -0.544028784255     1.007825032230

  Basis Set: AUG-CC-PVTZ
    Blend: AUG-CC-PVTZ
  Basis Set: (AUG-CC-PVTZ AUX)
    Blend: AUG-CC-PVTZ-JKFIT
	 Reference Energy          =    -454.4667164602182652 [Eh]
	 Singles Energy            =      -0.0000000000000000 [Eh]
	 Same-Spin Energy          =      -0.5108971285003985 [Eh]
	 Opposite-Spin Energy      =      -1.5491361423786687 [Eh]
	 Correlation Energy        =      -2.0600332708790674 [Eh]
	 Total Energy              =    -456.5267497310973113 [Eh]

	 ================> DF-SCS-MP2 Energies <==================
	-----------------------------------------------------------
	 SCS Same-Spin Scale       =       0.3333333333333333 [-]
	 SCS Opposite-Spin Scale   =       1.2000000000000000 [-]
	 SCS Same-Spin Energy      =      -0.1702990428334661 [Eh]
	 SCS Opposite-Spin Energy  =      -1.8589633708544024 [Eh]
	 SCS Correlation Energy    =      -2.0292624136878685 [Eh]
	 SCS Total Energy          =    -456.4959788739061537 [Eh]
	-----------------------------------------------------------

  Dipole Moment: [D]
     X:    -0.9050      Y:     1.6568      Z:     0.7184     Total:     2.0199

*** Psi4 exiting successfully. Buy a developer a beer!
