                               Psi4 1.3.2 release

  ==> Input File <==

--------------------------------------------------------------------------
#psi4
#
memory 32 gb

molecule  {
0 1
  N        1.0119030     0.0333230     0.0008060
  N        1.7795535    -1.0095759    -0.3987400
  C       -0.4063900     0.0163860    -0.0081010
  C       -1.1124080     1.1967220    -0.2540550
  C       -1.0729400    -1.1865160     0.2388070
  C        1.8312940     1.0508850     0.4071570
  C       -2.5072630     1.1720280    -0.2304200
  C       -2.4668310    -1.1992430     0.2370020
  C        3.1277520     0.5983640     0.2378140
  C       -3.1875810    -0.0227020     0.0140150
  C        2.9917500    -0.7051290    -0.2688550
  H       -0.5788940     2.1134690    -0.4901430
  H       -0.4926250    -2.0861370     0.4161180
  H        1.4325560     1.9713960     0.8093900
  H       -3.0617120     2.0872770    -0.4220560
  H       -2.9921950    -2.1322260     0.4251330
  H        4.0379080     1.1354570     0.4652770
  H       -4.2743140    -0.0387150     0.0221240
  H        3.7631710    -1.4121260    -0.5458550
units angstrom
no_reorient  #important for SAPT in psi4, default
symmetry c1  #important for SAPT in psi4, default
}

set PROPERTIES_ORIGIN ["COM"]
properties('MP2/aug-cc-pvtz', properties = ['dipole'])
--------------------------------------------------------------------------

    Molecular point group: c1
  Charge       = 0
  Multiplicity = 1
  Basis Set: AUG-CC-PVTZ
    Blend: AUG-CC-PVTZ
  Basis Set: (AUG-CC-PVTZ AUX)
    Blend: AUG-CC-PVTZ-JKFIT

    Orbital Energies [Eh]
    ---------------------

    Doubly Occupied:

       1A    -15.646139     2A    -15.578836     3A    -11.293951
       4A    -11.279846     5A    -11.248791     6A    -11.248403
       7A    -11.247202     8A    -11.246553     9A    -11.241480
      10A    -11.241055    11A    -11.222423    12A     -1.391516
      13A     -1.184825    14A     -1.124819    15A     -1.056910
      16A     -1.025215    17A     -1.000290    18A     -0.860549
      19A     -0.850691    20A     -0.803714    21A     -0.775221
      22A     -0.740924    23A     -0.687947    24A     -0.651400
      25A     -0.645350    26A     -0.618178    27A     -0.602556
      28A     -0.597121    29A     -0.588017    30A     -0.567641
      31A     -0.521148    32A     -0.513393    33A     -0.507448
      34A     -0.446765    35A     -0.404132    36A     -0.352138
      37A     -0.347381    38A     -0.312695

  @DF-RHF Final Energy:  -454.48731250703230

   => Energetics <=

    Nuclear Repulsion Energy =            547.5889508846441913
    One-Electron Energy =               -1700.8072007525331628
    Two-Electron Energy =                 698.7309373608566148
    Total Energy =                       -454.4873125070323567
  Basis Set: (AUG-CC-PVTZ AUX)
    Blend: AUG-CC-PVTZ-RI
    Molecular point group: c1

    Geometry (in Angstrom), charge = 0, multiplicity = 1:

       Center              X                  Y                   Z               Mass
    ------------   -----------------  -----------------  -----------------  -----------------
         N            0.989174176799     0.040054412077     0.003628418656    14.003074004430
         N            1.756824676799    -1.002844487923    -0.395917581344    14.003074004430
         C           -0.429118823201     0.023117412077    -0.005278581344    12.000000000000
         C           -1.135136823201     1.203453412077    -0.251232581344    12.000000000000
         C           -1.095668823201    -1.179784587923     0.241629418656    12.000000000000
         C            1.808565176799     1.057616412077     0.409979418656    12.000000000000
         C           -2.529991823201     1.178759412077    -0.227597581344    12.000000000000
         C           -2.489559823201    -1.192511587923     0.239824418656    12.000000000000
         C            3.105023176799     0.605095412077     0.240636418656    12.000000000000
         C           -3.210309823201    -0.015970587923     0.016837418656    12.000000000000
         C            2.969021176799    -0.698397587923    -0.266032581344    12.000000000000
         H           -0.601622823201     2.120200412077    -0.487320581344     1.007825032230
         H           -0.515353823201    -2.079405587923     0.418940418656     1.007825032230
         H            1.409827176799     1.978127412077     0.812212418656     1.007825032230
         H           -3.084440823201     2.094008412077    -0.419233581344     1.007825032230
         H           -3.014923823201    -2.125494587923     0.427955418656     1.007825032230
         H            4.015179176799     1.142188412077     0.468099418656     1.007825032230
         H           -4.297042823201    -0.031983587923     0.024946418656     1.007825032230
         H            3.740442176799    -1.405394587923    -0.543032581344     1.007825032230

  Basis Set: AUG-CC-PVTZ
    Blend: AUG-CC-PVTZ
  Basis Set: (AUG-CC-PVTZ AUX)
    Blend: AUG-CC-PVTZ-JKFIT
	 Reference Energy          =    -454.4873125070322999 [Eh]
	 Singles Energy            =      -0.0000000000000000 [Eh]
	 Same-Spin Energy          =      -0.5071010663032727 [Eh]
	 Opposite-Spin Energy      =      -1.5428593072536838 [Eh]
	 Correlation Energy        =      -2.0499603735569565 [Eh]
	 Total Energy              =    -456.5372728805892848 [Eh]

	 ================> DF-SCS-MP2 Energies <==================
	-----------------------------------------------------------
	 SCS Same-Spin Scale       =       0.3333333333333333 [-]
	 SCS Opposite-Spin Scale   =       1.2000000000000000 [-]
	 SCS Same-Spin Energy      =      -0.1690336887677575 [Eh]
	 SCS Opposite-Spin Energy  =      -1.8514311687044205 [Eh]
	 SCS Correlation Energy    =      -2.0204648574721782 [Eh]
	 SCS Total Energy          =    -456.5077773645044772 [Eh]
	-----------------------------------------------------------

  Dipole Moment: [D]
     X:    -0.9515      Y:     1.4805      Z:     0.6724     Total:     1.8840

*** Psi4 exiting successfully. Buy a developer a beer!
