                               Psi4 1.3.2 release

  ==> Input File <==

--------------------------------------------------------------------------
#psi4
#
memory 32 gb

molecule  {
0 1
  N        1.0119030     0.0333230     0.0008060
  N        1.6997840    -1.0566340    -0.4179730
  C       -0.4063900     0.0163860    -0.0081010
  C       -1.1124080     1.1967220    -0.2540550
  C       -1.0729400    -1.1865160     0.2388070
  C        1.8312940     1.0508850     0.4071570
  C       -2.5072630     1.1720280    -0.2304200
  C       -2.4668310    -1.1992430     0.2370020
  C        3.1764760     0.5931891     0.2356749
  C       -3.1875810    -0.0227020     0.0140150
  C        2.9917500    -0.7051290    -0.2688550
  H       -0.5788940     2.1134690    -0.4901430
  H       -0.4926250    -2.0861370     0.4161180
  H        1.4325560     1.9713960     0.8093900
  H       -3.0617120     2.0872770    -0.4220560
  H       -2.9921950    -2.1322260     0.4251330
  H        4.0379080     1.1354570     0.4652770
  H       -4.2743140    -0.0387150     0.0221240
  H        3.7631710    -1.4121260    -0.5458550
units angstrom
no_reorient  #important for SAPT in psi4, default
symmetry c1  #important for SAPT in psi4, default
}

set PROPERTIES_ORIGIN ["COM"]
properties('MP2/aug-cc-pvtz', properties = ['dipole'])
--------------------------------------------------------------------------

    Molecular point group: c1
  Charge       = 0
  Multiplicity = 1
  Basis Set: AUG-CC-PVTZ
    Blend: AUG-CC-PVTZ
  Basis Set: (AUG-CC-PVTZ AUX)
    Blend: AUG-CC-PVTZ-JKFIT

    Orbital Energies [Eh]
    ---------------------

    Doubly Occupied:

       1A    -15.655632     2A    -15.588800     3A    -11.292696
       4A    -11.288681     5A    -11.260522     6A    -11.248996
       7A    -11.247706     8A    -11.246677     9A    -11.242106
      10A    -11.241904    11A    -11.230050    12A     -1.381287
      13A     -1.175871    14A     -1.110875    15A     -1.057417
      16A     -1.024876    17A     -0.999440    18A     -0.863511
      19A     -0.848022    20A     -0.800062    21A     -0.776100
      22A     -0.742468    23A     -0.687621    24A     -0.649921
      25A     -0.639876    26A     -0.619449    27A     -0.599635
      28A     -0.597458    29A     -0.591936    30A     -0.551509
      31A     -0.521339    32A     -0.511073    33A     -0.507928
      34A     -0.463399    35A     -0.395332    36A     -0.348001
      37A     -0.342710    38A     -0.314573

  @DF-RHF Final Energy:  -454.48350687324552

   => Energetics <=

    Nuclear Repulsion Energy =            545.4274148395373913
    One-Electron Energy =               -1696.4909218193872675
    Two-Electron Energy =                 696.5800001066044160
    Total Energy =                       -454.4835068732455738
  Basis Set: (AUG-CC-PVTZ AUX)
    Blend: AUG-CC-PVTZ-RI
    Molecular point group: c1

    Geometry (in Angstrom), charge = 0, multiplicity = 1:

       Center              X                  Y                   Z               Mass
    ------------   -----------------  -----------------  -----------------  -----------------
         N            0.992869150332     0.045059361905     0.005675985015    14.003074004430
         N            1.680750150332    -1.044897638095    -0.413103014985    14.003074004430
         C           -0.425423849668     0.028122361905    -0.003231014985    12.000000000000
         C           -1.131441849668     1.208458361905    -0.249185014985    12.000000000000
         C           -1.091973849668    -1.174779638095     0.243676985015    12.000000000000
         C            1.812260150332     1.062621361905     0.412026985015    12.000000000000
         C           -2.526296849668     1.183764361905    -0.225550014985    12.000000000000
         C           -2.485864849668    -1.187506638095     0.241871985015    12.000000000000
         C            3.157442150332     0.604925461905     0.240544885015    12.000000000000
         C           -3.206614849668    -0.010965638095     0.018884985015    12.000000000000
         C            2.972716150332    -0.693392638095    -0.263985014985    12.000000000000
         H           -0.597927849668     2.125205361905    -0.485273014985     1.007825032230
         H           -0.511658849668    -2.074400638095     0.420987985015     1.007825032230
         H            1.413522150332     1.983132361905     0.814259985015     1.007825032230
         H           -3.080745849668     2.099013361905    -0.417186014985     1.007825032230
         H           -3.011228849668    -2.120489638095     0.430002985015     1.007825032230
         H            4.018874150332     1.147193361905     0.470146985015     1.007825032230
         H           -4.293347849668    -0.026978638095     0.026993985015     1.007825032230
         H            3.744137150332    -1.400389638095    -0.540985014985     1.007825032230

  Basis Set: AUG-CC-PVTZ
    Blend: AUG-CC-PVTZ
  Basis Set: (AUG-CC-PVTZ AUX)
    Blend: AUG-CC-PVTZ-JKFIT
	 Reference Energy          =    -454.4835068732455170 [Eh]
	 Singles Energy            =      -0.0000000000000000 [Eh]
	 Same-Spin Energy          =      -0.5100054580066313 [Eh]
	 Opposite-Spin Energy      =      -1.5487833722648303 [Eh]
	 Correlation Energy        =      -2.0587888302714616 [Eh]
	 Total Energy              =    -456.5422957035169702 [Eh]

	 ================> DF-SCS-MP2 Energies <==================
	-----------------------------------------------------------
	 SCS Same-Spin Scale       =       0.3333333333333333 [-]
	 SCS Opposite-Spin Scale   =       1.2000000000000000 [-]
	 SCS Same-Spin Energy      =      -0.1700018193355438 [Eh]
	 SCS Opposite-Spin Energy  =      -1.8585400467177964 [Eh]
	 SCS Correlation Energy    =      -2.0285418660533403 [Eh]
	 SCS Total Energy          =    -456.5120487392988480 [Eh]
	-----------------------------------------------------------

  Dipole Moment: [D]
     X:    -0.9732      Y:     1.6369      Z:     0.7390     Total:     2.0427

*** Psi4 exiting successfully. Buy a developer a beer!
