                               Psi4 1.3.2 release

  ==> Input File <==

--------------------------------------------------------------------------
#psi4
#
memory 32 gb

molecule  {
0 1
  N        1.0119030     0.0333230     0.0008060
  N        1.6997840    -1.0566340    -0.4179730
  C       -0.4063900     0.0163860    -0.0081010
  C       -1.1629392     1.2812011    -0.2716584
  C       -1.0729400    -1.1865160     0.2388070
  C        1.8312940     1.0508850     0.4071570
  C       -2.5072630     1.1720280    -0.2304200
  C       -2.4668310    -1.1992430     0.2370020
  C        3.1277520     0.5983640     0.2378140
  C       -3.1875810    -0.0227020     0.0140150
  C        2.9917500    -0.7051290    -0.2688550
  H       -0.5788940     2.1134690    -0.4901430
  H       -0.4926250    -2.0861370     0.4161180
  H        1.4325560     1.9713960     0.8093900
  H       -3.0617120     2.0872770    -0.4220560
  H       -2.9921950    -2.1322260     0.4251330
  H        4.0379080     1.1354570     0.4652770
  H       -4.2743140    -0.0387150     0.0221240
  H        3.7631710    -1.4121260    -0.5458550
units angstrom
no_reorient  #important for SAPT in psi4, default
symmetry c1  #important for SAPT in psi4, default
}

set PROPERTIES_ORIGIN ["COM"]
properties('MP2/aug-cc-pvtz', properties = ['dipole'])
--------------------------------------------------------------------------

    Molecular point group: c1
  Charge       = 0
  Multiplicity = 1
  Basis Set: AUG-CC-PVTZ
    Blend: AUG-CC-PVTZ
  Basis Set: (AUG-CC-PVTZ AUX)
    Blend: AUG-CC-PVTZ-JKFIT

    Orbital Energies [Eh]
    ---------------------

    Doubly Occupied:

       1A    -15.653505     2A    -15.591300     3A    -11.300141
       4A    -11.283456     5A    -11.260526     6A    -11.248946
       7A    -11.247089     8A    -11.243463     9A    -11.240039
      10A    -11.239642    11A    -11.228975    12A     -1.382844
      13A     -1.169277    14A     -1.111285    15A     -1.065245
      16A     -1.030983    17A     -0.990808    18A     -0.865206
      19A     -0.842930    20A     -0.798996    21A     -0.775320
      22A     -0.741016    23A     -0.694357    24A     -0.647645
      25A     -0.640715    26A     -0.614637    27A     -0.604962
      28A     -0.591887    29A     -0.585809    30A     -0.565199
      31A     -0.528148    32A     -0.507749    33A     -0.495375
      34A     -0.463018    35A     -0.394091    36A     -0.354343
      37A     -0.349522    38A     -0.305783

  @DF-RHF Final Energy:  -454.47610280010531

   => Energetics <=

    Nuclear Repulsion Energy =            544.9156494662893238
    One-Electron Energy =               -1695.4750400270668251
    Two-Electron Energy =                 696.0832877606721922
    Total Energy =                       -454.4761028001053091
  Basis Set: (AUG-CC-PVTZ AUX)
    Blend: AUG-CC-PVTZ-RI
    Molecular point group: c1

    Geometry (in Angstrom), charge = 0, multiplicity = 1:

       Center              X                  Y                   Z               Mass
    ------------   -----------------  -----------------  -----------------  -----------------
         N            1.001136470027     0.037591760410     0.006964061730    14.003074004430
         N            1.689017470027    -1.052365239590    -0.411814938270    14.003074004430
         C           -0.417156529973     0.020654760410    -0.001942938270    12.000000000000
         C           -1.173705729973     1.285469860410    -0.265500338270    12.000000000000
         C           -1.083706529973    -1.182247239590     0.244965061730    12.000000000000
         C            1.820527470027     1.055153760410     0.413315061730    12.000000000000
         C           -2.518029529973     1.176296760410    -0.224261938270    12.000000000000
         C           -2.477597529973    -1.194974239590     0.243160061730    12.000000000000
         C            3.116985470027     0.602632760410     0.243972061730    12.000000000000
         C           -3.198347529973    -0.018433239590     0.020173061730    12.000000000000
         C            2.980983470027    -0.700860239590    -0.262696938270    12.000000000000
         H           -0.589660529973     2.117737760410    -0.483984938270     1.007825032230
         H           -0.503391529973    -2.081868239590     0.422276061730     1.007825032230
         H            1.421789470027     1.975664760410     0.815548061730     1.007825032230
         H           -3.072478529973     2.091545760410    -0.415897938270     1.007825032230
         H           -3.002961529973    -2.127957239590     0.431291061730     1.007825032230
         H            4.027141470027     1.139725760410     0.471435061730     1.007825032230
         H           -4.285080529973    -0.034446239590     0.028282061730     1.007825032230
         H            3.752404470027    -1.407857239590    -0.539696938270     1.007825032230

  Basis Set: AUG-CC-PVTZ
    Blend: AUG-CC-PVTZ
  Basis Set: (AUG-CC-PVTZ AUX)
    Blend: AUG-CC-PVTZ-JKFIT
	 Reference Energy          =    -454.4761028001053091 [Eh]
	 Singles Energy            =      -0.0000000000000000 [Eh]
	 Same-Spin Energy          =      -0.5095865845769010 [Eh]
	 Opposite-Spin Energy      =      -1.5486843354143027 [Eh]
	 Correlation Energy        =      -2.0582709199912035 [Eh]
	 Total Energy              =    -456.5343737200965393 [Eh]

	 ================> DF-SCS-MP2 Energies <==================
	-----------------------------------------------------------
	 SCS Same-Spin Scale       =       0.3333333333333333 [-]
	 SCS Opposite-Spin Scale   =       1.2000000000000000 [-]
	 SCS Same-Spin Energy      =      -0.1698621948589670 [Eh]
	 SCS Opposite-Spin Energy  =      -1.8584212024971631 [Eh]
	 SCS Correlation Energy    =      -2.0282833973561303 [Eh]
	 SCS Total Energy          =    -456.5043861974614288 [Eh]
	-----------------------------------------------------------

  Dipole Moment: [D]
     X:    -0.8152      Y:     1.6222      Z:     0.7367     Total:     1.9592

*** Psi4 exiting successfully. Buy a developer a beer!
