                               Psi4 1.3.2 release

  ==> Input File <==

--------------------------------------------------------------------------
#psi4
#
memory 32 gb

molecule  {
0 1
  N        0.9018637     0.1188584     0.0337391
  N        1.6997840    -1.0566340    -0.4179730
  C       -0.4063900     0.0163860    -0.0081010
  C       -1.1124080     1.1967220    -0.2540550
  C       -1.0729400    -1.1865160     0.2388070
  C        1.8312940     1.0508850     0.4071570
  C       -2.5072630     1.1720280    -0.2304200
  C       -2.4668310    -1.1992430     0.2370020
  C        3.1277520     0.5983640     0.2378140
  C       -3.1875810    -0.0227020     0.0140150
  C        2.9917500    -0.7051290    -0.2688550
  H       -0.5788940     2.1134690    -0.4901430
  H       -0.4926250    -2.0861370     0.4161180
  H        1.4325560     1.9713960     0.8093900
  H       -3.0617120     2.0872770    -0.4220560
  H       -2.9921950    -2.1322260     0.4251330
  H        4.0379080     1.1354570     0.4652770
  H       -4.2743140    -0.0387150     0.0221240
  H        3.7631710    -1.4121260    -0.5458550
units angstrom
no_reorient  #important for SAPT in psi4, default
symmetry c1  #important for SAPT in psi4, default
}

set PROPERTIES_ORIGIN ["COM"]
properties('MP2/aug-cc-pvtz', properties = ['dipole'])
--------------------------------------------------------------------------

    Molecular point group: c1
  Charge       = 0
  Multiplicity = 1
  Basis Set: AUG-CC-PVTZ
    Blend: AUG-CC-PVTZ
  Basis Set: (AUG-CC-PVTZ AUX)
    Blend: AUG-CC-PVTZ-JKFIT

    Orbital Energies [Eh]
    ---------------------

    Doubly Occupied:

       1A    -15.644369     2A    -15.595271     3A    -11.298109
       4A    -11.283224     5A    -11.275829     6A    -11.243410
       7A    -11.242531     8A    -11.238558     9A    -11.235378
      10A    -11.234579    11A    -11.233267    12A     -1.355690
      13A     -1.184815    14A     -1.122020    15A     -1.057235
      16A     -1.020213    17A     -0.992675    18A     -0.879250
      19A     -0.847949    20A     -0.786853    21A     -0.779259
      22A     -0.740020    23A     -0.682314    24A     -0.651983
      25A     -0.644064    26A     -0.612740    27A     -0.605273
      28A     -0.593493    29A     -0.571284    30A     -0.567199
      31A     -0.519682    32A     -0.505380    33A     -0.503075
      34A     -0.449885    35A     -0.410739    36A     -0.351549
      37A     -0.343059    38A     -0.301019

  @DF-RHF Final Energy:  -454.45920181199455

   => Energetics <=

    Nuclear Repulsion Energy =            546.1832414242956020
    One-Electron Energy =               -1698.0784000570561147
    Two-Electron Energy =                 697.4359568207660232
    Total Energy =                       -454.4592018119944896
  Basis Set: (AUG-CC-PVTZ AUX)
    Blend: AUG-CC-PVTZ-RI
    Molecular point group: c1

    Geometry (in Angstrom), charge = 0, multiplicity = 1:

       Center              X                  Y                   Z               Mass
    ------------   -----------------  -----------------  -----------------  -----------------
         N            0.897583754193     0.121849927572     0.035229907766    14.003074004430
         N            1.695504054193    -1.053642472428    -0.416482192234    14.003074004430
         C           -0.410669945807     0.019377527572    -0.006610192234    12.000000000000
         C           -1.116687945807     1.199713527572    -0.252564192234    12.000000000000
         C           -1.077219945807    -1.183524472428     0.240297807766    12.000000000000
         C            1.827014054193     1.053876527572     0.408647807766    12.000000000000
         C           -2.511542945807     1.175019527572    -0.228929192234    12.000000000000
         C           -2.471110945807    -1.196251472428     0.238492807766    12.000000000000
         C            3.123472054193     0.601355527572     0.239304807766    12.000000000000
         C           -3.191860945807    -0.019710472428     0.015505807766    12.000000000000
         C            2.987470054193    -0.702137472428    -0.267364192234    12.000000000000
         H           -0.583173945807     2.116460527572    -0.488652192234     1.007825032230
         H           -0.496904945807    -2.083145472428     0.417608807766     1.007825032230
         H            1.428276054193     1.974387527572     0.810880807766     1.007825032230
         H           -3.065991945807     2.090268527572    -0.420565192234     1.007825032230
         H           -2.996474945807    -2.129234472428     0.426623807766     1.007825032230
         H            4.033628054193     1.138448527572     0.466767807766     1.007825032230
         H           -4.278593945807    -0.035723472428     0.023614807766     1.007825032230
         H            3.758891054193    -1.409134472428    -0.544364192234     1.007825032230

  Basis Set: AUG-CC-PVTZ
    Blend: AUG-CC-PVTZ
  Basis Set: (AUG-CC-PVTZ AUX)
    Blend: AUG-CC-PVTZ-JKFIT
	 Reference Energy          =    -454.4592018119945465 [Eh]
	 Singles Energy            =      -0.0000000000000000 [Eh]
	 Same-Spin Energy          =      -0.5108023802768213 [Eh]
	 Opposite-Spin Energy      =      -1.5522707807197529 [Eh]
	 Correlation Energy        =      -2.0630731609965745 [Eh]
	 Total Energy              =    -456.5222749729911129 [Eh]

	 ================> DF-SCS-MP2 Energies <==================
	-----------------------------------------------------------
	 SCS Same-Spin Scale       =       0.3333333333333333 [-]
	 SCS Opposite-Spin Scale   =       1.2000000000000000 [-]
	 SCS Same-Spin Energy      =      -0.1702674600922738 [Eh]
	 SCS Opposite-Spin Energy  =      -1.8627249368637033 [Eh]
	 SCS Correlation Energy    =      -2.0329923969559771 [Eh]
	 SCS Total Energy          =    -456.4921942089505364 [Eh]
	-----------------------------------------------------------

  Dipole Moment: [D]
     X:    -0.3578      Y:     1.5477      Z:     0.7283     Total:     1.7475

*** Psi4 exiting successfully. Buy a developer a beer!
