                               Psi4 1.3.2 release

  ==> Input File <==

--------------------------------------------------------------------------
#psi4
#
memory 32 gb

molecule  {
0 1
  N        0.9741862     0.0598654     0.0132008
  N        1.6997840    -1.0566340    -0.4179730
  C       -0.4063900     0.0163860    -0.0081010
  C       -1.1124080     1.1967220    -0.2540550
  C       -1.0729400    -1.1865160     0.2388070
  C        1.8312940     1.0508850     0.4071570
  C       -2.5072630     1.1720280    -0.2304200
  C       -2.4668310    -1.1992430     0.2370020
  C        3.1277520     0.5983640     0.2378140
  C       -3.1875810    -0.0227020     0.0140150
  C        2.9917500    -0.7051290    -0.2688550
  H       -0.5788940     2.1134690    -0.4901430
  H       -0.4926250    -2.0861370     0.4161180
  H        1.4325560     1.9713960     0.8093900
  H       -3.0617120     2.0872770    -0.4220560
  H       -2.9921950    -2.1322260     0.4251330
  H        4.0379080     1.1354570     0.4652770
  H       -4.2743140    -0.0387150     0.0221240
  H        3.7631710    -1.4121260    -0.5458550
units angstrom
no_reorient  #important for SAPT in psi4, default
symmetry c1  #important for SAPT in psi4, default
}

set PROPERTIES_ORIGIN ["COM"]
properties('MP2/aug-cc-pvtz', properties = ['dipole'])
--------------------------------------------------------------------------

    Molecular point group: c1
  Charge       = 0
  Multiplicity = 1
  Basis Set: AUG-CC-PVTZ
    Blend: AUG-CC-PVTZ
  Basis Set: (AUG-CC-PVTZ AUX)
    Blend: AUG-CC-PVTZ-JKFIT

    Orbital Energies [Eh]
    ---------------------

    Doubly Occupied:

       1A    -15.649163     2A    -15.592052     3A    -11.288901
       4A    -11.287698     5A    -11.265225     6A    -11.246579
       7A    -11.244799     8A    -11.244169     9A    -11.239118
      10A    -11.238870    11A    -11.229670    12A     -1.370478
      13A     -1.177957    14A     -1.115149    15A     -1.060695
      16A     -1.022957    17A     -0.996552    18A     -0.866655
      19A     -0.847931    20A     -0.793423    21A     -0.778454
      22A     -0.741520    23A     -0.685297    24A     -0.649269
      25A     -0.640864    26A     -0.613490    27A     -0.599390
      28A     -0.595700    29A     -0.582512    30A     -0.566003
      31A     -0.520546    32A     -0.508836    33A     -0.505688
      34A     -0.459103    35A     -0.400411    36A     -0.350007
      37A     -0.345369    38A     -0.309524

  @DF-RHF Final Energy:  -454.48398532541324

   => Energetics <=

    Nuclear Repulsion Energy =            546.2653298928312324
    One-Electron Energy =               -1698.2385849113968561
    Two-Electron Energy =                 697.4892696931523233
    Total Energy =                       -454.4839853254133004
  Basis Set: (AUG-CC-PVTZ AUX)
    Blend: AUG-CC-PVTZ-RI
    Molecular point group: c1

    Geometry (in Angstrom), charge = 0, multiplicity = 1:

       Center              X                  Y                   Z               Mass
    ------------   -----------------  -----------------  -----------------  -----------------
         N            0.962876712173     0.068590879971     0.016687872315    14.003074004430
         N            1.688474512173    -1.047908520029    -0.414485927685    14.003074004430
         C           -0.417699487827     0.025111479971    -0.004613927685    12.000000000000
         C           -1.123717487827     1.205447479971    -0.250567927685    12.000000000000
         C           -1.084249487827    -1.177790520029     0.242294072315    12.000000000000
         C            1.819984512173     1.059610479971     0.410644072315    12.000000000000
         C           -2.518572487827     1.180753479971    -0.226932927685    12.000000000000
         C           -2.478140487827    -1.190517520029     0.240489072315    12.000000000000
         C            3.116442512173     0.607089479971     0.241301072315    12.000000000000
         C           -3.198890487827    -0.013976520029     0.017502072315    12.000000000000
         C            2.980440512173    -0.696403520029    -0.265367927685    12.000000000000
         H           -0.590203487827     2.122194479971    -0.486655927685     1.007825032230
         H           -0.503934487827    -2.077411520029     0.419605072315     1.007825032230
         H            1.421246512173     1.980121479971     0.812877072315     1.007825032230
         H           -3.073021487827     2.096002479971    -0.418568927685     1.007825032230
         H           -3.003504487827    -2.123500520029     0.428620072315     1.007825032230
         H            4.026598512173     1.144182479971     0.468764072315     1.007825032230
         H           -4.285623487827    -0.029989520029     0.025611072315     1.007825032230
         H            3.751861512173    -1.403400520029    -0.542367927685     1.007825032230

  Basis Set: AUG-CC-PVTZ
    Blend: AUG-CC-PVTZ
  Basis Set: (AUG-CC-PVTZ AUX)
    Blend: AUG-CC-PVTZ-JKFIT
	 Reference Energy          =    -454.4839853254132436 [Eh]
	 Singles Energy            =      -0.0000000000000000 [Eh]
	 Same-Spin Energy          =      -0.5097969327191978 [Eh]
	 Opposite-Spin Energy      =      -1.5489185889021975 [Eh]
	 Correlation Energy        =      -2.0587155216213953 [Eh]
	 Total Energy              =    -456.5427008470346664 [Eh]

	 ================> DF-SCS-MP2 Energies <==================
	-----------------------------------------------------------
	 SCS Same-Spin Scale       =       0.3333333333333333 [-]
	 SCS Opposite-Spin Scale   =       1.2000000000000000 [-]
	 SCS Same-Spin Energy      =      -0.1699323109063993 [Eh]
	 SCS Opposite-Spin Energy  =      -1.8587023066826369 [Eh]
	 SCS Correlation Energy    =      -2.0286346175890362 [Eh]
	 SCS Total Energy          =    -456.5126199430022780 [Eh]
	-----------------------------------------------------------

  Dipole Moment: [D]
     X:    -0.7069      Y:     1.6129      Z:     0.7371     Total:     1.9091

*** Psi4 exiting successfully. Buy a developer a beer!
