                               Psi4 1.3.2 release

  ==> Input File <==

--------------------------------------------------------------------------
#psi4
#
memory 32 gb

molecule  {
0 1
  N        1.0119030     0.0333230     0.0008060
  N        1.6997840    -1.0566340    -0.4179730
  C       -0.4063900     0.0163860    -0.0081010
  C       -1.1124080     1.1967220    -0.2540550
  C       -1.0729400    -1.1865160     0.2388070
  C        1.7878955     0.9221559     0.3569737
  C       -2.5072630     1.1720280    -0.2304200
  C       -2.4668310    -1.1992430     0.2370020
  C        3.1277520     0.5983640     0.2378140
  C       -3.1875810    -0.0227020     0.0140150
  C        2.9917500    -0.7051290    -0.2688550
  H       -0.5788940     2.1134690    -0.4901430
  H       -0.4926250    -2.0861370     0.4161180
  H        1.4325560     1.9713960     0.8093900
  H       -3.0617120     2.0872770    -0.4220560
  H       -2.9921950    -2.1322260     0.4251330
  H        4.0379080     1.1354570     0.4652770
  H       -4.2743140    -0.0387150     0.0221240
  H        3.7631710    -1.4121260    -0.5458550
units angstrom
no_reorient  #important for SAPT in psi4, default
symmetry c1  #important for SAPT in psi4, default
}

set PROPERTIES_ORIGIN ["COM"]
properties('MP2/aug-cc-pvtz', properties = ['dipole'])
--------------------------------------------------------------------------

    Molecular point group: c1
  Charge       = 0
  Multiplicity = 1
  Basis Set: AUG-CC-PVTZ
    Blend: AUG-CC-PVTZ
  Basis Set: (AUG-CC-PVTZ AUX)
    Blend: AUG-CC-PVTZ-JKFIT

    Orbital Energies [Eh]
    ---------------------

    Doubly Occupied:

       1A    -15.652619     2A    -15.574874     3A    -11.296354
       4A    -11.279171     5A    -11.258493     6A    -11.252028
       7A    -11.250438     8A    -11.248899     9A    -11.245812
      10A    -11.245326    11A    -11.217094    12A     -1.415951
      13A     -1.180551    14A     -1.123678    15A     -1.067764
      16A     -1.027953    17A     -1.006065    18A     -0.870381
      19A     -0.851985    20A     -0.806888    21A     -0.773262
      22A     -0.733450    23A     -0.688264    24A     -0.661558
      25A     -0.644349    26A     -0.626862    27A     -0.608993
      28A     -0.600375    29A     -0.586402    30A     -0.527361
      31A     -0.524028    32A     -0.514325    33A     -0.509645
      34A     -0.454811    35A     -0.399609    36A     -0.350144
      37A     -0.346642    38A     -0.319016

  @DF-RHF Final Energy:  -454.46425658047860

   => Energetics <=

    Nuclear Repulsion Energy =            549.6755455722831130
    One-Electron Energy =               -1704.7967672939998920
    Two-Electron Energy =                 700.6569651412380608
    Total Energy =                       -454.4642565804786045
  Basis Set: (AUG-CC-PVTZ AUX)
    Blend: AUG-CC-PVTZ-RI
    Molecular point group: c1

    Geometry (in Angstrom), charge = 0, multiplicity = 1:

       Center              X                  Y                   Z               Mass
    ------------   -----------------  -----------------  -----------------  -----------------
         N            1.000542361998     0.055350631995     0.009677757828    14.003074004430
         N            1.688423361998    -1.034606368005    -0.409101242172    14.003074004430
         C           -0.417750638002     0.038413631995     0.000770757828    12.000000000000
         C           -1.123768638002     1.218749631995    -0.245183242172    12.000000000000
         C           -1.084300638002    -1.164488368005     0.247678757828    12.000000000000
         C            1.776534861998     0.944183531995     0.365845457828    12.000000000000
         C           -2.518623638002     1.194055631995    -0.221548242172    12.000000000000
         C           -2.478191638002    -1.177215368005     0.245873757828    12.000000000000
         C            3.116391361998     0.620391631995     0.246685757828    12.000000000000
         C           -3.198941638002    -0.000674368005     0.022886757828    12.000000000000
         C            2.980389361998    -0.683101368005    -0.259983242172    12.000000000000
         H           -0.590254638002     2.135496631995    -0.481271242172     1.007825032230
         H           -0.503985638002    -2.064109368005     0.424989757828     1.007825032230
         H            1.421195361998     1.993423631995     0.818261757828     1.007825032230
         H           -3.073072638002     2.109304631995    -0.413184242172     1.007825032230
         H           -3.003555638002    -2.110198368005     0.434004757828     1.007825032230
         H            4.026547361998     1.157484631995     0.474148757828     1.007825032230
         H           -4.285674638002    -0.016687368005     0.030995757828     1.007825032230
         H            3.751810361998    -1.390098368005    -0.536983242172     1.007825032230

  Basis Set: AUG-CC-PVTZ
    Blend: AUG-CC-PVTZ
  Basis Set: (AUG-CC-PVTZ AUX)
    Blend: AUG-CC-PVTZ-JKFIT
	 Reference Energy          =    -454.4642565804786045 [Eh]
	 Singles Energy            =      -0.0000000000000000 [Eh]
	 Same-Spin Energy          =      -0.5086571653035659 [Eh]
	 Opposite-Spin Energy      =      -1.5449687111732193 [Eh]
	 Correlation Energy        =      -2.0536258764767852 [Eh]
	 Total Energy              =    -456.5178824569553626 [Eh]

	 ================> DF-SCS-MP2 Energies <==================
	-----------------------------------------------------------
	 SCS Same-Spin Scale       =       0.3333333333333333 [-]
	 SCS Opposite-Spin Scale   =       1.2000000000000000 [-]
	 SCS Same-Spin Energy      =      -0.1695523884345219 [Eh]
	 SCS Opposite-Spin Energy  =      -1.8539624534078631 [Eh]
	 SCS Correlation Energy    =      -2.0235148418423852 [Eh]
	 SCS Total Energy          =    -456.4877714223209750 [Eh]
	-----------------------------------------------------------

  Dipole Moment: [D]
     X:    -1.2339      Y:     1.6306      Z:     0.7276     Total:     2.1704

*** Psi4 exiting successfully. Buy a developer a beer!
