                               Psi4 1.3.2 release

  ==> Input File <==

--------------------------------------------------------------------------
#psi4
#
memory 32 gb

molecule  {
0 1
  N        1.0530700     0.0548970     0.0096041
  N        1.6997840    -1.0566340    -0.4179730
  C       -0.4063900     0.0163860    -0.0081010
  C       -1.1124080     1.1967220    -0.2540550
  C       -1.0729400    -1.1865160     0.2388070
  C        1.8312940     1.0508850     0.4071570
  C       -2.5072630     1.1720280    -0.2304200
  C       -2.4668310    -1.1992430     0.2370020
  C        3.1277520     0.5983640     0.2378140
  C       -3.1875810    -0.0227020     0.0140150
  C        2.9917500    -0.7051290    -0.2688550
  H       -0.5788940     2.1134690    -0.4901430
  H       -0.4926250    -2.0861370     0.4161180
  H        1.4325560     1.9713960     0.8093900
  H       -3.0617120     2.0872770    -0.4220560
  H       -2.9921950    -2.1322260     0.4251330
  H        4.0379080     1.1354570     0.4652770
  H       -4.2743140    -0.0387150     0.0221240
  H        3.7631710    -1.4121260    -0.5458550
units angstrom
no_reorient  #important for SAPT in psi4, default
symmetry c1  #important for SAPT in psi4, default
}

set PROPERTIES_ORIGIN ["COM"]
properties('MP2/aug-cc-pvtz', properties = ['dipole'])
--------------------------------------------------------------------------

    Molecular point group: c1
  Charge       = 0
  Multiplicity = 1
  Basis Set: AUG-CC-PVTZ
    Blend: AUG-CC-PVTZ
  Basis Set: (AUG-CC-PVTZ AUX)
    Blend: AUG-CC-PVTZ-JKFIT

    Orbital Energies [Eh]
    ---------------------

    Doubly Occupied:

       1A    -15.652119     2A    -15.587472     3A    -11.295051
       4A    -11.278276     5A    -11.257356     6A    -11.249575
       7A    -11.248370     8A    -11.247395     9A    -11.243571
      10A    -11.242928    11A    -11.222918    12A     -1.387327
      13A     -1.173218    14A     -1.110655    15A     -1.067005
      16A     -1.026038    17A     -0.999119    18A     -0.855663
      19A     -0.847269    20A     -0.799735    21A     -0.776733
      22A     -0.745404    23A     -0.688080    24A     -0.649026
      25A     -0.637617    26A     -0.616671    27A     -0.598410
      28A     -0.592107    29A     -0.586198    30A     -0.562462
      31A     -0.520067    32A     -0.512132    33A     -0.507908
      34A     -0.466465    35A     -0.391563    36A     -0.350221
      37A     -0.347434    38A     -0.316637

  @DF-RHF Final Energy:  -454.48585427295797

   => Energetics <=

    Nuclear Repulsion Energy =            546.3685930841411391
    One-Electron Energy =               -1698.3964962913755699
    Two-Electron Energy =                 697.5420489342764085
    Total Energy =                       -454.4858542729580222
  Basis Set: (AUG-CC-PVTZ AUX)
    Blend: AUG-CC-PVTZ-RI
    Molecular point group: c1

    Geometry (in Angstrom), charge = 0, multiplicity = 1:

       Center              X                  Y                   Z               Mass
    ------------   -----------------  -----------------  -----------------  -----------------
         N            1.034093230389     0.064105394369     0.013440761361    14.003074004430
         N            1.680807230389    -1.047425605631    -0.414136338639    14.003074004430
         C           -0.425366769611     0.025594394369    -0.004264338639    12.000000000000
         C           -1.131384769611     1.205930394369    -0.250218338639    12.000000000000
         C           -1.091916769611    -1.177307605631     0.242643661361    12.000000000000
         C            1.812317230389     1.060093394369     0.410993661361    12.000000000000
         C           -2.526239769611     1.181236394369    -0.226583338639    12.000000000000
         C           -2.485807769611    -1.190034605631     0.240838661361    12.000000000000
         C            3.108775230389     0.607572394369     0.241650661361    12.000000000000
         C           -3.206557769611    -0.013493605631     0.017851661361    12.000000000000
         C            2.972773230389    -0.695920605631    -0.265018338639    12.000000000000
         H           -0.597870769611     2.122677394369    -0.486306338639     1.007825032230
         H           -0.511601769611    -2.076928605631     0.419954661361     1.007825032230
         H            1.413579230389     1.980604394369     0.813226661361     1.007825032230
         H           -3.080688769611     2.096485394369    -0.418219338639     1.007825032230
         H           -3.011171769611    -2.123017605631     0.428969661361     1.007825032230
         H            4.018931230389     1.144665394369     0.469113661361     1.007825032230
         H           -4.293290769611    -0.029506605631     0.025960661361     1.007825032230
         H            3.744194230389    -1.402917605631    -0.542018338639     1.007825032230

  Basis Set: AUG-CC-PVTZ
    Blend: AUG-CC-PVTZ
  Basis Set: (AUG-CC-PVTZ AUX)
    Blend: AUG-CC-PVTZ-JKFIT
	 Reference Energy          =    -454.4858542729579653 [Eh]
	 Singles Energy            =      -0.0000000000000000 [Eh]
	 Same-Spin Energy          =      -0.5093812058119012 [Eh]
	 Opposite-Spin Energy      =      -1.5472036927746657 [Eh]
	 Correlation Energy        =      -2.0565848985865669 [Eh]
	 Total Energy              =    -456.5424391715445154 [Eh]

	 ================> DF-SCS-MP2 Energies <==================
	-----------------------------------------------------------
	 SCS Same-Spin Scale       =       0.3333333333333333 [-]
	 SCS Opposite-Spin Scale   =       1.2000000000000000 [-]
	 SCS Same-Spin Energy      =      -0.1697937352706337 [Eh]
	 SCS Opposite-Spin Energy  =      -1.8566444313295989 [Eh]
	 SCS Correlation Energy    =      -2.0264381666002325 [Eh]
	 SCS Total Energy          =    -456.5122924395582231 [Eh]
	-----------------------------------------------------------

  Dipole Moment: [D]
     X:    -1.0785      Y:     1.6426      Z:     0.7447     Total:     2.1014

*** Psi4 exiting successfully. Buy a developer a beer!
