                               Psi4 1.4a3.dev225

  ==> Input File <==

--------------------------------------------------------------------------
#psi4
#
memory 32 gb

molecule  {
0 1
  N        1.0119030     0.0333230     0.0008060
  N        1.6997840    -1.0566340    -0.4179730
  C       -0.4063900     0.0163860    -0.0081010
  C       -1.1124080     1.1967220    -0.2540550
  C       -1.0729400    -1.1865160     0.2388070
  C        1.8312940     1.0508850     0.4071570
  C       -2.5072630     1.1720280    -0.2304200
  C       -2.4668310    -1.1992430     0.2370020
  C        3.1277520     0.5983640     0.2378140
  C       -3.1875810    -0.0227020     0.0140150
  C        2.9917500    -0.7051290    -0.2688550
  H       -0.5788940     2.1134690    -0.4901430
  H       -0.4926250    -2.0861370     0.4161180
  H        1.4325560     1.9713960     0.8093900
  H       -3.0617120     2.0872770    -0.4220560
  H       -2.9921950    -2.1322260     0.4251330
  H        4.0379080     1.1354570     0.4652770
  H       -4.2743140    -0.0387150     0.0221240
  H        3.7774244    -1.4251891    -0.5509731
units angstrom
no_reorient  #important for SAPT in psi4, default
symmetry c1  #important for SAPT in psi4, default
}

set PROPERTIES_ORIGIN ["COM"]
properties('MP2/aug-cc-pvtz', properties = ['dipole'])
--------------------------------------------------------------------------

    Molecular point group: c1
  Charge       = 0
  Multiplicity = 1
  Basis Set: AUG-CC-PVTZ
    Blend: AUG-CC-PVTZ
  Basis Set: (AUG-CC-PVTZ AUX)
    Blend: AUG-CC-PVTZ-JKFIT

    Orbital Energies [Eh]
    ---------------------

    Doubly Occupied:

       1A    -15.651924     2A    -15.590868     3A    -11.291792
       4A    -11.282665     5A    -11.261876     6A    -11.248258
       7A    -11.246786     8A    -11.246010     9A    -11.241072
      10A    -11.240910    11A    -11.228243    12A     -1.382568
      13A     -1.175535    14A     -1.110202    15A     -1.064100
      16A     -1.024478    17A     -0.997959    18A     -0.860362
      19A     -0.847618    20A     -0.796307    21A     -0.776958
      22A     -0.742526    23A     -0.686493    24A     -0.648951
      25A     -0.639354    26A     -0.615234    27A     -0.597024
      28A     -0.594074    29A     -0.588827    30A     -0.561695
      31A     -0.520317    32A     -0.510819    33A     -0.507012
      34A     -0.462857    35A     -0.395047    36A     -0.349935
      37A     -0.346367    38A     -0.313058

  @DF-RHF Final Energy:  -454.48742527749363

   => Energetics <=

    Nuclear Repulsion Energy =            546.2602367106746897
    One-Electron Energy =               -1698.2031659266024235
    Two-Electron Energy =                 697.4555039384340489
    Total Energy =                       -454.4874252774936849
  Basis Set: (AUG-CC-PVTZ AUX)
    Blend: AUG-CC-PVTZ-RI
    Molecular point group: c1

    Geometry (in Angstrom), charge = 0, multiplicity = 1:

       Center              X                  Y                   Z               Mass
    ------------   -----------------  -----------------  -----------------  -----------------
         N            0.996827837233     0.044719708223     0.005533615133    14.003074004430
         N            1.684708837233    -1.045237291777    -0.413245384867    14.003074004430
         C           -0.421465162767     0.027782708223    -0.003373384867    12.000000000000
         C           -1.127483162767     1.208118708223    -0.249327384867    12.000000000000
         C           -1.088015162767    -1.175119291777     0.243534615133    12.000000000000
         C            1.816218837233     1.062281708223     0.411884615133    12.000000000000
         C           -2.522338162767     1.183424708223    -0.225692384867    12.000000000000
         C           -2.481906162767    -1.187846291777     0.241729615133    12.000000000000
         C            3.112676837233     0.609760708223     0.242541615133    12.000000000000
         C           -3.202656162767    -0.011305291777     0.018742615133    12.000000000000
         C            2.976674837233    -0.693732291777    -0.264127384867    12.000000000000
         H           -0.593969162767     2.124865708223    -0.485415384867     1.007825032230
         H           -0.507700162767    -2.074740291777     0.420845615133     1.007825032230
         H            1.417480837233     1.982792708223     0.814117615133     1.007825032230
         H           -3.076787162767     2.098673708223    -0.417328384867     1.007825032230
         H           -3.007270162767    -2.120829291777     0.429860615133     1.007825032230
         H            4.022832837233     1.146853708223     0.470004615133     1.007825032230
         H           -4.289389162767    -0.027318291777     0.026851615133     1.007825032230
         H            3.762349237233    -1.413792391777    -0.546245484867     1.007825032230

  Basis Set: AUG-CC-PVTZ
    Blend: AUG-CC-PVTZ
  Basis Set: (AUG-CC-PVTZ AUX)
    Blend: AUG-CC-PVTZ-JKFIT
	 Reference Energy          =    -454.4874252774936281 [Eh]
	 Singles Energy            =      -0.0000000000000000 [Eh]
	 Same-Spin Energy          =      -0.5097075832156038 [Eh]
	 Opposite-Spin Energy      =      -1.5480412994712951 [Eh]
	 Correlation Energy        =      -2.0577488826868988 [Eh]
	 Total Energy              =    -456.5451741601805224 [Eh]

	 ================> DF-SCS-MP2 Energies <==================
	-----------------------------------------------------------
	 SCS Same-Spin Scale       =       0.3333333333333333 [-]
	 SCS Opposite-Spin Scale   =       1.2000000000000000 [-]
	 SCS Same-Spin Energy      =      -0.1699025277385346 [Eh]
	 SCS Opposite-Spin Energy  =      -1.8576495593655540 [Eh]
	 SCS Correlation Energy    =      -2.0275520871040884 [Eh]
	 SCS Total Energy          =    -456.5149773645977120 [Eh]
	-----------------------------------------------------------

  Dipole Moment: [D]
     X:    -0.8887      Y:     1.6388      Z:     0.7391     Total:     2.0054

*** Psi4 exiting successfully. Buy a developer a beer!
