                               Psi4 1.3.2 release

  ==> Input File <==

--------------------------------------------------------------------------
#psi4
#
memory 32 gb

molecule  {
0 1
  N        1.0119030     0.0333230     0.0008060
  N        1.6997840    -1.0566340    -0.4179730
  C       -0.5063809     0.0151919    -0.0087290
  C       -1.1124080     1.1967220    -0.2540550
  C       -1.0729400    -1.1865160     0.2388070
  C        1.8312940     1.0508850     0.4071570
  C       -2.5072630     1.1720280    -0.2304200
  C       -2.4668310    -1.1992430     0.2370020
  C        3.1277520     0.5983640     0.2378140
  C       -3.1875810    -0.0227020     0.0140150
  C        2.9917500    -0.7051290    -0.2688550
  H       -0.5788940     2.1134690    -0.4901430
  H       -0.4926250    -2.0861370     0.4161180
  H        1.4325560     1.9713960     0.8093900
  H       -3.0617120     2.0872770    -0.4220560
  H       -2.9921950    -2.1322260     0.4251330
  H        4.0379080     1.1354570     0.4652770
  H       -4.2743140    -0.0387150     0.0221240
  H        3.7631710    -1.4121260    -0.5458550
units angstrom
no_reorient  #important for SAPT in psi4, default
symmetry c1  #important for SAPT in psi4, default
}

set PROPERTIES_ORIGIN ["COM"]
properties('MP2/aug-cc-pvtz', properties = ['dipole'])
--------------------------------------------------------------------------

    Molecular point group: c1
  Charge       = 0
  Multiplicity = 1
  Basis Set: AUG-CC-PVTZ
    Blend: AUG-CC-PVTZ
  Basis Set: (AUG-CC-PVTZ AUX)
    Blend: AUG-CC-PVTZ-JKFIT

    Orbital Energies [Eh]
    ---------------------

    Doubly Occupied:

       1A    -15.644987     2A    -15.585064     3A    -11.291758
       4A    -11.275821     5A    -11.252671     6A    -11.251799
       7A    -11.249868     8A    -11.246570     9A    -11.244173
      10A    -11.240679    11A    -11.221584    12A     -1.367034
      13A     -1.184722    14A     -1.097037    15A     -1.056901
      16A     -1.034686    17A     -1.004051    18A     -0.855098
      19A     -0.846975    20A     -0.792754    21A     -0.774921
      22A     -0.739582    23A     -0.686567    24A     -0.652175
      25A     -0.639758    26A     -0.615527    27A     -0.600510
      28A     -0.585151    29A     -0.584419    30A     -0.558163
      31A     -0.522998    32A     -0.519351    33A     -0.511232
      34A     -0.457139    35A     -0.387855    36A     -0.352532
      37A     -0.342734    38A     -0.322755

  @DF-RHF Final Energy:  -454.47697550185416

   => Energetics <=

    Nuclear Repulsion Energy =            546.2401619409910154
    One-Electron Energy =               -1698.2390710549029791
    Two-Electron Energy =                 697.5219336120576372
    Total Energy =                       -454.4769755018542128
  Basis Set: (AUG-CC-PVTZ AUX)
    Blend: AUG-CC-PVTZ-RI
    Molecular point group: c1

    Geometry (in Angstrom), charge = 0, multiplicity = 1:

       Center              X                  Y                   Z               Mass
    ------------   -----------------  -----------------  -----------------  -----------------
         N            1.005256144884     0.044727786872     0.005550120105    14.003074004430
         N            1.693137144884    -1.045229213128    -0.413228879895    14.003074004430
         C           -0.513027755116     0.026596686872    -0.003984879895    12.000000000000
         C           -1.119054855116     1.208126786872    -0.249310879895    12.000000000000
         C           -1.079586855116    -1.175111213128     0.243551120105    12.000000000000
         C            1.824647144884     1.062289786872     0.411901120105    12.000000000000
         C           -2.513909855116     1.183432786872    -0.225675879895    12.000000000000
         C           -2.473477855116    -1.187838213128     0.241746120105    12.000000000000
         C            3.121105144884     0.609768786872     0.242558120105    12.000000000000
         C           -3.194227855116    -0.011297213128     0.018759120105    12.000000000000
         C            2.985103144884    -0.693724213128    -0.264110879895    12.000000000000
         H           -0.585540855116     2.124873786872    -0.485398879895     1.007825032230
         H           -0.499271855116    -2.074732213128     0.420862120105     1.007825032230
         H            1.425909144884     1.982800786872     0.814134120105     1.007825032230
         H           -3.068358855116     2.098681786872    -0.417311879895     1.007825032230
         H           -2.998841855116    -2.120821213128     0.429877120105     1.007825032230
         H            4.031261144884     1.146861786872     0.470021120105     1.007825032230
         H           -4.280960855116    -0.027310213128     0.026868120105     1.007825032230
         H            3.756524144884    -1.400721213128    -0.541110879895     1.007825032230

  Basis Set: AUG-CC-PVTZ
    Blend: AUG-CC-PVTZ
  Basis Set: (AUG-CC-PVTZ AUX)
    Blend: AUG-CC-PVTZ-JKFIT
	 Reference Energy          =    -454.4769755018541559 [Eh]
	 Singles Energy            =      -0.0000000000000000 [Eh]
	 Same-Spin Energy          =      -0.5097194858457779 [Eh]
	 Opposite-Spin Energy      =      -1.5480585631508159 [Eh]
	 Correlation Energy        =      -2.0577780489965938 [Eh]
	 Total Energy              =    -456.5347535508507235 [Eh]

	 ================> DF-SCS-MP2 Energies <==================
	-----------------------------------------------------------
	 SCS Same-Spin Scale       =       0.3333333333333333 [-]
	 SCS Opposite-Spin Scale   =       1.2000000000000000 [-]
	 SCS Same-Spin Energy      =      -0.1699064952819259 [Eh]
	 SCS Opposite-Spin Energy  =      -1.8576702757809791 [Eh]
	 SCS Correlation Energy    =      -2.0275767710629049 [Eh]
	 SCS Total Energy          =    -456.5045522729170671 [Eh]
	-----------------------------------------------------------

  Dipole Moment: [D]
     X:    -1.4654      Y:     1.6389      Z:     0.7334     Total:     2.3176

*** Psi4 exiting successfully. Buy a developer a beer!
