                               Psi4 1.3.2 release

  ==> Input File <==

--------------------------------------------------------------------------
#psi4
#
memory 32 gb

molecule  {
0 1
  N        1.0119030     0.0333230     0.0008060
  N        1.7066410    -1.0776272    -0.4260431
  C       -0.4063900     0.0163860    -0.0081010
  C       -1.1124080     1.1967220    -0.2540550
  C       -1.0729400    -1.1865160     0.2388070
  C        1.8312940     1.0508850     0.4071570
  C       -2.5072630     1.1720280    -0.2304200
  C       -2.4668310    -1.1992430     0.2370020
  C        3.1277520     0.5983640     0.2378140
  C       -3.1875810    -0.0227020     0.0140150
  C        2.9917500    -0.7051290    -0.2688550
  H       -0.5788940     2.1134690    -0.4901430
  H       -0.4926250    -2.0861370     0.4161180
  H        1.4325560     1.9713960     0.8093900
  H       -3.0617120     2.0872770    -0.4220560
  H       -2.9921950    -2.1322260     0.4251330
  H        4.0379080     1.1354570     0.4652770
  H       -4.2743140    -0.0387150     0.0221240
  H        3.7631710    -1.4121260    -0.5458550
units angstrom
no_reorient  #important for SAPT in psi4, default
symmetry c1  #important for SAPT in psi4, default
}

set PROPERTIES_ORIGIN ["COM"]
properties('MP2/aug-cc-pvtz', properties = ['dipole'])
--------------------------------------------------------------------------

    Molecular point group: c1
  Charge       = 0
  Multiplicity = 1
  Basis Set: AUG-CC-PVTZ
    Blend: AUG-CC-PVTZ
  Basis Set: (AUG-CC-PVTZ AUX)
    Blend: AUG-CC-PVTZ-JKFIT

    Orbital Energies [Eh]
    ---------------------

    Doubly Occupied:

       1A    -15.650382     2A    -15.593036     3A    -11.291282
       4A    -11.285443     5A    -11.261604     6A    -11.247803
       7A    -11.246180     8A    -11.245561     9A    -11.240402
      10A    -11.240242    11A    -11.228326    12A     -1.374046
      13A     -1.174945    14A     -1.110933    15A     -1.063571
      16A     -1.024068    17A     -0.996872    18A     -0.860031
      19A     -0.846995    20A     -0.794957    21A     -0.778395
      22A     -0.742657    23A     -0.686193    24A     -0.647629
      25A     -0.638467    26A     -0.613220    27A     -0.596616
      28A     -0.592903    29A     -0.587401    30A     -0.563709
      31A     -0.519725    32A     -0.510153    33A     -0.506761
      34A     -0.465882    35A     -0.395754    36A     -0.350845
      37A     -0.346201    38A     -0.312236

  @DF-RHF Final Energy:  -454.48636062941847

   => Energetics <=

    Nuclear Repulsion Energy =            545.7313880118755378
    One-Electron Energy =               -1697.1726528726767356
    Two-Electron Energy =                 696.9549042313828977
    Total Energy =                       -454.4863606294184137
  Basis Set: (AUG-CC-PVTZ AUX)
    Blend: AUG-CC-PVTZ-RI
    Molecular point group: c1

    Geometry (in Angstrom), charge = 0, multiplicity = 1:

       Center              X                  Y                   Z               Mass
    ------------   -----------------  -----------------  -----------------  -----------------
         N            0.996261065146     0.046668805563     0.006282202592    14.003074004430
         N            1.690999065146    -1.064281394437    -0.420566897408    14.003074004430
         C           -0.422031934854     0.029731805563    -0.002624797408    12.000000000000
         C           -1.128049934854     1.210067805563    -0.248578797408    12.000000000000
         C           -1.088581934854    -1.173170194437     0.244283202592    12.000000000000
         C            1.815652065146     1.064230805563     0.412633202592    12.000000000000
         C           -2.522904934854     1.185373805563    -0.224943797408    12.000000000000
         C           -2.482472934854    -1.185897194437     0.242478202592    12.000000000000
         C            3.112110065146     0.611709805563     0.243290202592    12.000000000000
         C           -3.203222934854    -0.009356194437     0.019491202592    12.000000000000
         C            2.976108065146    -0.691783194437    -0.263378797408    12.000000000000
         H           -0.594535934854     2.126814805563    -0.484666797408     1.007825032230
         H           -0.508266934854    -2.072791194437     0.421594202592     1.007825032230
         H            1.416914065146     1.984741805563     0.814866202592     1.007825032230
         H           -3.077353934854     2.100622805563    -0.416579797408     1.007825032230
         H           -3.007836934854    -2.118880194437     0.430609202592     1.007825032230
         H            4.022266065146     1.148802805563     0.470753202592     1.007825032230
         H           -4.289955934854    -0.025369194437     0.027600202592     1.007825032230
         H            3.747529065146    -1.398780194437    -0.540378797408     1.007825032230

  Basis Set: AUG-CC-PVTZ
    Blend: AUG-CC-PVTZ
  Basis Set: (AUG-CC-PVTZ AUX)
    Blend: AUG-CC-PVTZ-JKFIT
	 Reference Energy          =    -454.4863606294184706 [Eh]
	 Singles Energy            =      -0.0000000000000000 [Eh]
	 Same-Spin Energy          =      -0.5097137307737863 [Eh]
	 Opposite-Spin Energy      =      -1.5485997079900096 [Eh]
	 Correlation Energy        =      -2.0583134387637960 [Eh]
	 Total Energy              =    -456.5446740681822462 [Eh]

	 ================> DF-SCS-MP2 Energies <==================
	-----------------------------------------------------------
	 SCS Same-Spin Scale       =       0.3333333333333333 [-]
	 SCS Opposite-Spin Scale   =       1.2000000000000000 [-]
	 SCS Same-Spin Energy      =      -0.1699045769245954 [Eh]
	 SCS Opposite-Spin Energy  =      -1.8583196495880114 [Eh]
	 SCS Correlation Energy    =      -2.0282242265126067 [Eh]
	 SCS Total Energy          =    -456.5145848559311048 [Eh]
	-----------------------------------------------------------

  Dipole Moment: [D]
     X:    -0.8485      Y:     1.6644      Z:     0.7496     Total:     2.0130

*** Psi4 exiting successfully. Buy a developer a beer!
