                               Psi4 1.3.2 release

  ==> Input File <==

--------------------------------------------------------------------------
#psi4
#
memory 32 gb

molecule  {
0 1
  N        1.0119030     0.0333230     0.0008060
  N        1.6997840    -1.0566340    -0.4179730
  C       -0.4063900     0.0163860    -0.0081010
  C       -1.0699002     1.2201549    -0.2587850
  C       -1.0729400    -1.1865160     0.2388070
  C        1.8312940     1.0508850     0.4071570
  C       -2.5072630     1.1720280    -0.2304200
  C       -2.4668310    -1.1992430     0.2370020
  C        3.1277520     0.5983640     0.2378140
  C       -3.1875810    -0.0227020     0.0140150
  C        2.9917500    -0.7051290    -0.2688550
  H       -0.5788940     2.1134690    -0.4901430
  H       -0.4926250    -2.0861370     0.4161180
  H        1.4325560     1.9713960     0.8093900
  H       -3.0617120     2.0872770    -0.4220560
  H       -2.9921950    -2.1322260     0.4251330
  H        4.0379080     1.1354570     0.4652770
  H       -4.2743140    -0.0387150     0.0221240
  H        3.7631710    -1.4121260    -0.5458550
units angstrom
no_reorient  #important for SAPT in psi4, default
symmetry c1  #important for SAPT in psi4, default
}

set PROPERTIES_ORIGIN ["COM"]
properties('MP2/aug-cc-pvtz', properties = ['dipole'])
--------------------------------------------------------------------------

    Molecular point group: c1
  Charge       = 0
  Multiplicity = 1
  Basis Set: AUG-CC-PVTZ
    Blend: AUG-CC-PVTZ
  Basis Set: (AUG-CC-PVTZ AUX)
    Blend: AUG-CC-PVTZ-JKFIT

    Orbital Energies [Eh]
    ---------------------

    Doubly Occupied:

       1A    -15.650516     2A    -15.590176     3A    -11.292918
       4A    -11.282034     5A    -11.259050     6A    -11.252978
       7A    -11.247816     8A    -11.247397     9A    -11.241469
      10A    -11.241261    11A    -11.227698    12A     -1.382014
      13A     -1.173542    14A     -1.108882    15A     -1.063283
      16A     -1.021380    17A     -0.998375    18A     -0.860797
      19A     -0.849428    20A     -0.797789    21A     -0.775610
      22A     -0.742532    23A     -0.689006    24A     -0.649236
      25A     -0.642701    26A     -0.615168    27A     -0.600266
      28A     -0.592724    29A     -0.587032    30A     -0.563147
      31A     -0.518206    32A     -0.511369    33A     -0.507902
      34A     -0.462654    35A     -0.394940    36A     -0.349096
      37A     -0.342548    38A     -0.314042

  @DF-RHF Final Energy:  -454.48424904936826

   => Energetics <=

    Nuclear Repulsion Energy =            545.9933934463223295
    One-Electron Energy =               -1697.6613220563865525
    Two-Electron Energy =                 697.1836795606960777
    Total Energy =                       -454.4842490493682590
  Basis Set: (AUG-CC-PVTZ AUX)
    Blend: AUG-CC-PVTZ-RI
    Molecular point group: c1

    Geometry (in Angstrom), charge = 0, multiplicity = 1:

       Center              X                  Y                   Z               Mass
    ------------   -----------------  -----------------  -----------------  -----------------
         N            0.993386919806     0.042676516186     0.005891790319    14.003074004430
         N            1.681267919806    -1.047280483814    -0.412887209681    14.003074004430
         C           -0.424906080194     0.025739516186    -0.003015209681    12.000000000000
         C           -1.088416280194     1.229508416186    -0.253699209681    12.000000000000
         C           -1.091456080194    -1.177162483814     0.243892790319    12.000000000000
         C            1.812777919806     1.060238516186     0.412242790319    12.000000000000
         C           -2.525779080194     1.181381516186    -0.225334209681    12.000000000000
         C           -2.485347080194    -1.189889483814     0.242087790319    12.000000000000
         C            3.109235919806     0.607717516186     0.242899790319    12.000000000000
         C           -3.206097080194    -0.013348483814     0.019100790319    12.000000000000
         C            2.973233919806    -0.695775483814    -0.263769209681    12.000000000000
         H           -0.597410080194     2.122822516186    -0.485057209681     1.007825032230
         H           -0.511141080194    -2.076783483814     0.421203790319     1.007825032230
         H            1.414039919806     1.980749516186     0.814475790319     1.007825032230
         H           -3.080228080194     2.096630516186    -0.416970209681     1.007825032230
         H           -3.010711080194    -2.122872483814     0.430218790319     1.007825032230
         H            4.019391919806     1.144810516186     0.470362790319     1.007825032230
         H           -4.292830080194    -0.029361483814     0.027209790319     1.007825032230
         H            3.744654919806    -1.402772483814    -0.540769209681     1.007825032230

  Basis Set: AUG-CC-PVTZ
    Blend: AUG-CC-PVTZ
  Basis Set: (AUG-CC-PVTZ AUX)
    Blend: AUG-CC-PVTZ-JKFIT
	 Reference Energy          =    -454.4842490493682590 [Eh]
	 Singles Energy            =      -0.0000000000000000 [Eh]
	 Same-Spin Energy          =      -0.5097077394043916 [Eh]
	 Opposite-Spin Energy      =      -1.5483943885160234 [Eh]
	 Correlation Energy        =      -2.0581021279204150 [Eh]
	 Total Energy              =    -456.5423511772886513 [Eh]

	 ================> DF-SCS-MP2 Energies <==================
	-----------------------------------------------------------
	 SCS Same-Spin Scale       =       0.3333333333333333 [-]
	 SCS Opposite-Spin Scale   =       1.2000000000000000 [-]
	 SCS Same-Spin Energy      =      -0.1699025798014639 [Eh]
	 SCS Opposite-Spin Energy  =      -1.8580732662192281 [Eh]
	 SCS Correlation Energy    =      -2.0279758460206918 [Eh]
	 SCS Total Energy          =    -456.5122248953889539 [Eh]
	-----------------------------------------------------------

  Dipole Moment: [D]
     X:    -0.9176      Y:     1.6322      Z:     0.7366     Total:     2.0121

*** Psi4 exiting successfully. Buy a developer a beer!
