                               Psi4 1.3.2 release

  ==> Input File <==

--------------------------------------------------------------------------
#psi4
#
memory 32 gb

molecule  {
0 1
  N        1.0119030     0.0333230     0.0008060
  N        1.6997840    -1.0566340    -0.4179730
  C       -0.4063900     0.0163860    -0.0081010
  C       -1.1124080     1.1967220    -0.2540550
  C       -1.0729400    -1.1865160     0.2388070
  C        1.8312940     1.0508850     0.4071570
  C       -2.5072630     1.1720280    -0.2304200
  C       -2.4668310    -1.1992430     0.2370020
  C        3.1277520     0.5983640     0.2378140
  C       -3.1875810    -0.0227020     0.0140150
  C        2.9917500    -0.7051290    -0.2688550
  H       -0.5788940     2.1134690    -0.4901430
  H       -0.4926250    -2.0861370     0.4161180
  H        1.4325560     1.9713960     0.8093900
  H       -3.0617120     2.0872770    -0.4220560
  H       -2.9921950    -2.1322260     0.4251330
  H        4.0379080     1.1354570     0.4652770
  H       -4.2743140    -0.0387150     0.0221240
  H        3.9057055    -1.5427569    -0.5970359
units angstrom
no_reorient  #important for SAPT in psi4, default
symmetry c1  #important for SAPT in psi4, default
}

set PROPERTIES_ORIGIN ["COM"]
properties('MP2/aug-cc-pvtz', properties = ['dipole'])
--------------------------------------------------------------------------

    Molecular point group: c1
  Charge       = 0
  Multiplicity = 1
  Basis Set: AUG-CC-PVTZ
    Blend: AUG-CC-PVTZ
  Basis Set: (AUG-CC-PVTZ AUX)
    Blend: AUG-CC-PVTZ-JKFIT

    Orbital Energies [Eh]
    ---------------------

    Doubly Occupied:

       1A    -15.653114     2A    -15.592349     3A    -11.292408
       4A    -11.284028     5A    -11.280302     6A    -11.248679
       7A    -11.247270     8A    -11.246379     9A    -11.241496
      10A    -11.241320    11A    -11.230276    12A     -1.383917
      13A     -1.175905    14A     -1.109718    15A     -1.065481
      16A     -1.024914    17A     -0.996936    18A     -0.859176
      19A     -0.845651    20A     -0.791909    21A     -0.771162
      22A     -0.741775    23A     -0.684737    24A     -0.648709
      25A     -0.636344    26A     -0.614768    27A     -0.596829
      28A     -0.591306    29A     -0.589689    30A     -0.538022
      31A     -0.519993    32A     -0.510599    33A     -0.507486
      34A     -0.461862    35A     -0.395957    36A     -0.351025
      37A     -0.346876    38A     -0.313730

  @DF-RHF Final Energy:  -454.46525640028068

   => Energetics <=

    Nuclear Repulsion Energy =            545.4226244107338744
    One-Electron Energy =               -1696.5115682240223123
    Two-Electron Energy =                 696.6236874130079286
    Total Energy =                       -454.4652564002806230
  Basis Set: (AUG-CC-PVTZ AUX)
    Blend: AUG-CC-PVTZ-RI
    Molecular point group: c1

    Geometry (in Angstrom), charge = 0, multiplicity = 1:

       Center              X                  Y                   Z               Mass
    ------------   -----------------  -----------------  -----------------  -----------------
         N            0.995930453829     0.045542147324     0.005855844926    14.003074004430
         N            1.683811453829    -1.044414852676    -0.412923155074    14.003074004430
         C           -0.422362546171     0.028605147324    -0.003051155074    12.000000000000
         C           -1.128380546171     1.208941147324    -0.249005155074    12.000000000000
         C           -1.088912546171    -1.174296852676     0.243856844926    12.000000000000
         C            1.815321453829     1.063104147324     0.412206844926    12.000000000000
         C           -2.523235546171     1.184247147324    -0.225370155074    12.000000000000
         C           -2.482803546171    -1.187023852676     0.242051844926    12.000000000000
         C            3.111779453829     0.610583147324     0.242863844926    12.000000000000
         C           -3.203553546171    -0.010482852676     0.019064844926    12.000000000000
         C            2.975777453829    -0.692909852676    -0.263805155074    12.000000000000
         H           -0.594866546171     2.125688147324    -0.485093155074     1.007825032230
         H           -0.508597546171    -2.073917852676     0.421167844926     1.007825032230
         H            1.416583453829     1.983615147324     0.814439844926     1.007825032230
         H           -3.077684546171     2.099496147324    -0.417006155074     1.007825032230
         H           -3.008167546171    -2.120006852676     0.430182844926     1.007825032230
         H            4.021935453829     1.147676147324     0.470326844926     1.007825032230
         H           -4.290286546171    -0.026495852676     0.027173844926     1.007825032230
         H            3.889732953829    -1.530537752676    -0.591986055074     1.007825032230

  Basis Set: AUG-CC-PVTZ
    Blend: AUG-CC-PVTZ
  Basis Set: (AUG-CC-PVTZ AUX)
    Blend: AUG-CC-PVTZ-JKFIT
	 Reference Energy          =    -454.4652564002806798 [Eh]
	 Singles Energy            =      -0.0000000000000000 [Eh]
	 Same-Spin Energy          =      -0.5101290837231292 [Eh]
	 Opposite-Spin Energy      =      -1.5499279856877108 [Eh]
	 Correlation Energy        =      -2.0600570694108402 [Eh]
	 Total Energy              =    -456.5253134696915254 [Eh]

	 ================> DF-SCS-MP2 Energies <==================
	-----------------------------------------------------------
	 SCS Same-Spin Scale       =       0.3333333333333333 [-]
	 SCS Opposite-Spin Scale   =       1.2000000000000000 [-]
	 SCS Same-Spin Energy      =      -0.1700430279077097 [Eh]
	 SCS Opposite-Spin Energy  =      -1.8599135828252529 [Eh]
	 SCS Correlation Energy    =      -2.0299566107329627 [Eh]
	 SCS Total Energy          =    -456.4952130110136181 [Eh]
	-----------------------------------------------------------

  Dipole Moment: [D]
     X:    -0.9414      Y:     1.6620      Z:     0.7480     Total:     2.0513

*** Psi4 exiting successfully. Buy a developer a beer!
