                               Psi4 1.3.2 release

  ==> Input File <==

--------------------------------------------------------------------------
#psi4
#
memory 32 gb

molecule  {
0 1
  N        1.0119030     0.0333230     0.0008060
  N        1.6997840    -1.0566340    -0.4179730
  C       -0.4488934    -0.0068661    -0.0025159
  C       -1.1124080     1.1967220    -0.2540550
  C       -1.0729400    -1.1865160     0.2388070
  C        1.8312940     1.0508850     0.4071570
  C       -2.5072630     1.1720280    -0.2304200
  C       -2.4668310    -1.1992430     0.2370020
  C        3.1277520     0.5983640     0.2378140
  C       -3.1875810    -0.0227020     0.0140150
  C        2.9917500    -0.7051290    -0.2688550
  H       -0.5788940     2.1134690    -0.4901430
  H       -0.4926250    -2.0861370     0.4161180
  H        1.4325560     1.9713960     0.8093900
  H       -3.0617120     2.0872770    -0.4220560
  H       -2.9921950    -2.1322260     0.4251330
  H        4.0379080     1.1354570     0.4652770
  H       -4.2743140    -0.0387150     0.0221240
  H        3.7631710    -1.4121260    -0.5458550
units angstrom
no_reorient  #important for SAPT in psi4, default
symmetry c1  #important for SAPT in psi4, default
}

set PROPERTIES_ORIGIN ["COM"]
properties('MP2/aug-cc-pvtz', properties = ['dipole'])
--------------------------------------------------------------------------

    Molecular point group: c1
  Charge       = 0
  Multiplicity = 1
  Basis Set: AUG-CC-PVTZ
    Blend: AUG-CC-PVTZ
  Basis Set: (AUG-CC-PVTZ AUX)
    Blend: AUG-CC-PVTZ-JKFIT

    Orbital Energies [Eh]
    ---------------------

    Doubly Occupied:

       1A    -15.649204     2A    -15.588010     3A    -11.291275
       4A    -11.280078     5A    -11.256434     6A    -11.249761
       7A    -11.248415     8A    -11.247915     9A    -11.242342
      10A    -11.238375    11A    -11.225374    12A     -1.375510
      13A     -1.178380    14A     -1.104360    15A     -1.061430
      16A     -1.028597    17A     -1.000912    18A     -0.856068
      19A     -0.848773    20A     -0.795969    21A     -0.776279
      22A     -0.741217    23A     -0.687013    24A     -0.649184
      25A     -0.639515    26A     -0.614702    27A     -0.599999
      28A     -0.590312    29A     -0.586969    30A     -0.561375
      31A     -0.518783    32A     -0.515267    33A     -0.511239
      34A     -0.460675    35A     -0.391628    36A     -0.349934
      37A     -0.345822    38A     -0.317746

  @DF-RHF Final Energy:  -454.48528955198469

   => Energetics <=

    Nuclear Repulsion Energy =            546.3009076021152168
    One-Electron Energy =               -1698.3227117862259092
    Two-Electron Energy =                 697.5365146321261136
    Total Energy =                       -454.4852895519846925
  Basis Set: (AUG-CC-PVTZ AUX)
    Blend: AUG-CC-PVTZ-RI
    Molecular point group: c1

    Geometry (in Angstrom), charge = 0, multiplicity = 1:

       Center              X                  Y                   Z               Mass
    ------------   -----------------  -----------------  -----------------  -----------------
         N            1.000467805926     0.046565076382     0.005032608841    14.003074004430
         N            1.688348805926    -1.043391923618    -0.413746391159    14.003074004430
         C           -0.460328594074     0.006375976382     0.001710708841    12.000000000000
         C           -1.123843194074     1.209964076382    -0.249828391159    12.000000000000
         C           -1.084375194074    -1.173273923618     0.243033608841    12.000000000000
         C            1.819858805926     1.064127076382     0.411383608841    12.000000000000
         C           -2.518698194074     1.185270076382    -0.226193391159    12.000000000000
         C           -2.478266194074    -1.186000923618     0.241228608841    12.000000000000
         C            3.116316805926     0.611606076382     0.242040608841    12.000000000000
         C           -3.199016194074    -0.009459923618     0.018241608841    12.000000000000
         C            2.980314805926    -0.691886923618    -0.264628391159    12.000000000000
         H           -0.590329194074     2.126711076382    -0.485916391159     1.007825032230
         H           -0.504060194074    -2.072894923618     0.420344608841     1.007825032230
         H            1.421120805926     1.984638076382     0.813616608841     1.007825032230
         H           -3.073147194074     2.100519076382    -0.417829391159     1.007825032230
         H           -3.003630194074    -2.118983923618     0.429359608841     1.007825032230
         H            4.026472805926     1.148699076382     0.469503608841     1.007825032230
         H           -4.285749194074    -0.025472923618     0.026350608841     1.007825032230
         H            3.751735805926    -1.398883923618    -0.541628391159     1.007825032230

  Basis Set: AUG-CC-PVTZ
    Blend: AUG-CC-PVTZ
  Basis Set: (AUG-CC-PVTZ AUX)
    Blend: AUG-CC-PVTZ-JKFIT
	 Reference Energy          =    -454.4852895519846925 [Eh]
	 Singles Energy            =      -0.0000000000000000 [Eh]
	 Same-Spin Energy          =      -0.5095651858015489 [Eh]
	 Opposite-Spin Energy      =      -1.5478165088902991 [Eh]
	 Correlation Energy        =      -2.0573816946918480 [Eh]
	 Total Energy              =    -456.5426712466765480 [Eh]

	 ================> DF-SCS-MP2 Energies <==================
	-----------------------------------------------------------
	 SCS Same-Spin Scale       =       0.3333333333333333 [-]
	 SCS Opposite-Spin Scale   =       1.2000000000000000 [-]
	 SCS Same-Spin Energy      =      -0.1698550619338496 [Eh]
	 SCS Opposite-Spin Energy  =      -1.8573798106683588 [Eh]
	 SCS Correlation Energy    =      -2.0272348726022082 [Eh]
	 SCS Total Energy          =    -456.5125244245868998 [Eh]
	-----------------------------------------------------------

  Dipole Moment: [D]
     X:    -1.1336      Y:     1.6316      Z:     0.7422     Total:     2.1208

*** Psi4 exiting successfully. Buy a developer a beer!
