                               Psi4 1.3.2 release

  ==> Input File <==

--------------------------------------------------------------------------
#psi4
#
memory 32 gb

molecule  {
0 1
  N        1.0119030     0.0333230     0.0008060
  N        1.6997840    -1.0566340    -0.4179730
  C       -0.3854786     0.0283815    -0.0117704
  C       -1.1124080     1.1967220    -0.2540550
  C       -1.0729400    -1.1865160     0.2388070
  C        1.8312940     1.0508850     0.4071570
  C       -2.5072630     1.1720280    -0.2304200
  C       -2.4668310    -1.1992430     0.2370020
  C        3.1277520     0.5983640     0.2378140
  C       -3.1875810    -0.0227020     0.0140150
  C        2.9917500    -0.7051290    -0.2688550
  H       -0.5788940     2.1134690    -0.4901430
  H       -0.4926250    -2.0861370     0.4161180
  H        1.4325560     1.9713960     0.8093900
  H       -3.0617120     2.0872770    -0.4220560
  H       -2.9921950    -2.1322260     0.4251330
  H        4.0379080     1.1354570     0.4652770
  H       -4.2743140    -0.0387150     0.0221240
  H        3.7631710    -1.4121260    -0.5458550
units angstrom
no_reorient  #important for SAPT in psi4, default
symmetry c1  #important for SAPT in psi4, default
}

set PROPERTIES_ORIGIN ["COM"]
properties('MP2/aug-cc-pvtz', properties = ['dipole'])
--------------------------------------------------------------------------

    Molecular point group: c1
  Charge       = 0
  Multiplicity = 1
  Basis Set: AUG-CC-PVTZ
    Blend: AUG-CC-PVTZ
  Basis Set: (AUG-CC-PVTZ AUX)
    Blend: AUG-CC-PVTZ-JKFIT

    Orbital Energies [Eh]
    ---------------------

    Doubly Occupied:

       1A    -15.652959     2A    -15.592113     3A    -11.292061
       4A    -11.283734     5A    -11.261272     6A    -11.247506
       7A    -11.245954     8A    -11.245099     9A    -11.242164
      10A    -11.240215    11A    -11.229415    12A     -1.386112
      13A     -1.174924    14A     -1.113038    15A     -1.065380
      16A     -1.022651    17A     -0.996557    18A     -0.863781
      19A     -0.847315    20A     -0.797864    21A     -0.778056
      22A     -0.743370    23A     -0.686609    24A     -0.649617
      25A     -0.640261    26A     -0.616107    27A     -0.597481
      28A     -0.594490    29A     -0.589139    30A     -0.564834
      31A     -0.521384    32A     -0.508644    33A     -0.503959
      34A     -0.463919    35A     -0.396792    36A     -0.350882
      37A     -0.345665    38A     -0.310390

  @DF-RHF Final Energy:  -454.48718420175794

   => Energetics <=

    Nuclear Repulsion Energy =            546.4108274748816712
    One-Electron Energy =               -1698.4726007354120156
    Two-Electron Energy =                 697.5745890587724034
    Total Energy =                       -454.4871842017579411
  Basis Set: (AUG-CC-PVTZ AUX)
    Blend: AUG-CC-PVTZ-RI
    Molecular point group: c1

    Geometry (in Angstrom), charge = 0, multiplicity = 1:

       Center              X                  Y                   Z               Mass
    ------------   -----------------  -----------------  -----------------  -----------------
         N            0.995185761006     0.043629178035     0.005803449161    14.003074004430
         N            1.683066761006    -1.046327821965    -0.412975550839    14.003074004430
         C           -0.402195838994     0.038687678035    -0.006772950839    12.000000000000
         C           -1.129125238994     1.207028178035    -0.249057550839    12.000000000000
         C           -1.089657238994    -1.176209821965     0.243804449161    12.000000000000
         C            1.814576761006     1.061191178035     0.412154449161    12.000000000000
         C           -2.523980238994     1.182334178035    -0.225422550839    12.000000000000
         C           -2.483548238994    -1.188936821965     0.241999449161    12.000000000000
         C            3.111034761006     0.608670178035     0.242811449161    12.000000000000
         C           -3.204298238994    -0.012395821965     0.019012449161    12.000000000000
         C            2.975032761006    -0.694822821965    -0.263857550839    12.000000000000
         H           -0.595611238994     2.123775178035    -0.485145550839     1.007825032230
         H           -0.509342238994    -2.075830821965     0.421115449161     1.007825032230
         H            1.415838761006     1.981702178035     0.814387449161     1.007825032230
         H           -3.078429238994     2.097583178035    -0.417058550839     1.007825032230
         H           -3.008912238994    -2.121919821965     0.430130449161     1.007825032230
         H            4.021190761006     1.145763178035     0.470274449161     1.007825032230
         H           -4.291031238994    -0.028408821965     0.027121449161     1.007825032230
         H            3.746453761006    -1.401819821965    -0.540857550839     1.007825032230

  Basis Set: AUG-CC-PVTZ
    Blend: AUG-CC-PVTZ
  Basis Set: (AUG-CC-PVTZ AUX)
    Blend: AUG-CC-PVTZ-JKFIT
	 Reference Energy          =    -454.4871842017579411 [Eh]
	 Singles Energy            =      -0.0000000000000000 [Eh]
	 Same-Spin Energy          =      -0.5097800939614725 [Eh]
	 Opposite-Spin Energy      =      -1.5480940251589441 [Eh]
	 Correlation Energy        =      -2.0578741191204166 [Eh]
	 Total Energy              =    -456.5450583208783542 [Eh]

	 ================> DF-SCS-MP2 Energies <==================
	-----------------------------------------------------------
	 SCS Same-Spin Scale       =       0.3333333333333333 [-]
	 SCS Opposite-Spin Scale   =       1.2000000000000000 [-]
	 SCS Same-Spin Energy      =      -0.1699266979871575 [Eh]
	 SCS Opposite-Spin Energy  =      -1.8577128301907329 [Eh]
	 SCS Correlation Energy    =      -2.0276395281778905 [Eh]
	 SCS Total Energy          =    -456.5148237299358129 [Eh]
	-----------------------------------------------------------

  Dipole Moment: [D]
     X:    -0.7633      Y:     1.6397      Z:     0.7371     Total:     1.9531

*** Psi4 exiting successfully. Buy a developer a beer!
