                               Psi4 1.3.2 release

  ==> Input File <==

--------------------------------------------------------------------------
#psi4
#
memory 32 gb

molecule  {
0 1
  N        1.0119030     0.0333230     0.0008060
  N        1.5739721    -1.1172000    -0.4429704
  C       -0.4063900     0.0163860    -0.0081010
  C       -1.1124080     1.1967220    -0.2540550
  C       -1.0729400    -1.1865160     0.2388070
  C        1.8312940     1.0508850     0.4071570
  C       -2.5072630     1.1720280    -0.2304200
  C       -2.4668310    -1.1992430     0.2370020
  C        3.1277520     0.5983640     0.2378140
  C       -3.1875810    -0.0227020     0.0140150
  C        2.9917500    -0.7051290    -0.2688550
  H       -0.5788940     2.1134690    -0.4901430
  H       -0.4926250    -2.0861370     0.4161180
  H        1.4325560     1.9713960     0.8093900
  H       -3.0617120     2.0872770    -0.4220560
  H       -2.9921950    -2.1322260     0.4251330
  H        4.0379080     1.1354570     0.4652770
  H       -4.2743140    -0.0387150     0.0221240
  H        3.7631710    -1.4121260    -0.5458550
units angstrom
no_reorient  #important for SAPT in psi4, default
symmetry c1  #important for SAPT in psi4, default
}

set PROPERTIES_ORIGIN ["COM"]
properties('MP2/aug-cc-pvtz', properties = ['dipole'])
--------------------------------------------------------------------------

    Molecular point group: c1
  Charge       = 0
  Multiplicity = 1
  Basis Set: AUG-CC-PVTZ
    Blend: AUG-CC-PVTZ
  Basis Set: (AUG-CC-PVTZ AUX)
    Blend: AUG-CC-PVTZ-JKFIT

    Orbital Energies [Eh]
    ---------------------

    Doubly Occupied:

       1A    -15.661377     2A    -15.604772     3A    -11.288860
       4A    -11.286039     5A    -11.273467     6A    -11.247372
       7A    -11.246034     8A    -11.245085     9A    -11.240740
      10A    -11.240170    11A    -11.236542    12A     -1.374838
      13A     -1.167693    14A     -1.090504    15A     -1.074202
      16A     -1.023294    17A     -0.994255    18A     -0.860910
      19A     -0.845133    20A     -0.793293    21A     -0.776829
      22A     -0.742867    23A     -0.685989    24A     -0.647622
      25A     -0.634918    26A     -0.613130    27A     -0.596440
      28A     -0.593174    29A     -0.580269    30A     -0.559047
      31A     -0.518716    32A     -0.508406    33A     -0.504695
      34A     -0.473610    35A     -0.389965    36A     -0.347129
      37A     -0.341888    38A     -0.310428

  @DF-RHF Final Energy:  -454.45633012700898

   => Energetics <=

    Nuclear Repulsion Energy =            545.0089060728802224
    One-Electron Energy =               -1695.6910751499790422
    Two-Electron Energy =                 696.2258389500899511
    Total Energy =                       -454.4563301270089823
  Basis Set: (AUG-CC-PVTZ AUX)
    Blend: AUG-CC-PVTZ-RI
    Molecular point group: c1

    Geometry (in Angstrom), charge = 0, multiplicity = 1:

       Center              X                  Y                   Z               Mass
    ------------   -----------------  -----------------  -----------------  -----------------
         N            1.009156106209     0.050515169564     0.007927488176    14.003074004430
         N            1.571225206209    -1.100007830436    -0.435848911824    14.003074004430
         C           -0.409136893791     0.033578169564    -0.000979511824    12.000000000000
         C           -1.115154893791     1.213914169564    -0.246933511824    12.000000000000
         C           -1.075686893791    -1.169323830436     0.245928488176    12.000000000000
         C            1.828547106209     1.068077169564     0.414278488176    12.000000000000
         C           -2.510009893791     1.189220169564    -0.223298511824    12.000000000000
         C           -2.469577893791    -1.182050830436     0.244123488176    12.000000000000
         C            3.125005106209     0.615556169564     0.244935488176    12.000000000000
         C           -3.190327893791    -0.005509830436     0.021136488176    12.000000000000
         C            2.989003106209    -0.687936830436    -0.261733511824    12.000000000000
         H           -0.581640893791     2.130661169564    -0.483021511824     1.007825032230
         H           -0.495371893791    -2.068944830436     0.423239488176     1.007825032230
         H            1.429809106209     1.988588169564     0.816511488176     1.007825032230
         H           -3.064458893791     2.104469169564    -0.414934511824     1.007825032230
         H           -2.994941893791    -2.115033830436     0.432254488176     1.007825032230
         H            4.035161106209     1.152649169564     0.472398488176     1.007825032230
         H           -4.277060893791    -0.021522830436     0.029245488176     1.007825032230
         H            3.760424106209    -1.394933830436    -0.538733511824     1.007825032230

  Basis Set: AUG-CC-PVTZ
    Blend: AUG-CC-PVTZ
  Basis Set: (AUG-CC-PVTZ AUX)
    Blend: AUG-CC-PVTZ-JKFIT
	 Reference Energy          =    -454.4563301270089823 [Eh]
	 Singles Energy            =      -0.0000000000000000 [Eh]
	 Same-Spin Energy          =      -0.5143065414871375 [Eh]
	 Opposite-Spin Energy      =      -1.5576260433189226 [Eh]
	 Correlation Energy        =      -2.0719325848060599 [Eh]
	 Total Energy              =    -456.5282627118150458 [Eh]

	 ================> DF-SCS-MP2 Energies <==================
	-----------------------------------------------------------
	 SCS Same-Spin Scale       =       0.3333333333333333 [-]
	 SCS Opposite-Spin Scale   =       1.2000000000000000 [-]
	 SCS Same-Spin Energy      =      -0.1714355138290458 [Eh]
	 SCS Opposite-Spin Energy  =      -1.8691512519827072 [Eh]
	 SCS Correlation Energy    =      -2.0405867658117529 [Eh]
	 SCS Total Energy          =    -456.4969168928207637 [Eh]
	-----------------------------------------------------------

  Dipole Moment: [D]
     X:    -0.7777      Y:     1.7991      Z:     0.8072     Total:     2.1197

*** Psi4 exiting successfully. Buy a developer a beer!
