                               Psi4 1.3.2 release

  ==> Input File <==

--------------------------------------------------------------------------
#psi4
#
memory 32 gb

molecule  {
0 1
  N        1.0902844    -0.0160117    -0.0224839
  N        1.6997840    -1.0566340    -0.4179730
  C       -0.4063900     0.0163860    -0.0081010
  C       -1.1124080     1.1967220    -0.2540550
  C       -1.0729400    -1.1865160     0.2388070
  C        1.8312940     1.0508850     0.4071570
  C       -2.5072630     1.1720280    -0.2304200
  C       -2.4668310    -1.1992430     0.2370020
  C        3.1277520     0.5983640     0.2378140
  C       -3.1875810    -0.0227020     0.0140150
  C        2.9917500    -0.7051290    -0.2688550
  H       -0.5788940     2.1134690    -0.4901430
  H       -0.4926250    -2.0861370     0.4161180
  H        1.4325560     1.9713960     0.8093900
  H       -3.0617120     2.0872770    -0.4220560
  H       -2.9921950    -2.1322260     0.4251330
  H        4.0379080     1.1354570     0.4652770
  H       -4.2743140    -0.0387150     0.0221240
  H        3.7631710    -1.4121260    -0.5458550
units angstrom
no_reorient  #important for SAPT in psi4, default
symmetry c1  #important for SAPT in psi4, default
}

set PROPERTIES_ORIGIN ["COM"]
properties('MP2/aug-cc-pvtz', properties = ['dipole'])
--------------------------------------------------------------------------

    Molecular point group: c1
  Charge       = 0
  Multiplicity = 1
  Basis Set: AUG-CC-PVTZ
    Blend: AUG-CC-PVTZ
  Basis Set: (AUG-CC-PVTZ AUX)
    Blend: AUG-CC-PVTZ-JKFIT

    Orbital Energies [Eh]
    ---------------------

    Doubly Occupied:

       1A    -15.657958     2A    -15.589276     3A    -11.296665
       4A    -11.272585     5A    -11.252185     6A    -11.250413
       7A    -11.248501     8A    -11.248284     9A    -11.244675
      10A    -11.244448    11A    -11.225501    12A     -1.416314
      13A     -1.172591    14A     -1.099951    15A     -1.073046
      16A     -1.027363    17A     -1.000361    18A     -0.851501
      19A     -0.846978    20A     -0.805652    21A     -0.774710
      22A     -0.745637    23A     -0.689569    24A     -0.652265
      25A     -0.638842    26A     -0.622407    27A     -0.602064
      28A     -0.599062    29A     -0.580963    30A     -0.559288
      31A     -0.518594    32A     -0.514395    33A     -0.509388
      34A     -0.467297    35A     -0.385217    36A     -0.351568
      37A     -0.348018    38A     -0.316743

  @DF-RHF Final Energy:  -454.47706006187121

   => Energetics <=

    Nuclear Repulsion Energy =            546.7050251865807695
    One-Electron Energy =               -1698.9636145002916692
    Two-Electron Energy =                 697.7815292518397428
    Total Energy =                       -454.4770600618711569
  Basis Set: (AUG-CC-PVTZ AUX)
    Blend: AUG-CC-PVTZ-RI
    Molecular point group: c1

    Geometry (in Angstrom), charge = 0, multiplicity = 1:

       Center              X                  Y                   Z               Mass
    ------------   -----------------  -----------------  -----------------  -----------------
         N            1.067690496184     0.000088819036    -0.015528375985    14.003074004430
         N            1.677190096184    -1.040533480964    -0.411017475985    14.003074004430
         C           -0.428983903816     0.032486519036    -0.001145475985    12.000000000000
         C           -1.135001903816     1.212822519036    -0.247099475985    12.000000000000
         C           -1.095533903816    -1.170415480964     0.245762524015    12.000000000000
         C            1.808700096184     1.066985519036     0.414112524015    12.000000000000
         C           -2.529856903816     1.188128519036    -0.223464475985    12.000000000000
         C           -2.489424903816    -1.183142480964     0.243957524015    12.000000000000
         C            3.105158096184     0.614464519036     0.244769524015    12.000000000000
         C           -3.210174903816    -0.006601480964     0.020970524015    12.000000000000
         C            2.969156096184    -0.689028480964    -0.261899475985    12.000000000000
         H           -0.601487903816     2.129569519036    -0.483187475985     1.007825032230
         H           -0.515218903816    -2.070036480964     0.423073524015     1.007825032230
         H            1.409962096184     1.987496519036     0.816345524015     1.007825032230
         H           -3.084305903816     2.103377519036    -0.415100475985     1.007825032230
         H           -3.014788903816    -2.116125480964     0.432088524015     1.007825032230
         H            4.015314096184     1.151557519036     0.472232524015     1.007825032230
         H           -4.296907903816    -0.022614480964     0.029079524015     1.007825032230
         H            3.740577096184    -1.396025480964    -0.538899475985     1.007825032230

  Basis Set: AUG-CC-PVTZ
    Blend: AUG-CC-PVTZ
  Basis Set: (AUG-CC-PVTZ AUX)
    Blend: AUG-CC-PVTZ-JKFIT
	 Reference Energy          =    -454.4770600618712137 [Eh]
	 Singles Energy            =      -0.0000000000000000 [Eh]
	 Same-Spin Energy          =      -0.5100489891837630 [Eh]
	 Opposite-Spin Energy      =      -1.5471711153798333 [Eh]
	 Correlation Energy        =      -2.0572201045635961 [Eh]
	 Total Energy              =    -456.5342801664348258 [Eh]

	 ================> DF-SCS-MP2 Energies <==================
	-----------------------------------------------------------
	 SCS Same-Spin Scale       =       0.3333333333333333 [-]
	 SCS Opposite-Spin Scale   =       1.2000000000000000 [-]
	 SCS Same-Spin Energy      =      -0.1700163297279210 [Eh]
	 SCS Opposite-Spin Energy  =      -1.8566053384557999 [Eh]
	 SCS Correlation Energy    =      -2.0266216681837208 [Eh]
	 SCS Total Energy          =    -456.5036817300549501 [Eh]
	-----------------------------------------------------------

  Dipole Moment: [D]
     X:    -1.2108      Y:     1.6646      Z:     0.7325     Total:     2.1848

*** Psi4 exiting successfully. Buy a developer a beer!
