                               Psi4 1.3.2 release

  ==> Input File <==

--------------------------------------------------------------------------
#psi4
#
memory 32 gb

molecule  {
0 1
  N        0.9321323    -0.0137810    -0.0183094
  N        1.6997840    -1.0566340    -0.4179730
  C       -0.4063900     0.0163860    -0.0081010
  C       -1.1124080     1.1967220    -0.2540550
  C       -1.0729400    -1.1865160     0.2388070
  C        1.8312940     1.0508850     0.4071570
  C       -2.5072630     1.1720280    -0.2304200
  C       -2.4668310    -1.1992430     0.2370020
  C        3.1277520     0.5983640     0.2378140
  C       -3.1875810    -0.0227020     0.0140150
  C        2.9917500    -0.7051290    -0.2688550
  H       -0.5788940     2.1134690    -0.4901430
  H       -0.4926250    -2.0861370     0.4161180
  H        1.4325560     1.9713960     0.8093900
  H       -3.0617120     2.0872770    -0.4220560
  H       -2.9921950    -2.1322260     0.4251330
  H        4.0379080     1.1354570     0.4652770
  H       -4.2743140    -0.0387150     0.0221240
  H        3.7631710    -1.4121260    -0.5458550
units angstrom
no_reorient  #important for SAPT in psi4, default
symmetry c1  #important for SAPT in psi4, default
}

set PROPERTIES_ORIGIN ["COM"]
properties('MP2/aug-cc-pvtz', properties = ['dipole'])
--------------------------------------------------------------------------

    Molecular point group: c1
  Charge       = 0
  Multiplicity = 1
  Basis Set: AUG-CC-PVTZ
    Blend: AUG-CC-PVTZ
  Basis Set: (AUG-CC-PVTZ AUX)
    Blend: AUG-CC-PVTZ-JKFIT

    Orbital Energies [Eh]
    ---------------------

    Doubly Occupied:

       1A    -15.650988     2A    -15.597638     3A    -11.290731
       4A    -11.284982     5A    -11.264932     6A    -11.245818
       7A    -11.243013     8A    -11.242812     9A    -11.238470
      10A    -11.236371    11A    -11.235309    12A     -1.377496
      13A     -1.183590    14A     -1.115202    15A     -1.056712
      16A     -1.021296    17A     -0.993956    18A     -0.872229
      19A     -0.849159    20A     -0.793274    21A     -0.777229
      22A     -0.737017    23A     -0.684344    24A     -0.652165
      25A     -0.647231    26A     -0.616258    27A     -0.604631
      28A     -0.594813    29A     -0.580917    30A     -0.566201
      31A     -0.518907    32A     -0.507894    33A     -0.504736
      34A     -0.454404    35A     -0.403097    36A     -0.350616
      37A     -0.344220    38A     -0.302900

  @DF-RHF Final Energy:  -454.47241999733257

   => Energetics <=

    Nuclear Repulsion Energy =            546.5087881680942701
    One-Electron Energy =               -1698.6792977081279332
    Two-Electron Energy =                 697.6980895427011546
    Total Energy =                       -454.4724199973325085
  Basis Set: (AUG-CC-PVTZ AUX)
    Blend: AUG-CC-PVTZ-RI
    Molecular point group: c1

    Geometry (in Angstrom), charge = 0, multiplicity = 1:

       Center              X                  Y                   Z               Mass
    ------------   -----------------  -----------------  -----------------  -----------------
         N            0.924910332061     0.002102701318    -0.011759625553    14.003074004430
         N            1.692562032061    -1.040750298682    -0.411423225553    14.003074004430
         C           -0.413611967939     0.032269701318    -0.001551225553    12.000000000000
         C           -1.119629967939     1.212605701318    -0.247505225553    12.000000000000
         C           -1.080161967939    -1.170632298682     0.245356774447    12.000000000000
         C            1.824072032061     1.066768701318     0.413706774447    12.000000000000
         C           -2.514484967939     1.187911701318    -0.223870225553    12.000000000000
         C           -2.474052967939    -1.183359298682     0.243551774447    12.000000000000
         C            3.120530032061     0.614247701318     0.244363774447    12.000000000000
         C           -3.194802967939    -0.006818298682     0.020564774447    12.000000000000
         C            2.984528032061    -0.689245298682    -0.262305225553    12.000000000000
         H           -0.586115967939     2.129352701318    -0.483593225553     1.007825032230
         H           -0.499846967939    -2.070253298682     0.422667774447     1.007825032230
         H            1.425334032061     1.987279701318     0.815939774447     1.007825032230
         H           -3.068933967939     2.103160701318    -0.415506225553     1.007825032230
         H           -2.999416967939    -2.116342298682     0.431682774447     1.007825032230
         H            4.030686032061     1.151340701318     0.471826774447     1.007825032230
         H           -4.281535967939    -0.022831298682     0.028673774447     1.007825032230
         H            3.755949032061    -1.396242298682    -0.539305225553     1.007825032230

  Basis Set: AUG-CC-PVTZ
    Blend: AUG-CC-PVTZ
  Basis Set: (AUG-CC-PVTZ AUX)
    Blend: AUG-CC-PVTZ-JKFIT
	 Reference Energy          =    -454.4724199973325653 [Eh]
	 Singles Energy            =      -0.0000000000000000 [Eh]
	 Same-Spin Energy          =      -0.5107088654835198 [Eh]
	 Opposite-Spin Energy      =      -1.5503832341216568 [Eh]
	 Correlation Energy        =      -2.0610920996051765 [Eh]
	 Total Energy              =    -456.5335120969377272 [Eh]

	 ================> DF-SCS-MP2 Energies <==================
	-----------------------------------------------------------
	 SCS Same-Spin Scale       =       0.3333333333333333 [-]
	 SCS Opposite-Spin Scale   =       1.2000000000000000 [-]
	 SCS Same-Spin Energy      =      -0.1702362884945066 [Eh]
	 SCS Opposite-Spin Energy  =      -1.8604598809459880 [Eh]
	 SCS Correlation Energy    =      -2.0306961694404948 [Eh]
	 SCS Total Energy          =    -456.5031161667730544 [Eh]
	-----------------------------------------------------------

  Dipole Moment: [D]
     X:    -0.4990      Y:     1.6396      Z:     0.7321     Total:     1.8637

*** Psi4 exiting successfully. Buy a developer a beer!
