                               Psi4 1.3.2 release

  ==> Input File <==

--------------------------------------------------------------------------
#psi4
#
memory 32 gb

molecule  {
0 1
  N        1.0119030     0.0333230     0.0008060
  N        1.6997840    -1.0566340    -0.4179730
  C       -0.4063900     0.0163860    -0.0081010
  C       -1.1124080     1.1967220    -0.2540550
  C       -1.0729400    -1.1865160     0.2388070
  C        1.8230625     1.0298765     0.3985556
  C       -2.5072630     1.1720280    -0.2304200
  C       -2.4668310    -1.1992430     0.2370020
  C        3.1277520     0.5983640     0.2378140
  C       -3.1875810    -0.0227020     0.0140150
  C        2.9917500    -0.7051290    -0.2688550
  H       -0.5788940     2.1134690    -0.4901430
  H       -0.4926250    -2.0861370     0.4161180
  H        1.4325560     1.9713960     0.8093900
  H       -3.0617120     2.0872770    -0.4220560
  H       -2.9921950    -2.1322260     0.4251330
  H        4.0379080     1.1354570     0.4652770
  H       -4.2743140    -0.0387150     0.0221240
  H        3.7631710    -1.4121260    -0.5458550
units angstrom
no_reorient  #important for SAPT in psi4, default
symmetry c1  #important for SAPT in psi4, default
}

set PROPERTIES_ORIGIN ["COM"]
properties('MP2/aug-cc-pvtz', properties = ['dipole'])
--------------------------------------------------------------------------

    Molecular point group: c1
  Charge       = 0
  Multiplicity = 1
  Basis Set: AUG-CC-PVTZ
    Blend: AUG-CC-PVTZ
  Basis Set: (AUG-CC-PVTZ AUX)
    Blend: AUG-CC-PVTZ-JKFIT

    Orbital Energies [Eh]
    ---------------------

    Doubly Occupied:

       1A    -15.652222     2A    -15.588048     3A    -11.292474
       4A    -11.281833     5A    -11.259367     6A    -11.248753
       7A    -11.247425     8A    -11.246444     9A    -11.241780
      10A    -11.241592    11A    -11.226018    12A     -1.386990
      13A     -1.176274    14A     -1.112253    15A     -1.064468
      16A     -1.024984    17A     -0.999502    18A     -0.861770
      19A     -0.848601    20A     -0.798169    21A     -0.776622
      22A     -0.742018    23A     -0.687026    24A     -0.650410
      25A     -0.640300    26A     -0.617241    27A     -0.597800
      28A     -0.596192    29A     -0.588351    30A     -0.559148
      31A     -0.521237    32A     -0.511422    33A     -0.507444
      34A     -0.461790    35A     -0.395502    36A     -0.349405
      37A     -0.346547    38A     -0.314263

  @DF-RHF Final Energy:  -454.48846726009907

   => Energetics <=

    Nuclear Repulsion Energy =            546.8926561117445999
    One-Electron Energy =               -1699.4388814459218793
    Two-Electron Energy =                 698.0577580740781514
    Total Energy =                       -454.4884672600991280
  Basis Set: (AUG-CC-PVTZ AUX)
    Blend: AUG-CC-PVTZ-RI
    Molecular point group: c1

    Geometry (in Angstrom), charge = 0, multiplicity = 1:

       Center              X                  Y                   Z               Mass
    ------------   -----------------  -----------------  -----------------  -----------------
         N            0.997613177112     0.046378198935     0.006214253036    14.003074004430
         N            1.685494177112    -1.043578801065    -0.412564746964    14.003074004430
         C           -0.420679822888     0.029441198935    -0.002692746964    12.000000000000
         C           -1.126697822888     1.209777198935    -0.248646746964    12.000000000000
         C           -1.087229822888    -1.173460801065     0.244215253036    12.000000000000
         C            1.808772677112     1.042931698935     0.403963853036    12.000000000000
         C           -2.521552822888     1.185083198935    -0.225011746964    12.000000000000
         C           -2.481120822888    -1.186187801065     0.242410253036    12.000000000000
         C            3.113462177112     0.611419198935     0.243222253036    12.000000000000
         C           -3.201870822888    -0.009646801065     0.019423253036    12.000000000000
         C            2.977460177112    -0.692073801065    -0.263446746964    12.000000000000
         H           -0.593183822888     2.126524198935    -0.484734746964     1.007825032230
         H           -0.506914822888    -2.073081801065     0.421526253036     1.007825032230
         H            1.418266177112     1.984451198935     0.814798253036     1.007825032230
         H           -3.076001822888     2.100332198935    -0.416647746964     1.007825032230
         H           -3.006484822888    -2.119170801065     0.430541253036     1.007825032230
         H            4.023618177112     1.148512198935     0.470685253036     1.007825032230
         H           -4.288603822888    -0.025659801065     0.027532253036     1.007825032230
         H            3.748881177112    -1.399070801065    -0.540446746964     1.007825032230

  Basis Set: AUG-CC-PVTZ
    Blend: AUG-CC-PVTZ
  Basis Set: (AUG-CC-PVTZ AUX)
    Blend: AUG-CC-PVTZ-JKFIT
	 Reference Energy          =    -454.4884672600990712 [Eh]
	 Singles Energy            =      -0.0000000000000000 [Eh]
	 Same-Spin Energy          =      -0.5094598949274667 [Eh]
	 Opposite-Spin Energy      =      -1.5472651023744377 [Eh]
	 Correlation Energy        =      -2.0567249973019042 [Eh]
	 Total Energy              =    -456.5451922574009700 [Eh]

	 ================> DF-SCS-MP2 Energies <==================
	-----------------------------------------------------------
	 SCS Same-Spin Scale       =       0.3333333333333333 [-]
	 SCS Opposite-Spin Scale   =       1.2000000000000000 [-]
	 SCS Same-Spin Energy      =      -0.1698199649758222 [Eh]
	 SCS Opposite-Spin Energy  =      -1.8567181228493252 [Eh]
	 SCS Correlation Energy    =      -2.0265380878251475 [Eh]
	 SCS Total Energy          =    -456.5150053479242160 [Eh]
	-----------------------------------------------------------

  Dipole Moment: [D]
     X:    -0.9404      Y:     1.6403      Z:     0.7386     Total:     2.0299

*** Psi4 exiting successfully. Buy a developer a beer!
