                               Psi4 1.3.2 release

  ==> Input File <==

--------------------------------------------------------------------------
#psi4
#
memory 32 gb

molecule  {
0 1
  N        1.0119030     0.0333230     0.0008060
  N        1.6997840    -1.0566340    -0.4179730
  C       -0.4063900     0.0163860    -0.0081010
  C       -1.1124080     1.1967220    -0.2540550
  C       -1.0729400    -1.1865160     0.2388070
  C        1.8312940     1.0508850     0.4071570
  C       -2.5072630     1.1720280    -0.2304200
  C       -2.4668310    -1.1992430     0.2370020
  C        3.2731898     0.5781022     0.2295559
  C       -3.1875810    -0.0227020     0.0140150
  C        2.9917500    -0.7051290    -0.2688550
  H       -0.5788940     2.1134690    -0.4901430
  H       -0.4926250    -2.0861370     0.4161180
  H        1.4325560     1.9713960     0.8093900
  H       -3.0617120     2.0872770    -0.4220560
  H       -2.9921950    -2.1322260     0.4251330
  H        4.0379080     1.1354570     0.4652770
  H       -4.2743140    -0.0387150     0.0221240
  H        3.7631710    -1.4121260    -0.5458550
units angstrom
no_reorient  #important for SAPT in psi4, default
symmetry c1  #important for SAPT in psi4, default
}

set PROPERTIES_ORIGIN ["COM"]
properties('MP2/aug-cc-pvtz', properties = ['dipole'])
--------------------------------------------------------------------------

    Molecular point group: c1
  Charge       = 0
  Multiplicity = 1
  Basis Set: AUG-CC-PVTZ
    Blend: AUG-CC-PVTZ
  Basis Set: (AUG-CC-PVTZ AUX)
    Blend: AUG-CC-PVTZ-JKFIT

    Orbital Energies [Eh]
    ---------------------

    Doubly Occupied:

       1A    -15.663141     2A    -15.585105     3A    -11.299190
       4A    -11.294586     5A    -11.263298     6A    -11.250729
       7A    -11.249483     8A    -11.248097     9A    -11.244262
      10A    -11.243938    11A    -11.234248    12A     -1.380030
      13A     -1.176728    14A     -1.112032    15A     -1.047539
      16A     -1.025379    17A     -1.001890    18A     -0.869721
      19A     -0.848453    20A     -0.806854    21A     -0.774112
      22A     -0.742910    23A     -0.689475    24A     -0.654339
      25A     -0.640778    26A     -0.632092    27A     -0.605368
      28A     -0.598592    29A     -0.591593    30A     -0.526767
      31A     -0.522106    32A     -0.510920    33A     -0.509494
      34A     -0.463968    35A     -0.396739    36A     -0.349168
      37A     -0.332381    38A     -0.317623

  @DF-RHF Final Energy:  -454.45651494394161

   => Energetics <=

    Nuclear Repulsion Energy =            543.7010582012671875
    One-Electron Energy =               -1692.9088915805236866
    Two-Electron Energy =                 694.7513184353149427
    Total Energy =                       -454.4565149439415563
  Basis Set: (AUG-CC-PVTZ AUX)
    Blend: AUG-CC-PVTZ-RI
    Molecular point group: c1

    Geometry (in Angstrom), charge = 0, multiplicity = 1:

       Center              X                  Y                   Z               Mass
    ------------   -----------------  -----------------  -----------------  -----------------
         N            0.984813512909     0.046316003628     0.006185658354    14.003074004430
         N            1.672694512909    -1.043640996372    -0.412593341646    14.003074004430
         C           -0.433479487091     0.029379003628    -0.002721341646    12.000000000000
         C           -1.139497487091     1.209715003628    -0.248675341646    12.000000000000
         C           -1.100029487091    -1.173522996372     0.244186658354    12.000000000000
         C            1.804204512909     1.063878003628     0.412536658354    12.000000000000
         C           -2.534352487091     1.185021003628    -0.225040341646    12.000000000000
         C           -2.493920487091    -1.186249996372     0.242381658354    12.000000000000
         C            3.246100312909     0.591095203628     0.234935558354    12.000000000000
         C           -3.214670487091    -0.009708996372     0.019394658354    12.000000000000
         C            2.964660512909    -0.692135996372    -0.263475341646    12.000000000000
         H           -0.605983487091     2.126462003628    -0.484763341646     1.007825032230
         H           -0.519714487091    -2.073143996372     0.421497658354     1.007825032230
         H            1.405466512909     1.984389003628     0.814769658354     1.007825032230
         H           -3.088801487091     2.100270003628    -0.416676341646     1.007825032230
         H           -3.019284487091    -2.119232996372     0.430512658354     1.007825032230
         H            4.010818512909     1.148450003628     0.470656658354     1.007825032230
         H           -4.301403487091    -0.025721996372     0.027503658354     1.007825032230
         H            3.736081512909    -1.399132996372    -0.540475341646     1.007825032230

  Basis Set: AUG-CC-PVTZ
    Blend: AUG-CC-PVTZ
  Basis Set: (AUG-CC-PVTZ AUX)
    Blend: AUG-CC-PVTZ-JKFIT
	 Reference Energy          =    -454.4565149439416132 [Eh]
	 Singles Energy            =      -0.0000000000000000 [Eh]
	 Same-Spin Energy          =      -0.5108333508576319 [Eh]
	 Opposite-Spin Energy      =      -1.5513031958341599 [Eh]
	 Correlation Energy        =      -2.0621365466917920 [Eh]
	 Total Energy              =    -456.5186514906334310 [Eh]

	 ================> DF-SCS-MP2 Energies <==================
	-----------------------------------------------------------
	 SCS Same-Spin Scale       =       0.3333333333333333 [-]
	 SCS Opposite-Spin Scale   =       1.2000000000000000 [-]
	 SCS Same-Spin Energy      =      -0.1702777836192106 [Eh]
	 SCS Opposite-Spin Energy  =      -1.8615638350009918 [Eh]
	 SCS Correlation Energy    =      -2.0318416186202022 [Eh]
	 SCS Total Energy          =    -456.4883565625618189 [Eh]
	-----------------------------------------------------------

  Dipole Moment: [D]
     X:    -1.1571      Y:     1.6215      Z:     0.7341     Total:     2.1229

*** Psi4 exiting successfully. Buy a developer a beer!
