                               Psi4 1.3.2 release

  ==> Input File <==

--------------------------------------------------------------------------
#psi4
#
memory 32 gb

molecule  {
0 1
  N        1.0105217     0.0818203    -0.0090592
  N        1.6997840    -1.0566340    -0.4179730
  C       -0.4063900     0.0163860    -0.0081010
  C       -1.1124080     1.1967220    -0.2540550
  C       -1.0729400    -1.1865160     0.2388070
  C        1.8312940     1.0508850     0.4071570
  C       -2.5072630     1.1720280    -0.2304200
  C       -2.4668310    -1.1992430     0.2370020
  C        3.1277520     0.5983640     0.2378140
  C       -3.1875810    -0.0227020     0.0140150
  C        2.9917500    -0.7051290    -0.2688550
  H       -0.5788940     2.1134690    -0.4901430
  H       -0.4926250    -2.0861370     0.4161180
  H        1.4325560     1.9713960     0.8093900
  H       -3.0617120     2.0872770    -0.4220560
  H       -2.9921950    -2.1322260     0.4251330
  H        4.0379080     1.1354570     0.4652770
  H       -4.2743140    -0.0387150     0.0221240
  H        3.7631710    -1.4121260    -0.5458550
units angstrom
no_reorient  #important for SAPT in psi4, default
symmetry c1  #important for SAPT in psi4, default
}

set PROPERTIES_ORIGIN ["COM"]
properties('MP2/aug-cc-pvtz', properties = ['dipole'])
--------------------------------------------------------------------------

    Molecular point group: c1
  Charge       = 0
  Multiplicity = 1
  Basis Set: AUG-CC-PVTZ
    Blend: AUG-CC-PVTZ
  Basis Set: (AUG-CC-PVTZ AUX)
    Blend: AUG-CC-PVTZ-JKFIT

    Orbital Energies [Eh]
    ---------------------

    Doubly Occupied:

       1A    -15.649795     2A    -15.589171     3A    -11.292145
       4A    -11.283595     5A    -11.262422     6A    -11.247699
       7A    -11.246226     8A    -11.245896     9A    -11.241763
      10A    -11.240901    11A    -11.225375    12A     -1.375130
      13A     -1.175165    14A     -1.113987    15A     -1.063519
      16A     -1.024500    17A     -0.997633    18A     -0.861427
      19A     -0.847701    20A     -0.795811    21A     -0.778002
      22A     -0.743639    23A     -0.686565    24A     -0.648526
      25A     -0.638834    26A     -0.613985    27A     -0.597557
      28A     -0.595460    29A     -0.583371    30A     -0.564582
      31A     -0.520726    32A     -0.510529    33A     -0.506582
      34A     -0.462172    35A     -0.397307    36A     -0.349825
      37A     -0.346372    38A     -0.313057

  @DF-RHF Final Energy:  -454.48587375337303

   => Energetics <=

    Nuclear Repulsion Energy =            546.2354803032764039
    One-Electron Energy =               -1698.1688027035834239
    Two-Electron Energy =                 697.4474486469341628
    Total Energy =                       -454.4858737533729709
  Basis Set: (AUG-CC-PVTZ AUX)
    Blend: AUG-CC-PVTZ-RI
    Molecular point group: c1

    Geometry (in Angstrom), charge = 0, multiplicity = 1:

       Center              X                  Y                   Z               Mass
    ------------   -----------------  -----------------  -----------------  -----------------
         N            0.995680504557     0.088411825916    -0.003408518776    14.003074004430
         N            1.684942804557    -1.050042474084    -0.412322318776    14.003074004430
         C           -0.421231195443     0.022977525916    -0.002450318776    12.000000000000
         C           -1.127249195443     1.203313525916    -0.248404318776    12.000000000000
         C           -1.087781195443    -1.179924474084     0.244457681224    12.000000000000
         C            1.816452804557     1.057476525916     0.412807681224    12.000000000000
         C           -2.522104195443     1.178619525916    -0.224769318776    12.000000000000
         C           -2.481672195443    -1.192651474084     0.242652681224    12.000000000000
         C            3.112910804557     0.604955525916     0.243464681224    12.000000000000
         C           -3.202422195443    -0.016110474084     0.019665681224    12.000000000000
         C            2.976908804557    -0.698537474084    -0.263204318776    12.000000000000
         H           -0.593735195443     2.120060525916    -0.484492318776     1.007825032230
         H           -0.507466195443    -2.079545474084     0.421768681224     1.007825032230
         H            1.417714804557     1.977987525916     0.815040681224     1.007825032230
         H           -3.076553195443     2.093868525916    -0.416405318776     1.007825032230
         H           -3.007036195443    -2.125634474084     0.430783681224     1.007825032230
         H            4.023066804557     1.142048525916     0.470927681224     1.007825032230
         H           -4.289155195443    -0.032123474084     0.027774681224     1.007825032230
         H            3.748329804557    -1.405534474084    -0.540204318776     1.007825032230

  Basis Set: AUG-CC-PVTZ
    Blend: AUG-CC-PVTZ
  Basis Set: (AUG-CC-PVTZ AUX)
    Blend: AUG-CC-PVTZ-JKFIT
	 Reference Energy          =    -454.4858737533730277 [Eh]
	 Singles Energy            =      -0.0000000000000000 [Eh]
	 Same-Spin Energy          =      -0.5094455967116163 [Eh]
	 Opposite-Spin Energy      =      -1.5480174041799946 [Eh]
	 Correlation Energy        =      -2.0574630008916106 [Eh]
	 Total Energy              =    -456.5433367542646579 [Eh]

	 ================> DF-SCS-MP2 Energies <==================
	-----------------------------------------------------------
	 SCS Same-Spin Scale       =       0.3333333333333333 [-]
	 SCS Opposite-Spin Scale   =       1.2000000000000000 [-]
	 SCS Same-Spin Energy      =      -0.1698151989038721 [Eh]
	 SCS Opposite-Spin Energy  =      -1.8576208850159934 [Eh]
	 SCS Correlation Energy    =      -2.0274360839198655 [Eh]
	 SCS Total Energy          =    -456.5133098372928657 [Eh]
	-----------------------------------------------------------

  Dipole Moment: [D]
     X:    -0.8863      Y:     1.6171      Z:     0.7431     Total:     1.9881

*** Psi4 exiting successfully. Buy a developer a beer!
