                               Psi4 1.3.2 release

  ==> Input File <==

--------------------------------------------------------------------------
#psi4
#
memory 32 gb

molecule  {
0 1
  N        1.0119030     0.0333230     0.0008060
  N        1.6997840    -1.0566340    -0.4179730
  C       -0.2842427     0.0946486    -0.0266252
  C       -1.1124080     1.1967220    -0.2540550
  C       -1.0729400    -1.1865160     0.2388070
  C        1.8312940     1.0508850     0.4071570
  C       -2.5072630     1.1720280    -0.2304200
  C       -2.4668310    -1.1992430     0.2370020
  C        3.1277520     0.5983640     0.2378140
  C       -3.1875810    -0.0227020     0.0140150
  C        2.9917500    -0.7051290    -0.2688550
  H       -0.5788940     2.1134690    -0.4901430
  H       -0.4926250    -2.0861370     0.4161180
  H        1.4325560     1.9713960     0.8093900
  H       -3.0617120     2.0872770    -0.4220560
  H       -2.9921950    -2.1322260     0.4251330
  H        4.0379080     1.1354570     0.4652770
  H       -4.2743140    -0.0387150     0.0221240
  H        3.7631710    -1.4121260    -0.5458550
units angstrom
no_reorient  #important for SAPT in psi4, default
symmetry c1  #important for SAPT in psi4, default
}

set PROPERTIES_ORIGIN ["COM"]
properties('MP2/aug-cc-pvtz', properties = ['dipole'])
--------------------------------------------------------------------------

    Molecular point group: c1
  Charge       = 0
  Multiplicity = 1
  Basis Set: AUG-CC-PVTZ
    Blend: AUG-CC-PVTZ
  Basis Set: (AUG-CC-PVTZ AUX)
    Blend: AUG-CC-PVTZ-JKFIT

    Orbital Energies [Eh]
    ---------------------

    Doubly Occupied:

       1A    -15.657376     2A    -15.598959     3A    -11.294208
       4A    -11.289483     5A    -11.269898     6A    -11.247073
       7A    -11.244191     8A    -11.242263     9A    -11.240307
      10A    -11.236355    11A    -11.236178    12A     -1.406680
      13A     -1.181886    14A     -1.120850    15A     -1.073012
      16A     -1.016274    17A     -0.986921    18A     -0.880837
      19A     -0.846764    20A     -0.800534    21A     -0.777935
      22A     -0.746775    23A     -0.685132    24A     -0.657024
      25A     -0.645618    26A     -0.621209    27A     -0.604329
      28A     -0.593565    29A     -0.579632    30A     -0.569774
      31A     -0.524349    32A     -0.499337    33A     -0.487475
      34A     -0.465725    35A     -0.405880    36A     -0.357509
      37A     -0.342251    38A     -0.295969

  @DF-RHF Final Energy:  -454.46018162223851

   => Energetics <=

    Nuclear Repulsion Energy =            546.7829283570514463
    One-Electron Energy =               -1699.0271491715645880
    Two-Electron Energy =                 697.7840391922744629
    Total Energy =                       -454.4601816222385651
  Basis Set: (AUG-CC-PVTZ AUX)
    Blend: AUG-CC-PVTZ-RI
    Molecular point group: c1

    Geometry (in Angstrom), charge = 0, multiplicity = 1:

       Center              X                  Y                   Z               Mass
    ------------   -----------------  -----------------  -----------------  -----------------
         N            0.986753461741     0.038109554872     0.007040758447    14.003074004430
         N            1.674634461741    -1.051847445128    -0.411738241553    14.003074004430
         C           -0.309392238259     0.099435154872    -0.020390441553    12.000000000000
         C           -1.137557538259     1.201508554872    -0.247820241553    12.000000000000
         C           -1.098089538259    -1.181729445128     0.245041758447    12.000000000000
         C            1.806144461741     1.055671554872     0.413391758447    12.000000000000
         C           -2.532412538259     1.176814554872    -0.224185241553    12.000000000000
         C           -2.491980538259    -1.194456445128     0.243236758447    12.000000000000
         C            3.102602461741     0.603150554872     0.244048758447    12.000000000000
         C           -3.212730538259    -0.017915445128     0.020249758447    12.000000000000
         C            2.966600461741    -0.700342445128    -0.262620241553    12.000000000000
         H           -0.604043538259     2.118255554872    -0.483908241553     1.007825032230
         H           -0.517774538259    -2.081350445128     0.422352758447     1.007825032230
         H            1.407406461741     1.976182554872     0.815624758447     1.007825032230
         H           -3.086861538259     2.092063554872    -0.415821241553     1.007825032230
         H           -3.017344538259    -2.127439445128     0.431367758447     1.007825032230
         H            4.012758461741     1.140243554872     0.471511758447     1.007825032230
         H           -4.299463538259    -0.033928445128     0.028358758447     1.007825032230
         H            3.738021461741    -1.407339445128    -0.539620241553     1.007825032230

  Basis Set: AUG-CC-PVTZ
    Blend: AUG-CC-PVTZ
  Basis Set: (AUG-CC-PVTZ AUX)
    Blend: AUG-CC-PVTZ-JKFIT
	 Reference Energy          =    -454.4601816222385082 [Eh]
	 Singles Energy            =      -0.0000000000000000 [Eh]
	 Same-Spin Energy          =      -0.5108181187621448 [Eh]
	 Opposite-Spin Energy      =      -1.5503440000960795 [Eh]
	 Correlation Energy        =      -2.0611621188582241 [Eh]
	 Total Energy              =    -456.5213437410967572 [Eh]

	 ================> DF-SCS-MP2 Energies <==================
	-----------------------------------------------------------
	 SCS Same-Spin Scale       =       0.3333333333333333 [-]
	 SCS Opposite-Spin Scale   =       1.2000000000000000 [-]
	 SCS Same-Spin Energy      =      -0.1702727062540483 [Eh]
	 SCS Opposite-Spin Energy  =      -1.8604128001152953 [Eh]
	 SCS Correlation Energy    =      -2.0306855063693434 [Eh]
	 SCS Total Energy          =    -456.4908671286078743 [Eh]
	-----------------------------------------------------------

  Dipole Moment: [D]
     X:    -0.1622      Y:     1.6369      Z:     0.7298     Total:     1.7995

*** Psi4 exiting successfully. Buy a developer a beer!
