                               Psi4 1.3.2 release

  ==> Input File <==

--------------------------------------------------------------------------
#psi4
#
memory 32 gb

molecule  {
0 1
  N        1.0119030     0.0333230     0.0008060
  N        1.7138933    -1.0983272    -0.4345218
  C       -0.4063900     0.0163860    -0.0081010
  C       -1.1124080     1.1967220    -0.2540550
  C       -1.0729400    -1.1865160     0.2388070
  C        1.8312940     1.0508850     0.4071570
  C       -2.5072630     1.1720280    -0.2304200
  C       -2.4668310    -1.1992430     0.2370020
  C        3.1277520     0.5983640     0.2378140
  C       -3.1875810    -0.0227020     0.0140150
  C        2.9917500    -0.7051290    -0.2688550
  H       -0.5788940     2.1134690    -0.4901430
  H       -0.4926250    -2.0861370     0.4161180
  H        1.4325560     1.9713960     0.8093900
  H       -3.0617120     2.0872770    -0.4220560
  H       -2.9921950    -2.1322260     0.4251330
  H        4.0379080     1.1354570     0.4652770
  H       -4.2743140    -0.0387150     0.0221240
  H        3.7631710    -1.4121260    -0.5458550
units angstrom
no_reorient  #important for SAPT in psi4, default
symmetry c1  #important for SAPT in psi4, default
}

set PROPERTIES_ORIGIN ["COM"]
properties('MP2/aug-cc-pvtz', properties = ['dipole'])
--------------------------------------------------------------------------

    Molecular point group: c1
  Charge       = 0
  Multiplicity = 1
  Basis Set: AUG-CC-PVTZ
    Blend: AUG-CC-PVTZ
  Basis Set: (AUG-CC-PVTZ AUX)
    Blend: AUG-CC-PVTZ-JKFIT

    Orbital Energies [Eh]
    ---------------------

    Doubly Occupied:

       1A    -15.648873     2A    -15.595349     3A    -11.290810
       4A    -11.288221     5A    -11.263556     6A    -11.247398
       7A    -11.245613     8A    -11.245154     9A    -11.239804
      10A    -11.239608    11A    -11.228574    12A     -1.366167
      13A     -1.174398    14A     -1.111607    15A     -1.063190
      16A     -1.023698    17A     -0.995589    18A     -0.859439
      19A     -0.846058    20A     -0.792696    21A     -0.779191
      22A     -0.742616    23A     -0.685618    24A     -0.646322
      25A     -0.637284    26A     -0.611092    27A     -0.595998
      28A     -0.592108    29A     -0.585376    30A     -0.563333
      31A     -0.519196    32A     -0.509515    33A     -0.506604
      34A     -0.468569    35A     -0.396630    36A     -0.351946
      37A     -0.345954    38A     -0.311385

  @DF-RHF Final Energy:  -454.48386877677700

   => Energetics <=

    Nuclear Repulsion Energy =            545.1076827927519162
    One-Electron Energy =               -1695.9540186005635860
    Two-Electron Energy =                 696.3624670310346119
    Total Energy =                       -454.4838687767769443
  Basis Set: (AUG-CC-PVTZ AUX)
    Blend: AUG-CC-PVTZ-RI
    Molecular point group: c1

    Geometry (in Angstrom), charge = 0, multiplicity = 1:

       Center              X                  Y                   Z               Mass
    ------------   -----------------  -----------------  -----------------  -----------------
         N            0.995556162141     0.048680786894     0.007106308201    14.003074004430
         N            1.697546462141    -1.082969413106    -0.428221491799    14.003074004430
         C           -0.422736837859     0.031743786894    -0.001800691799    12.000000000000
         C           -1.128754837859     1.212079786894    -0.247754691799    12.000000000000
         C           -1.089286837859    -1.171158213106     0.245107308201    12.000000000000
         C            1.814947162141     1.066242786894     0.413457308201    12.000000000000
         C           -2.523609837859     1.187385786894    -0.224119691799    12.000000000000
         C           -2.483177837859    -1.183885213106     0.243302308201    12.000000000000
         C            3.111405162141     0.613721786894     0.244114308201    12.000000000000
         C           -3.203927837859    -0.007344213106     0.020315308201    12.000000000000
         C            2.975403162141    -0.689771213106    -0.262554691799    12.000000000000
         H           -0.595240837859     2.128826786894    -0.483842691799     1.007825032230
         H           -0.508971837859    -2.070779213106     0.422418308201     1.007825032230
         H            1.416209162141     1.986753786894     0.815690308201     1.007825032230
         H           -3.078058837859     2.102634786894    -0.415755691799     1.007825032230
         H           -3.008541837859    -2.116868213106     0.431433308201     1.007825032230
         H            4.021561162141     1.150814786894     0.471577308201     1.007825032230
         H           -4.290660837859    -0.023357213106     0.028424308201     1.007825032230
         H            3.746824162141    -1.396768213106    -0.539554691799     1.007825032230

  Basis Set: AUG-CC-PVTZ
    Blend: AUG-CC-PVTZ
  Basis Set: (AUG-CC-PVTZ AUX)
    Blend: AUG-CC-PVTZ-JKFIT
	 Reference Energy          =    -454.4838687767770011 [Eh]
	 Singles Energy            =      -0.0000000000000000 [Eh]
	 Same-Spin Energy          =      -0.5097605201047255 [Eh]
	 Opposite-Spin Energy      =      -1.5493027370931407 [Eh]
	 Correlation Energy        =      -2.0590632571978662 [Eh]
	 Total Energy              =    -456.5429320339748642 [Eh]

	 ================> DF-SCS-MP2 Energies <==================
	-----------------------------------------------------------
	 SCS Same-Spin Scale       =       0.3333333333333333 [-]
	 SCS Opposite-Spin Scale   =       1.2000000000000000 [-]
	 SCS Same-Spin Energy      =      -0.1699201733682418 [Eh]
	 SCS Opposite-Spin Energy  =      -1.8591632845117687 [Eh]
	 SCS Correlation Energy    =      -2.0290834578800103 [Eh]
	 SCS Total Energy          =    -456.5129522346570070 [Eh]
	-----------------------------------------------------------

  Dipole Moment: [D]
     X:    -0.8133      Y:     1.6881      Z:     0.7596     Total:     2.0220

*** Psi4 exiting successfully. Buy a developer a beer!
