                               Psi4 1.3.2 release

  ==> Input File <==

--------------------------------------------------------------------------
#psi4
#
memory 32 gb

molecule  {
0 1
  N        1.0119030     0.0333230     0.0008060
  N        1.6997840    -1.0566340    -0.4179730
  C       -0.4063900     0.0163860    -0.0081010
  C       -1.1124080     1.1967220    -0.2540550
  C       -1.0729400    -1.1865160     0.2388070
  C        1.8312940     1.0508850     0.4071570
  C       -2.5072630     1.1720280    -0.2304200
  C       -2.4668310    -1.1992430     0.2370020
  C        3.1277520     0.5983640     0.2378140
  C       -3.1875810    -0.0227020     0.0140150
  C        2.9723917    -0.8906665    -0.3409736
  H       -0.5788940     2.1134690    -0.4901430
  H       -0.4926250    -2.0861370     0.4161180
  H        1.4325560     1.9713960     0.8093900
  H       -3.0617120     2.0872770    -0.4220560
  H       -2.9921950    -2.1322260     0.4251330
  H        4.0379080     1.1354570     0.4652770
  H       -4.2743140    -0.0387150     0.0221240
  H        3.7631710    -1.4121260    -0.5458550
units angstrom
no_reorient  #important for SAPT in psi4, default
symmetry c1  #important for SAPT in psi4, default
}

set PROPERTIES_ORIGIN ["COM"]
properties('MP2/aug-cc-pvtz', properties = ['dipole'])
--------------------------------------------------------------------------

    Molecular point group: c1
  Charge       = 0
  Multiplicity = 1
  Basis Set: AUG-CC-PVTZ
    Blend: AUG-CC-PVTZ
  Basis Set: (AUG-CC-PVTZ AUX)
    Blend: AUG-CC-PVTZ-JKFIT

    Orbital Energies [Eh]
    ---------------------

    Doubly Occupied:

       1A    -15.643977     2A    -15.598208     3A    -11.291401
       4A    -11.281421     5A    -11.269829     6A    -11.246917
       7A    -11.244788     8A    -11.244698     9A    -11.238782
      10A    -11.238603    11A    -11.237652    12A     -1.380745
      13A     -1.177454    14A     -1.121513    15A     -1.051090
      16A     -1.023245    17A     -0.989874    18A     -0.861349
      19A     -0.848549    20A     -0.807701    21A     -0.779685
      22A     -0.737057    23A     -0.688702    24A     -0.667693
      25A     -0.644543    26A     -0.621711    27A     -0.604756
      28A     -0.594633    29A     -0.581087    30A     -0.557138
      31A     -0.518827    32A     -0.509757    33A     -0.504379
      34A     -0.433868    35A     -0.396839    36A     -0.357488
      37A     -0.345591    38A     -0.302870

  @DF-RHF Final Energy:  -454.45214554850418

   => Energetics <=

    Nuclear Repulsion Energy =            544.6683810992980170
    One-Electron Energy =               -1694.9522094251201452
    Two-Electron Energy =                 695.8316827773178375
    Total Energy =                       -454.4521455485041770
  Basis Set: (AUG-CC-PVTZ AUX)
    Blend: AUG-CC-PVTZ-RI
    Molecular point group: c1

    Geometry (in Angstrom), charge = 0, multiplicity = 1:

       Center              X                  Y                   Z               Mass
    ------------   -----------------  -----------------  -----------------  -----------------
         N            0.998539967978     0.060082406292     0.011504827218    14.003074004430
         N            1.686420967978    -1.029874593708    -0.407274172782    14.003074004430
         C           -0.419753032022     0.043145406292     0.002597827218    12.000000000000
         C           -1.125771032022     1.223481406292    -0.243356172782    12.000000000000
         C           -1.086303032022    -1.159756593708     0.249505827218    12.000000000000
         C            1.817930967978     1.077644406292     0.417855827218    12.000000000000
         C           -2.520626032022     1.198787406292    -0.219721172782    12.000000000000
         C           -2.480194032022    -1.172483593708     0.247700827218    12.000000000000
         C            3.114388967978     0.625123406292     0.248512827218    12.000000000000
         C           -3.200944032022     0.004057406292     0.024713827218    12.000000000000
         C            2.959028667978    -0.863907093708    -0.330274772782    12.000000000000
         H           -0.592257032022     2.140228406292    -0.479444172782     1.007825032230
         H           -0.505988032022    -2.059377593708     0.426816827218     1.007825032230
         H            1.419192967978     1.998155406292     0.820088827218     1.007825032230
         H           -3.075075032022     2.114036406292    -0.411357172782     1.007825032230
         H           -3.005558032022    -2.105466593708     0.435831827218     1.007825032230
         H            4.024544967978     1.162216406292     0.475975827218     1.007825032230
         H           -4.287677032022    -0.011955593708     0.032822827218     1.007825032230
         H            3.749807967978    -1.385366593708    -0.535156172782     1.007825032230

  Basis Set: AUG-CC-PVTZ
    Blend: AUG-CC-PVTZ
  Basis Set: (AUG-CC-PVTZ AUX)
    Blend: AUG-CC-PVTZ-JKFIT
	 Reference Energy          =    -454.4521455485041770 [Eh]
	 Singles Energy            =      -0.0000000000000000 [Eh]
	 Same-Spin Energy          =      -0.5069057980976246 [Eh]
	 Opposite-Spin Energy      =      -1.5462469059190562 [Eh]
	 Correlation Energy        =      -2.0531527040166808 [Eh]
	 Total Energy              =    -456.5052982525208449 [Eh]

	 ================> DF-SCS-MP2 Energies <==================
	-----------------------------------------------------------
	 SCS Same-Spin Scale       =       0.3333333333333333 [-]
	 SCS Opposite-Spin Scale   =       1.2000000000000000 [-]
	 SCS Same-Spin Energy      =      -0.1689685993658749 [Eh]
	 SCS Opposite-Spin Energy  =      -1.8554962871028673 [Eh]
	 SCS Correlation Energy    =      -2.0244648864687420 [Eh]
	 SCS Total Energy          =    -456.4766104349729403 [Eh]
	-----------------------------------------------------------

  Dipole Moment: [D]
     X:    -0.6791      Y:     1.3354      Z:     0.6153     Total:     1.6196

*** Psi4 exiting successfully. Buy a developer a beer!
