                               Psi4 1.3.2 release

  ==> Input File <==

--------------------------------------------------------------------------
#psi4
#
memory 32 gb

molecule  {
0 1
  N        1.0119030     0.0333230     0.0008060
  N        1.6997840    -1.0566340    -0.4179730
  C       -0.4063900     0.0163860    -0.0081010
  C       -1.1124080     1.1967220    -0.2540550
  C       -1.0729400    -1.1865160     0.2388070
  C        1.8312940     1.0508850     0.4071570
  C       -2.5072630     1.1720280    -0.2304200
  C       -2.4668310    -1.1992430     0.2370020
  C        3.1277520     0.5983640     0.2378140
  C       -3.1875810    -0.0227020     0.0140150
  C        3.1835491    -0.6529462    -0.2467177
  H       -0.5788940     2.1134690    -0.4901430
  H       -0.4926250    -2.0861370     0.4161180
  H        1.4325560     1.9713960     0.8093900
  H       -3.0617120     2.0872770    -0.4220560
  H       -2.9921950    -2.1322260     0.4251330
  H        4.0379080     1.1354570     0.4652770
  H       -4.2743140    -0.0387150     0.0221240
  H        3.7631710    -1.4121260    -0.5458550
units angstrom
no_reorient  #important for SAPT in psi4, default
symmetry c1  #important for SAPT in psi4, default
}

set PROPERTIES_ORIGIN ["COM"]
properties('MP2/aug-cc-pvtz', properties = ['dipole'])
--------------------------------------------------------------------------

    Molecular point group: c1
  Charge       = 0
  Multiplicity = 1
  Basis Set: AUG-CC-PVTZ
    Blend: AUG-CC-PVTZ
  Basis Set: (AUG-CC-PVTZ AUX)
    Blend: AUG-CC-PVTZ-JKFIT

    Orbital Energies [Eh]
    ---------------------

    Doubly Occupied:

       1A    -15.669281     2A    -15.594211     3A    -11.294528
       4A    -11.276712     5A    -11.261275     6A    -11.251685
       7A    -11.249959     8A    -11.248188     9A    -11.245130
      10A    -11.244859    11A    -11.230834    12A     -1.367369
      13A     -1.171422    14A     -1.097521    15A     -1.055477
      16A     -1.025679    17A     -1.004867    18A     -0.873560
      19A     -0.848341    20A     -0.800974    21A     -0.778427
      22A     -0.739339    23A     -0.689989    24A     -0.648919
      25A     -0.639567    26A     -0.613213    27A     -0.606906
      28A     -0.597799    29A     -0.588800    30A     -0.567213
      31A     -0.523516    32A     -0.511291    33A     -0.506892
      34A     -0.437948    35A     -0.398362    36A     -0.349450
      37A     -0.331282    38A     -0.312046

  @DF-RHF Final Energy:  -454.43595171491216

   => Energetics <=

    Nuclear Repulsion Energy =            543.2135380323111349
    One-Electron Energy =               -1691.9933186279556594
    Two-Electron Energy =                 694.3438288807323033
    Total Energy =                       -454.4359517149122212
  Basis Set: (AUG-CC-PVTZ AUX)
    Blend: AUG-CC-PVTZ-RI
    Molecular point group: c1

    Geometry (in Angstrom), charge = 0, multiplicity = 1:

       Center              X                  Y                   Z               Mass
    ------------   -----------------  -----------------  -----------------  -----------------
         N            0.980951914841     0.040281834452     0.003653917054    14.003074004430
         N            1.668832914841    -1.049675165548    -0.415125082946    14.003074004430
         C           -0.437341085159     0.023344834452    -0.005253082946    12.000000000000
         C           -1.143359085159     1.203680834452    -0.251207082946    12.000000000000
         C           -1.103891085159    -1.179557165548     0.241654917054    12.000000000000
         C            1.800342914841     1.057843834452     0.410004917054    12.000000000000
         C           -2.538214085159     1.178986834452    -0.227572082946    12.000000000000
         C           -2.497782085159    -1.192284165548     0.239849917054    12.000000000000
         C            3.096800914841     0.605322834452     0.240661917054    12.000000000000
         C           -3.218532085159    -0.015743165548     0.016862917054    12.000000000000
         C            3.152598014841    -0.645987365548    -0.243869782946    12.000000000000
         H           -0.609845085159     2.120427834452    -0.487295082946     1.007825032230
         H           -0.523576085159    -2.079178165548     0.418965917054     1.007825032230
         H            1.401604914841     1.978354834452     0.812237917054     1.007825032230
         H           -3.092663085159     2.094235834452    -0.419208082946     1.007825032230
         H           -3.023146085159    -2.125267165548     0.427980917054     1.007825032230
         H            4.006956914841     1.142415834452     0.468124917054     1.007825032230
         H           -4.305265085159    -0.031756165548     0.024971917054     1.007825032230
         H            3.732219914841    -1.405167165548    -0.543007082946     1.007825032230

  Basis Set: AUG-CC-PVTZ
    Blend: AUG-CC-PVTZ
  Basis Set: (AUG-CC-PVTZ AUX)
    Blend: AUG-CC-PVTZ-JKFIT
	 Reference Energy          =    -454.4359517149121643 [Eh]
	 Singles Energy            =      -0.0000000000000000 [Eh]
	 Same-Spin Energy          =      -0.5154523373189164 [Eh]
	 Opposite-Spin Energy      =      -1.5595560211317074 [Eh]
	 Correlation Energy        =      -2.0750083584506238 [Eh]
	 Total Energy              =    -456.5109600733628099 [Eh]

	 ================> DF-SCS-MP2 Energies <==================
	-----------------------------------------------------------
	 SCS Same-Spin Scale       =       0.3333333333333333 [-]
	 SCS Opposite-Spin Scale   =       1.2000000000000000 [-]
	 SCS Same-Spin Energy      =      -0.1718174457729721 [Eh]
	 SCS Opposite-Spin Energy  =      -1.8714672253580489 [Eh]
	 SCS Correlation Energy    =      -2.0432846711310209 [Eh]
	 SCS Total Energy          =    -456.4792363860431692 [Eh]
	-----------------------------------------------------------

  Dipole Moment: [D]
     X:    -1.1151      Y:     1.6741      Z:     0.7565     Total:     2.1491

*** Psi4 exiting successfully. Buy a developer a beer!
