                               Psi4 1.3.2 release

  ==> Input File <==

--------------------------------------------------------------------------
#psi4
#
memory 32 gb

molecule  {
0 1
  N        1.0119030     0.0333230     0.0008060
  N        1.6997840    -1.0566340    -0.4179730
  C       -0.4063900     0.0163860    -0.0081010
  C       -1.1124080     1.1967220    -0.2540550
  C       -1.0729400    -1.1865160     0.2388070
  C        1.8681534     1.1340350     0.4396149
  C       -2.5072630     1.1720280    -0.2304200
  C       -2.4668310    -1.1992430     0.2370020
  C        3.1277520     0.5983640     0.2378140
  C       -3.1875810    -0.0227020     0.0140150
  C        2.9917500    -0.7051290    -0.2688550
  H       -0.5788940     2.1134690    -0.4901430
  H       -0.4926250    -2.0861370     0.4161180
  H        1.4325560     1.9713960     0.8093900
  H       -3.0617120     2.0872770    -0.4220560
  H       -2.9921950    -2.1322260     0.4251330
  H        4.0379080     1.1354570     0.4652770
  H       -4.2743140    -0.0387150     0.0221240
  H        3.7631710    -1.4121260    -0.5458550
units angstrom
no_reorient  #important for SAPT in psi4, default
symmetry c1  #important for SAPT in psi4, default
}

set PROPERTIES_ORIGIN ["COM"]
properties('MP2/aug-cc-pvtz', properties = ['dipole'])
--------------------------------------------------------------------------

    Molecular point group: c1
  Charge       = 0
  Multiplicity = 1
  Basis Set: AUG-CC-PVTZ
    Blend: AUG-CC-PVTZ
  Basis Set: (AUG-CC-PVTZ AUX)
    Blend: AUG-CC-PVTZ-JKFIT

    Orbital Energies [Eh]
    ---------------------

    Doubly Occupied:

       1A    -15.649131     2A    -15.601451     3A    -11.288913
       4A    -11.285981     5A    -11.260890     6A    -11.246323
       7A    -11.244216     8A    -11.244009     9A    -11.238315
      10A    -11.238122    11A    -11.237032    12A     -1.367840
      13A     -1.172830    14A     -1.103969    15A     -1.062717
      16A     -1.022435    17A     -0.993135    18A     -0.859293
      19A     -0.845530    20A     -0.801507    21A     -0.777186
      22A     -0.741359    23A     -0.685962    24A     -0.647135
      25A     -0.638479    26A     -0.610929    27A     -0.600490
      28A     -0.595242    29A     -0.583501    30A     -0.567863
      31A     -0.516405    32A     -0.508463    33A     -0.505205
      34A     -0.466165    35A     -0.393923    36A     -0.352637
      37A     -0.344902    38A     -0.307561

  @DF-RHF Final Energy:  -454.47247720062211

   => Energetics <=

    Nuclear Repulsion Energy =            544.3387092057836298
    One-Electron Energy =               -1694.4082799807231368
    Two-Electron Energy =                 695.5970935743175687
    Total Energy =                       -454.4724772006220519
  Basis Set: (AUG-CC-PVTZ AUX)
    Blend: AUG-CC-PVTZ-RI
    Molecular point group: c1

    Geometry (in Angstrom), charge = 0, multiplicity = 1:

       Center              X                  Y                   Z               Mass
    ------------   -----------------  -----------------  -----------------  -----------------
         N            0.993857395192     0.037702465890     0.002794277462    14.003074004430
         N            1.681738395192    -1.052254534110    -0.415984722538    14.003074004430
         C           -0.424435604808     0.020765465890    -0.006112722538    12.000000000000
         C           -1.130453604808     1.201101465890    -0.252066722538    12.000000000000
         C           -1.090985604808    -1.182136534110     0.240795277462    12.000000000000
         C            1.850107795192     1.138414465890     0.441603177462    12.000000000000
         C           -2.525308604808     1.176407465890    -0.228431722538    12.000000000000
         C           -2.484876604808    -1.194863534110     0.238990277462    12.000000000000
         C            3.109706395192     0.602743465890     0.239802277462    12.000000000000
         C           -3.205626604808    -0.018322534110     0.016003277462    12.000000000000
         C            2.973704395192    -0.700749534110    -0.266866722538    12.000000000000
         H           -0.596939604808     2.117848465890    -0.488154722538     1.007825032230
         H           -0.510670604808    -2.081757534110     0.418106277462     1.007825032230
         H            1.414510395192     1.975775465890     0.811378277462     1.007825032230
         H           -3.079757604808     2.091656465890    -0.420067722538     1.007825032230
         H           -3.010240604808    -2.127846534110     0.427121277462     1.007825032230
         H            4.019862395192     1.139836465890     0.467265277462     1.007825032230
         H           -4.292359604808    -0.034335534110     0.024112277462     1.007825032230
         H            3.745125395192    -1.407746534110    -0.543866722538     1.007825032230

  Basis Set: AUG-CC-PVTZ
    Blend: AUG-CC-PVTZ
  Basis Set: (AUG-CC-PVTZ AUX)
    Blend: AUG-CC-PVTZ-JKFIT
	 Reference Energy          =    -454.4724772006221087 [Eh]
	 Singles Energy            =      -0.0000000000000000 [Eh]
	 Same-Spin Energy          =      -0.5106901174653549 [Eh]
	 Opposite-Spin Energy      =      -1.5510185771332794 [Eh]
	 Correlation Energy        =      -2.0617086945986340 [Eh]
	 Total Energy              =    -456.5341858952207303 [Eh]

	 ================> DF-SCS-MP2 Energies <==================
	-----------------------------------------------------------
	 SCS Same-Spin Scale       =       0.3333333333333333 [-]
	 SCS Opposite-Spin Scale   =       1.2000000000000000 [-]
	 SCS Same-Spin Energy      =      -0.1702300391551183 [Eh]
	 SCS Opposite-Spin Energy  =      -1.8612222925599351 [Eh]
	 SCS Correlation Energy    =      -2.0314523317150535 [Eh]
	 SCS Total Energy          =    -456.5039295323371675 [Eh]
	-----------------------------------------------------------

  Dipole Moment: [D]
     X:    -0.6756      Y:     1.6244      Z:     0.7386     Total:     1.9080

*** Psi4 exiting successfully. Buy a developer a beer!
