                               Psi4 1.3.2 release

  ==> Input File <==

--------------------------------------------------------------------------
#psi4
#
memory 32 gb

molecule  {
0 1
  N        1.0119030     0.0333230     0.0008060
  N        1.6997840    -1.0566340    -0.4179730
  C       -0.2843679     0.0936202    -0.0312011
  C       -1.1124080     1.1967220    -0.2540550
  C       -1.0729400    -1.1865160     0.2388070
  C        1.8312940     1.0508850     0.4071570
  C       -2.5072630     1.1720280    -0.2304200
  C       -2.4668310    -1.1992430     0.2370020
  C        3.1277520     0.5983640     0.2378140
  C       -3.1875810    -0.0227020     0.0140150
  C        2.9917500    -0.7051290    -0.2688550
  H       -0.5788940     2.1134690    -0.4901430
  H       -0.4926250    -2.0861370     0.4161180
  H        1.4325560     1.9713960     0.8093900
  H       -3.0617120     2.0872770    -0.4220560
  H       -2.9921950    -2.1322260     0.4251330
  H        4.0379080     1.1354570     0.4652770
  H       -4.2743140    -0.0387150     0.0221240
  H        3.7631710    -1.4121260    -0.5458550
units angstrom
no_reorient  #important for SAPT in psi4, default
symmetry c1  #important for SAPT in psi4, default
}

set PROPERTIES_ORIGIN ["COM"]
properties('MP2/aug-cc-pvtz', properties = ['dipole'])
--------------------------------------------------------------------------

    Molecular point group: c1
  Charge       = 0
  Multiplicity = 1
  Basis Set: AUG-CC-PVTZ
    Blend: AUG-CC-PVTZ
  Basis Set: (AUG-CC-PVTZ AUX)
    Blend: AUG-CC-PVTZ-JKFIT

    Orbital Energies [Eh]
    ---------------------

    Doubly Occupied:

       1A    -15.657366     2A    -15.598906     3A    -11.294204
       4A    -11.289509     5A    -11.269865     6A    -11.247062
       7A    -11.244199     8A    -11.242255     9A    -11.240312
      10A    -11.236367    11A    -11.236183    12A     -1.406656
      13A     -1.181798    14A     -1.120813    15A     -1.073046
      16A     -1.016277    17A     -0.986933    18A     -0.880822
      19A     -0.846752    20A     -0.800502    21A     -0.777931
      22A     -0.746794    23A     -0.685135    24A     -0.657047
      25A     -0.645508    26A     -0.621248    27A     -0.604291
      28A     -0.593560    29A     -0.579643    30A     -0.569766
      31A     -0.524355    32A     -0.499329    33A     -0.487436
      34A     -0.465783    35A     -0.405839    36A     -0.357503
      37A     -0.342290    38A     -0.295977

  @DF-RHF Final Energy:  -454.46025729968261

   => Energetics <=

    Nuclear Repulsion Energy =            546.7813499795681764
    One-Electron Energy =               -1699.0246895608790965
    Two-Electron Energy =                 697.7830822816282534
    Total Energy =                       -454.4602572996826666
  Basis Set: (AUG-CC-PVTZ AUX)
    Blend: AUG-CC-PVTZ-RI
    Molecular point group: c1

    Geometry (in Angstrom), charge = 0, multiplicity = 1:

       Center              X                  Y                   Z               Mass
    ------------   -----------------  -----------------  -----------------  -----------------
         N            0.986763890096     0.038195213976     0.007421901482    14.003074004430
         N            1.674644890096    -1.051761786024    -0.411357098518    14.003074004430
         C           -0.309507009904     0.098492413976    -0.024585198518    12.000000000000
         C           -1.137547109904     1.201594213976    -0.247439098518    12.000000000000
         C           -1.098079109904    -1.181643786024     0.245422901482    12.000000000000
         C            1.806154890096     1.055757213976     0.413772901482    12.000000000000
         C           -2.532402109904     1.176900213976    -0.223804098518    12.000000000000
         C           -2.491970109904    -1.194370786024     0.243617901482    12.000000000000
         C            3.102612890096     0.603236213976     0.244429901482    12.000000000000
         C           -3.212720109904    -0.017829786024     0.020630901482    12.000000000000
         C            2.966610890096    -0.700256786024    -0.262239098518    12.000000000000
         H           -0.604033109904     2.118341213976    -0.483527098518     1.007825032230
         H           -0.517764109904    -2.081264786024     0.422733901482     1.007825032230
         H            1.407416890096     1.976268213976     0.816005901482     1.007825032230
         H           -3.086851109904     2.092149213976    -0.415440098518     1.007825032230
         H           -3.017334109904    -2.127353786024     0.431748901482     1.007825032230
         H            4.012768890096     1.140329213976     0.471892901482     1.007825032230
         H           -4.299453109904    -0.033842786024     0.028739901482     1.007825032230
         H            3.738031890096    -1.407253786024    -0.539239098518     1.007825032230

  Basis Set: AUG-CC-PVTZ
    Blend: AUG-CC-PVTZ
  Basis Set: (AUG-CC-PVTZ AUX)
    Blend: AUG-CC-PVTZ-JKFIT
	 Reference Energy          =    -454.4602572996826098 [Eh]
	 Singles Energy            =      -0.0000000000000000 [Eh]
	 Same-Spin Energy          =      -0.5108145353673803 [Eh]
	 Opposite-Spin Energy      =      -1.5503445475325992 [Eh]
	 Correlation Energy        =      -2.0611590828999793 [Eh]
	 Total Energy              =    -456.5214163825825722 [Eh]

	 ================> DF-SCS-MP2 Energies <==================
	-----------------------------------------------------------
	 SCS Same-Spin Scale       =       0.3333333333333333 [-]
	 SCS Opposite-Spin Scale   =       1.2000000000000000 [-]
	 SCS Same-Spin Energy      =      -0.1702715117891268 [Eh]
	 SCS Opposite-Spin Energy  =      -1.8604134570391189 [Eh]
	 SCS Correlation Energy    =      -2.0306849688282456 [Eh]
	 SCS Total Energy          =    -456.4909422685108780 [Eh]
	-----------------------------------------------------------

  Dipole Moment: [D]
     X:    -0.1630      Y:     1.6374      Z:     0.7299     Total:     1.8001

*** Psi4 exiting successfully. Buy a developer a beer!
