                               Psi4 1.4a3.dev225

  ==> Input File <==

--------------------------------------------------------------------------
#psi4
#
memory 32 gb

molecule  {
0 1
  N        1.0119030     0.0333230     0.0008060
  N        1.6997840    -1.0566340    -0.4179730
  C       -0.3863918     0.0166248    -0.0079754
  C       -1.1124080     1.1967220    -0.2540550
  C       -1.0729400    -1.1865160     0.2388070
  C        1.8312940     1.0508850     0.4071570
  C       -2.5072630     1.1720280    -0.2304200
  C       -2.4668310    -1.1992430     0.2370020
  C        3.1277520     0.5983640     0.2378140
  C       -3.1875810    -0.0227020     0.0140150
  C        2.9917500    -0.7051290    -0.2688550
  H       -0.5788940     2.1134690    -0.4901430
  H       -0.4926250    -2.0861370     0.4161180
  H        1.4325560     1.9713960     0.8093900
  H       -3.0617120     2.0872770    -0.4220560
  H       -2.9921950    -2.1322260     0.4251330
  H        4.0379080     1.1354570     0.4652770
  H       -4.2743140    -0.0387150     0.0221240
  H        3.7631710    -1.4121260    -0.5458550
units angstrom
no_reorient  #important for SAPT in psi4, default
symmetry c1  #important for SAPT in psi4, default
}

set PROPERTIES_ORIGIN ["COM"]
properties('MP2/aug-cc-pvtz', properties = ['dipole'])
--------------------------------------------------------------------------

    Molecular point group: c1
  Charge       = 0
  Multiplicity = 1
  Basis Set: AUG-CC-PVTZ
    Blend: AUG-CC-PVTZ
  Basis Set: (AUG-CC-PVTZ AUX)
    Blend: AUG-CC-PVTZ-JKFIT

    Orbital Energies [Eh]
    ---------------------

    Doubly Occupied:

       1A    -15.652882     2A    -15.591864     3A    -11.292029
       4A    -11.283862     5A    -11.261093     6A    -11.247825
       7A    -11.246619     8A    -11.245291     9A    -11.241115
      10A    -11.240210    11A    -11.229407    12A     -1.385973
      13A     -1.174752    14A     -1.112783    15A     -1.065583
      16A     -1.022562    17A     -0.996715    18A     -0.863742
      19A     -0.847178    20A     -0.797976    21A     -0.777904
      22A     -0.743391    23A     -0.686579    24A     -0.649600
      25A     -0.640300    26A     -0.616198    27A     -0.596554
      28A     -0.595119    29A     -0.589178    30A     -0.564789
      31A     -0.521268    32A     -0.508694    33A     -0.504215
      34A     -0.463919    35A     -0.396632    36A     -0.350854
      37A     -0.345616    38A     -0.310591

  @DF-RHF Final Energy:  -454.48739888353572

   => Energetics <=

    Nuclear Repulsion Energy =            546.4136033140097197
    One-Electron Energy =               -1698.4802867759824494
    Two-Electron Energy =                 697.5792845784370684
    Total Energy =                       -454.4873988835357750
  Basis Set: (AUG-CC-PVTZ AUX)
    Blend: AUG-CC-PVTZ-RI
    Molecular point group: c1

    Geometry (in Angstrom), charge = 0, multiplicity = 1:

       Center              X                  Y                   Z               Mass
    ------------   -----------------  -----------------  -----------------  -----------------
         N            0.995261824691     0.044608435519     0.005487350073    14.003074004430
         N            1.683142824691    -1.045348564481    -0.413291649927    14.003074004430
         C           -0.403032975309     0.027910235519    -0.003294049927    12.000000000000
         C           -1.129049175309     1.208007435519    -0.249373649927    12.000000000000
         C           -1.089581175309    -1.175230564481     0.243488350073    12.000000000000
         C            1.814652824691     1.062170435519     0.411838350073    12.000000000000
         C           -2.523904175309     1.183313435519    -0.225738649927    12.000000000000
         C           -2.483472175309    -1.187957564481     0.241683350073    12.000000000000
         C            3.111110824691     0.609649435519     0.242495350073    12.000000000000
         C           -3.204222175309    -0.011416564481     0.018696350073    12.000000000000
         C            2.975108824691    -0.693843564481    -0.264173649927    12.000000000000
         H           -0.595535175309     2.124754435519    -0.485461649927     1.007825032230
         H           -0.509266175309    -2.074851564481     0.420799350073     1.007825032230
         H            1.415914824691     1.982681435519     0.814071350073     1.007825032230
         H           -3.078353175309     2.098562435519    -0.417374649927     1.007825032230
         H           -3.008836175309    -2.120940564481     0.429814350073     1.007825032230
         H            4.021266824691     1.146742435519     0.469958350073     1.007825032230
         H           -4.290955175309    -0.027429564481     0.026805350073     1.007825032230
         H            3.746529824691    -1.400840564481    -0.541173649927     1.007825032230

  Basis Set: AUG-CC-PVTZ
    Blend: AUG-CC-PVTZ
  Basis Set: (AUG-CC-PVTZ AUX)
    Blend: AUG-CC-PVTZ-JKFIT
	 Reference Energy          =    -454.4873988835357181 [Eh]
	 Singles Energy            =      -0.0000000000000000 [Eh]
	 Same-Spin Energy          =      -0.5097932083087937 [Eh]
	 Opposite-Spin Energy      =      -1.5480958409452970 [Eh]
	 Correlation Energy        =      -2.0578890492540909 [Eh]
	 Total Energy              =    -456.5452879327897904 [Eh]

	 ================> DF-SCS-MP2 Energies <==================
	-----------------------------------------------------------
	 SCS Same-Spin Scale       =       0.3333333333333333 [-]
	 SCS Opposite-Spin Scale   =       1.2000000000000000 [-]
	 SCS Same-Spin Energy      =      -0.1699310694362646 [Eh]
	 SCS Opposite-Spin Energy  =      -1.8577150091343562 [Eh]
	 SCS Correlation Energy    =      -2.0276460785706205 [Eh]
	 SCS Total Energy          =    -456.5150449621063444 [Eh]
	-----------------------------------------------------------

  Dipole Moment: [D]
     X:    -0.7694      Y:     1.6373      Z:     0.7398     Total:     1.9545

*** Psi4 exiting successfully. Buy a developer a beer!
