                               Psi4 1.3.2 release

  ==> Input File <==

--------------------------------------------------------------------------
#psi4
#
memory 32 gb

molecule  {
0 1
  N        1.0119030     0.0333230     0.0008060
  N        1.8180671    -0.9836361    -0.3896501
  C       -0.4063900     0.0163860    -0.0081010
  C       -1.1124080     1.1967220    -0.2540550
  C       -1.0729400    -1.1865160     0.2388070
  C        1.8312940     1.0508850     0.4071570
  C       -2.5072630     1.1720280    -0.2304200
  C       -2.4668310    -1.1992430     0.2370020
  C        3.1277520     0.5983640     0.2378140
  C       -3.1875810    -0.0227020     0.0140150
  C        2.9917500    -0.7051290    -0.2688550
  H       -0.5788940     2.1134690    -0.4901430
  H       -0.4926250    -2.0861370     0.4161180
  H        1.4325560     1.9713960     0.8093900
  H       -3.0617120     2.0872770    -0.4220560
  H       -2.9921950    -2.1322260     0.4251330
  H        4.0379080     1.1354570     0.4652770
  H       -4.2743140    -0.0387150     0.0221240
  H        3.7631710    -1.4121260    -0.5458550
units angstrom
no_reorient  #important for SAPT in psi4, default
symmetry c1  #important for SAPT in psi4, default
}

set PROPERTIES_ORIGIN ["COM"]
properties('MP2/aug-cc-pvtz', properties = ['dipole'])
--------------------------------------------------------------------------

    Molecular point group: c1
  Charge       = 0
  Multiplicity = 1
  Basis Set: AUG-CC-PVTZ
    Blend: AUG-CC-PVTZ
  Basis Set: (AUG-CC-PVTZ AUX)
    Blend: AUG-CC-PVTZ-JKFIT

    Orbital Energies [Eh]
    ---------------------

    Doubly Occupied:

       1A    -15.643644     2A    -15.572211     3A    -11.295150
       4A    -11.278382     5A    -11.249103     6A    -11.247462
       7A    -11.246862     8A    -11.242374     9A    -11.241759
      10A    -11.241165    11A    -11.219665    12A     -1.397553
      13A     -1.191260    14A     -1.131236    15A     -1.053768
      16A     -1.025659    17A     -1.000940    18A     -0.860645
      19A     -0.852200    20A     -0.806847    21A     -0.774149
      22A     -0.739538    23A     -0.688884    24A     -0.653565
      25A     -0.648515    26A     -0.619941    27A     -0.606153
      28A     -0.597715    29A     -0.587109    30A     -0.569426
      31A     -0.521545    32A     -0.514914    33A     -0.507676
      34A     -0.436560    35A     -0.410240    36A     -0.352819
      37A     -0.347772    38A     -0.312108

  @DF-RHF Final Energy:  -454.47706531349655

   => Energetics <=

    Nuclear Repulsion Energy =            548.3008655438169399
    One-Electron Energy =               -1702.1828351209587709
    Two-Electron Energy =                 699.4049042636451077
    Total Energy =                       -454.4770653134966096
  Basis Set: (AUG-CC-PVTZ AUX)
    Blend: AUG-CC-PVTZ-RI
    Molecular point group: c1

    Geometry (in Angstrom), charge = 0, multiplicity = 1:

       Center              X                  Y                   Z               Mass
    ------------   -----------------  -----------------  -----------------  -----------------
         N            0.985430764036     0.037533137037     0.002744906139    14.003074004430
         N            1.791594864036    -0.979425962963    -0.387711193861    14.003074004430
         C           -0.432862235964     0.020596137037    -0.006162093861    12.000000000000
         C           -1.138880235964     1.200932137037    -0.252116093861    12.000000000000
         C           -1.099412235964    -1.182305862963     0.240745906139    12.000000000000
         C            1.804821764036     1.055095137037     0.409095906139    12.000000000000
         C           -2.533735235964     1.176238137037    -0.228481093861    12.000000000000
         C           -2.493303235964    -1.195032862963     0.238940906139    12.000000000000
         C            3.101279764036     0.602574137037     0.239752906139    12.000000000000
         C           -3.214053235964    -0.018491862963     0.015953906139    12.000000000000
         C            2.965277764036    -0.700918862963    -0.266916093861    12.000000000000
         H           -0.605366235964     2.117679137037    -0.488204093861     1.007825032230
         H           -0.519097235964    -2.081926862963     0.418056906139     1.007825032230
         H            1.406083764036     1.975606137037     0.811328906139     1.007825032230
         H           -3.088184235964     2.091487137037    -0.420117093861     1.007825032230
         H           -3.018667235964    -2.128015862963     0.427071906139     1.007825032230
         H            4.011435764036     1.139667137037     0.467215906139     1.007825032230
         H           -4.300786235964    -0.034504862963     0.024062906139     1.007825032230
         H            3.736698764036    -1.407915862963    -0.543916093861     1.007825032230

  Basis Set: AUG-CC-PVTZ
    Blend: AUG-CC-PVTZ
  Basis Set: (AUG-CC-PVTZ AUX)
    Blend: AUG-CC-PVTZ-JKFIT
	 Reference Energy          =    -454.4770653134965528 [Eh]
	 Singles Energy            =      -0.0000000000000000 [Eh]
	 Same-Spin Energy          =      -0.5060466083303771 [Eh]
	 Opposite-Spin Energy      =      -1.5408483383037923 [Eh]
	 Correlation Energy        =      -2.0468949466341693 [Eh]
	 Total Energy              =    -456.5239602601307070 [Eh]

	 ================> DF-SCS-MP2 Energies <==================
	-----------------------------------------------------------
	 SCS Same-Spin Scale       =       0.3333333333333333 [-]
	 SCS Opposite-Spin Scale   =       1.2000000000000000 [-]
	 SCS Same-Spin Energy      =      -0.1686822027767924 [Eh]
	 SCS Opposite-Spin Energy  =      -1.8490180059645507 [Eh]
	 SCS Correlation Energy    =      -2.0177002087413429 [Eh]
	 SCS Total Energy          =    -456.4947655222379126 [Eh]
	-----------------------------------------------------------

  Dipole Moment: [D]
     X:    -0.9910      Y:     1.3879      Z:     0.6347     Total:     1.8197

*** Psi4 exiting successfully. Buy a developer a beer!
