                               Psi4 1.3.2 release

  ==> Input File <==

--------------------------------------------------------------------------
#psi4
#
memory 32 gb

molecule  {
0 1
  N        1.0119030     0.0333230     0.0008060
  N        1.6166632    -1.0983820    -0.4351657
  C       -0.4063900     0.0163860    -0.0081010
  C       -1.1124080     1.1967220    -0.2540550
  C       -1.0729400    -1.1865160     0.2388070
  C        1.8312940     1.0508850     0.4071570
  C       -2.5072630     1.1720280    -0.2304200
  C       -2.4668310    -1.1992430     0.2370020
  C        3.1277520     0.5983640     0.2378140
  C       -3.1875810    -0.0227020     0.0140150
  C        2.9917500    -0.7051290    -0.2688550
  H       -0.5788940     2.1134690    -0.4901430
  H       -0.4926250    -2.0861370     0.4161180
  H        1.4325560     1.9713960     0.8093900
  H       -3.0617120     2.0872770    -0.4220560
  H       -2.9921950    -2.1322260     0.4251330
  H        4.0379080     1.1354570     0.4652770
  H       -4.2743140    -0.0387150     0.0221240
  H        3.7631710    -1.4121260    -0.5458550
units angstrom
no_reorient  #important for SAPT in psi4, default
symmetry c1  #important for SAPT in psi4, default
}

set PROPERTIES_ORIGIN ["COM"]
properties('MP2/aug-cc-pvtz', properties = ['dipole'])
--------------------------------------------------------------------------

    Molecular point group: c1
  Charge       = 0
  Multiplicity = 1
  Basis Set: AUG-CC-PVTZ
    Blend: AUG-CC-PVTZ
  Basis Set: (AUG-CC-PVTZ AUX)
    Blend: AUG-CC-PVTZ-JKFIT

    Orbital Energies [Eh]
    ---------------------

    Doubly Occupied:

       1A    -15.658130     2A    -15.600618     3A    -11.289765
       4A    -11.284937     5A    -11.269311     6A    -11.247667
       7A    -11.246291     8A    -11.245399     9A    -11.240835
      10A    -11.240451    11A    -11.233747    12A     -1.376719
      13A     -1.169760    14A     -1.096247    15A     -1.071218
      16A     -1.023698    17A     -0.995566    18A     -0.860907
      19A     -0.845913    20A     -0.793309    21A     -0.778158
      22A     -0.743030    23A     -0.686171    24A     -0.647981
      25A     -0.636139    26A     -0.613660    27A     -0.596414
      28A     -0.593115    29A     -0.583605    30A     -0.560153
      31A     -0.519291    32A     -0.508910    33A     -0.505849
      34A     -0.472169    35A     -0.390626    36A     -0.347716
      37A     -0.343756    38A     -0.311731

  @DF-RHF Final Energy:  -454.47009951098971

   => Energetics <=

    Nuclear Repulsion Energy =            545.3984132643861358
    One-Electron Energy =               -1696.4791023253576441
    Two-Electron Energy =                 696.6105895499817962
    Total Energy =                       -454.4700995109897121
  Basis Set: (AUG-CC-PVTZ AUX)
    Blend: AUG-CC-PVTZ-RI
    Molecular point group: c1

    Geometry (in Angstrom), charge = 0, multiplicity = 1:

       Center              X                  Y                   Z               Mass
    ------------   -----------------  -----------------  -----------------  -----------------
         N            1.005006652286     0.048686113299     0.007168893456    14.003074004430
         N            1.609766852286    -1.083018886701    -0.428802806544    14.003074004430
         C           -0.413286347714     0.031749113299    -0.001738106544    12.000000000000
         C           -1.119304347714     1.212085113299    -0.247692106544    12.000000000000
         C           -1.079836347714    -1.171152886701     0.245169893456    12.000000000000
         C            1.824397652286     1.066248113299     0.413519893456    12.000000000000
         C           -2.514159347714     1.187391113299    -0.224057106544    12.000000000000
         C           -2.473727347714    -1.183879886701     0.243364893456    12.000000000000
         C            3.120855652286     0.613727113299     0.244176893456    12.000000000000
         C           -3.194477347714    -0.007338886701     0.020377893456    12.000000000000
         C            2.984853652286    -0.689765886701    -0.262492106544    12.000000000000
         H           -0.585790347714     2.128832113299    -0.483780106544     1.007825032230
         H           -0.499521347714    -2.070773886701     0.422480893456     1.007825032230
         H            1.425659652286     1.986759113299     0.815752893456     1.007825032230
         H           -3.068608347714     2.102640113299    -0.415693106544     1.007825032230
         H           -2.999091347714    -2.116862886701     0.431495893456     1.007825032230
         H            4.031011652286     1.150820113299     0.471639893456     1.007825032230
         H           -4.281210347714    -0.023351886701     0.028486893456     1.007825032230
         H            3.756274652286    -1.396762886701    -0.539492106544     1.007825032230

  Basis Set: AUG-CC-PVTZ
    Blend: AUG-CC-PVTZ
  Basis Set: (AUG-CC-PVTZ AUX)
    Blend: AUG-CC-PVTZ-JKFIT
	 Reference Energy          =    -454.4700995109897121 [Eh]
	 Singles Energy            =      -0.0000000000000000 [Eh]
	 Same-Spin Energy          =      -0.5126885285550531 [Eh]
	 Opposite-Spin Energy      =      -1.5541457132021108 [Eh]
	 Correlation Energy        =      -2.0668342417571637 [Eh]
	 Total Energy              =    -456.5369337527469042 [Eh]

	 ================> DF-SCS-MP2 Energies <==================
	-----------------------------------------------------------
	 SCS Same-Spin Scale       =       0.3333333333333333 [-]
	 SCS Opposite-Spin Scale   =       1.2000000000000000 [-]
	 SCS Same-Spin Energy      =      -0.1708961761850177 [Eh]
	 SCS Opposite-Spin Energy  =      -1.8649748558425330 [Eh]
	 SCS Correlation Energy    =      -2.0358710320275506 [Eh]
	 SCS Total Energy          =    -456.5059705430172698 [Eh]
	-----------------------------------------------------------

  Dipole Moment: [D]
     X:    -0.8166      Y:     1.7555      Z:     0.7885     Total:     2.0905

*** Psi4 exiting successfully. Buy a developer a beer!
