                               Psi4 1.3.2 release

  ==> Input File <==

--------------------------------------------------------------------------
#psi4
#
memory 32 gb

molecule  {
0 1
  N        1.0119030     0.0333230     0.0008060
  N        1.6997840    -1.0566340    -0.4179730
  C       -0.4058419    -0.0066088    -0.0172546
  C       -1.1124080     1.1967220    -0.2540550
  C       -1.0729400    -1.1865160     0.2388070
  C        1.8312940     1.0508850     0.4071570
  C       -2.5072630     1.1720280    -0.2304200
  C       -2.4668310    -1.1992430     0.2370020
  C        3.1277520     0.5983640     0.2378140
  C       -3.1875810    -0.0227020     0.0140150
  C        2.9917500    -0.7051290    -0.2688550
  H       -0.5788940     2.1134690    -0.4901430
  H       -0.4926250    -2.0861370     0.4161180
  H        1.4325560     1.9713960     0.8093900
  H       -3.0617120     2.0872770    -0.4220560
  H       -2.9921950    -2.1322260     0.4251330
  H        4.0379080     1.1354570     0.4652770
  H       -4.2743140    -0.0387150     0.0221240
  H        3.7631710    -1.4121260    -0.5458550
units angstrom
no_reorient  #important for SAPT in psi4, default
symmetry c1  #important for SAPT in psi4, default
}

set PROPERTIES_ORIGIN ["COM"]
properties('MP2/aug-cc-pvtz', properties = ['dipole'])
--------------------------------------------------------------------------

    Molecular point group: c1
  Charge       = 0
  Multiplicity = 1
  Basis Set: AUG-CC-PVTZ
    Blend: AUG-CC-PVTZ
  Basis Set: (AUG-CC-PVTZ AUX)
    Blend: AUG-CC-PVTZ-JKFIT

    Orbital Energies [Eh]
    ---------------------

    Doubly Occupied:

       1A    -15.651799     2A    -15.590318     3A    -11.291674
       4A    -11.283006     5A    -11.259397     6A    -11.249001
       7A    -11.247546     8A    -11.246290     9A    -11.240912
      10A    -11.239042    11A    -11.228222    12A     -1.382566
      13A     -1.175216    14A     -1.109942    15A     -1.064634
      16A     -1.024414    17A     -0.998097    18A     -0.861069
      19A     -0.847557    20A     -0.797669    21A     -0.777184
      22A     -0.742755    23A     -0.686835    24A     -0.649172
      25A     -0.639708    26A     -0.615699    27A     -0.597249
      28A     -0.594136    29A     -0.588453    30A     -0.563709
      31A     -0.520683    32A     -0.510657    33A     -0.506315
      34A     -0.463060    35A     -0.394879    36A     -0.349966
      37A     -0.346284    38A     -0.313062

  @DF-RHF Final Energy:  -454.48732611652474

   => Energetics <=

    Nuclear Repulsion Energy =            546.3744893654054522
    One-Electron Energy =               -1698.4272793728221131
    Two-Electron Energy =                 697.5654638908919196
    Total Energy =                       -454.4873261165247413
  Basis Set: (AUG-CC-PVTZ AUX)
    Blend: AUG-CC-PVTZ-RI
    Molecular point group: c1

    Geometry (in Angstrom), charge = 0, multiplicity = 1:

       Center              X                  Y                   Z               Mass
    ------------   -----------------  -----------------  -----------------  -----------------
         N            0.996881892907     0.046543644948     0.006260247744    14.003074004430
         N            1.684762892907    -1.043413355052    -0.412518752256    14.003074004430
         C           -0.420863007093     0.006611844948    -0.011800352256    12.000000000000
         C           -1.127429107093     1.209942644948    -0.248600752256    12.000000000000
         C           -1.087961107093    -1.173295355052     0.244261247744    12.000000000000
         C            1.816272892907     1.064105644948     0.412611247744    12.000000000000
         C           -2.522284107093     1.185248644948    -0.224965752256    12.000000000000
         C           -2.481852107093    -1.186022355052     0.242456247744    12.000000000000
         C            3.112730892907     0.611584644948     0.243268247744    12.000000000000
         C           -3.202602107093    -0.009481355052     0.019469247744    12.000000000000
         C            2.976728892907    -0.691908355052    -0.263400752256    12.000000000000
         H           -0.593915107093     2.126689644948    -0.484688752256     1.007825032230
         H           -0.507646107093    -2.072916355052     0.421572247744     1.007825032230
         H            1.417534892907     1.984616644948     0.814844247744     1.007825032230
         H           -3.076733107093     2.100497644948    -0.416601752256     1.007825032230
         H           -3.007216107093    -2.119005355052     0.430587247744     1.007825032230
         H            4.022886892907     1.148677644948     0.470731247744     1.007825032230
         H           -4.289335107093    -0.025494355052     0.027578247744     1.007825032230
         H            3.748149892907    -1.398905355052    -0.540400752256     1.007825032230

  Basis Set: AUG-CC-PVTZ
    Blend: AUG-CC-PVTZ
  Basis Set: (AUG-CC-PVTZ AUX)
    Blend: AUG-CC-PVTZ-JKFIT
	 Reference Energy          =    -454.4873261165247413 [Eh]
	 Singles Energy            =      -0.0000000000000000 [Eh]
	 Same-Spin Energy          =      -0.5096927156937303 [Eh]
	 Opposite-Spin Energy      =      -1.5480073407192891 [Eh]
	 Correlation Energy        =      -2.0577000564130197 [Eh]
	 Total Energy              =    -456.5450261729377530 [Eh]

	 ================> DF-SCS-MP2 Energies <==================
	-----------------------------------------------------------
	 SCS Same-Spin Scale       =       0.3333333333333333 [-]
	 SCS Opposite-Spin Scale   =       1.2000000000000000 [-]
	 SCS Same-Spin Energy      =      -0.1698975718979101 [Eh]
	 SCS Opposite-Spin Energy  =      -1.8576088088631468 [Eh]
	 SCS Correlation Energy    =      -2.0275063807610572 [Eh]
	 SCS Total Energy          =    -456.5148324972857949 [Eh]
	-----------------------------------------------------------

  Dipole Moment: [D]
     X:    -0.8859      Y:     1.6343      Z:     0.7425     Total:     2.0018

*** Psi4 exiting successfully. Buy a developer a beer!
