                               Psi4 1.3.2 release

  ==> Input File <==

--------------------------------------------------------------------------
#psi4
#
memory 32 gb

molecule  {
0 1
  N        1.0119030     0.0333230     0.0008060
  N        1.6997840    -1.0566340    -0.4179730
  C       -0.4063900     0.0163860    -0.0081010
  C       -1.1124080     1.1967220    -0.2540550
  C       -1.0729400    -1.1865160     0.2388070
  C        1.8312940     1.0508850     0.4071570
  C       -2.5072630     1.1720280    -0.2304200
  C       -2.4668310    -1.1992430     0.2370020
  C        3.1277520     0.5983640     0.2378140
  C       -3.1875810    -0.0227020     0.0140150
  C        2.8945473    -0.6923849    -0.2660580
  H       -0.5788940     2.1134690    -0.4901430
  H       -0.4926250    -2.0861370     0.4161180
  H        1.4325560     1.9713960     0.8093900
  H       -3.0617120     2.0872770    -0.4220560
  H       -2.9921950    -2.1322260     0.4251330
  H        4.0379080     1.1354570     0.4652770
  H       -4.2743140    -0.0387150     0.0221240
  H        3.7631710    -1.4121260    -0.5458550
units angstrom
no_reorient  #important for SAPT in psi4, default
symmetry c1  #important for SAPT in psi4, default
}

set PROPERTIES_ORIGIN ["COM"]
properties('MP2/aug-cc-pvtz', properties = ['dipole'])
--------------------------------------------------------------------------

    Molecular point group: c1
  Charge       = 0
  Multiplicity = 1
  Basis Set: AUG-CC-PVTZ
    Blend: AUG-CC-PVTZ
  Basis Set: (AUG-CC-PVTZ AUX)
    Blend: AUG-CC-PVTZ-JKFIT

    Orbital Energies [Eh]
    ---------------------

    Doubly Occupied:

       1A    -15.645518     2A    -15.584877     3A    -11.290724
       4A    -11.285468     5A    -11.257536     6A    -11.247466
       7A    -11.245473     8A    -11.245363     9A    -11.239842
      10A    -11.239601    11A    -11.225838    12A     -1.398650
      13A     -1.181959    14A     -1.121497    15A     -1.069646
      16A     -1.024184    17A     -0.996163    18A     -0.858687
      19A     -0.846544    20A     -0.800643    21A     -0.772397
      22A     -0.746226    23A     -0.685543    24A     -0.651081
      25A     -0.638230    26A     -0.621251    27A     -0.598206
      28A     -0.595676    29A     -0.591071    30A     -0.546897
      31A     -0.519199    32A     -0.511613    33A     -0.506931
      34A     -0.464851    35A     -0.401636    36A     -0.359213
      37A     -0.346287    38A     -0.311432

  @DF-RHF Final Energy:  -454.48034304039260

   => Energetics <=

    Nuclear Repulsion Energy =            548.6260674198738343
    One-Electron Energy =               -1702.8659763409293646
    Two-Electron Energy =                 699.7595658806628762
    Total Energy =                       -454.4803430403926541
  Basis Set: (AUG-CC-PVTZ AUX)
    Blend: AUG-CC-PVTZ-RI
    Molecular point group: c1

    Geometry (in Angstrom), charge = 0, multiplicity = 1:

       Center              X                  Y                   Z               Mass
    ------------   -----------------  -----------------  -----------------  -----------------
         N            1.005023905760     0.043566824470     0.005264839637    14.003074004430
         N            1.692904905760    -1.046390175530    -0.413514160363    14.003074004430
         C           -0.413269094240     0.026629824470    -0.003642160363    12.000000000000
         C           -1.119287094240     1.206965824470    -0.249596160363    12.000000000000
         C           -1.079819094240    -1.176272175530     0.243265839637    12.000000000000
         C            1.824414905760     1.061128824470     0.411615839637    12.000000000000
         C           -2.514142094240     1.182271824470    -0.225961160363    12.000000000000
         C           -2.473710094240    -1.188999175530     0.241460839637    12.000000000000
         C            3.120872905760     0.608607824470     0.242272839637    12.000000000000
         C           -3.194460094240    -0.012458175530     0.018473839637    12.000000000000
         C            2.887668205760    -0.682141075530    -0.261599160363    12.000000000000
         H           -0.585773094240     2.123712824470    -0.485684160363     1.007825032230
         H           -0.499504094240    -2.075893175530     0.420576839637     1.007825032230
         H            1.425676905760     1.981639824470     0.813848839637     1.007825032230
         H           -3.068591094240     2.097520824470    -0.417597160363     1.007825032230
         H           -2.999074094240    -2.121982175530     0.429591839637     1.007825032230
         H            4.031028905760     1.145700824470     0.469735839637     1.007825032230
         H           -4.281193094240    -0.028471175530     0.026582839637     1.007825032230
         H            3.756291905760    -1.401882175530    -0.541396160363     1.007825032230

  Basis Set: AUG-CC-PVTZ
    Blend: AUG-CC-PVTZ
  Basis Set: (AUG-CC-PVTZ AUX)
    Blend: AUG-CC-PVTZ-JKFIT
	 Reference Energy          =    -454.4803430403925972 [Eh]
	 Singles Energy            =      -0.0000000000000000 [Eh]
	 Same-Spin Energy          =      -0.5077823824562460 [Eh]
	 Opposite-Spin Energy      =      -1.5443246598194134 [Eh]
	 Correlation Energy        =      -2.0521070422756593 [Eh]
	 Total Energy              =    -456.5324500826682765 [Eh]

	 ================> DF-SCS-MP2 Energies <==================
	-----------------------------------------------------------
	 SCS Same-Spin Scale       =       0.3333333333333333 [-]
	 SCS Opposite-Spin Scale   =       1.2000000000000000 [-]
	 SCS Same-Spin Energy      =      -0.1692607941520820 [Eh]
	 SCS Opposite-Spin Energy  =      -1.8531895917832959 [Eh]
	 SCS Correlation Energy    =      -2.0224503859353780 [Eh]
	 SCS Total Energy          =    -456.5027934263279690 [Eh]
	-----------------------------------------------------------

  Dipole Moment: [D]
     X:    -0.8109      Y:     1.6663      Z:     0.7485     Total:     1.9986

*** Psi4 exiting successfully. Buy a developer a beer!
