                               Psi4 1.3.2 release

  ==> Input File <==

--------------------------------------------------------------------------
#psi4
#
memory 32 gb

molecule  {
0 1
  N        1.0119030     0.0333230     0.0008060
  N        1.6997840    -1.0566340    -0.4179730
  C       -0.3063991     0.0175801    -0.0074730
  C       -1.1124080     1.1967220    -0.2540550
  C       -1.0729400    -1.1865160     0.2388070
  C        1.8312940     1.0508850     0.4071570
  C       -2.5072630     1.1720280    -0.2304200
  C       -2.4668310    -1.1992430     0.2370020
  C        3.1277520     0.5983640     0.2378140
  C       -3.1875810    -0.0227020     0.0140150
  C        2.9917500    -0.7051290    -0.2688550
  H       -0.5788940     2.1134690    -0.4901430
  H       -0.4926250    -2.0861370     0.4161180
  H        1.4325560     1.9713960     0.8093900
  H       -3.0617120     2.0872770    -0.4220560
  H       -2.9921950    -2.1322260     0.4251330
  H        4.0379080     1.1354570     0.4652770
  H       -4.2743140    -0.0387150     0.0221240
  H        3.7631710    -1.4121260    -0.5458550
units angstrom
no_reorient  #important for SAPT in psi4, default
symmetry c1  #important for SAPT in psi4, default
}

set PROPERTIES_ORIGIN ["COM"]
properties('MP2/aug-cc-pvtz', properties = ['dipole'])
--------------------------------------------------------------------------

    Molecular point group: c1
  Charge       = 0
  Multiplicity = 1
  Basis Set: AUG-CC-PVTZ
    Blend: AUG-CC-PVTZ
  Basis Set: (AUG-CC-PVTZ AUX)
    Blend: AUG-CC-PVTZ-JKFIT

    Orbital Energies [Eh]
    ---------------------

    Doubly Occupied:

       1A    -15.656346     2A    -15.596369     3A    -11.293837
       4A    -11.289286     5A    -11.267330     6A    -11.247837
       7A    -11.244470     8A    -11.242800     9A    -11.241365
      10A    -11.236764    11A    -11.235168    12A     -1.402209
      13A     -1.177341    14A     -1.119610    15A     -1.072603
      16A     -1.015463    17A     -0.990045    18A     -0.877319
      19A     -0.845652    20A     -0.799544    21A     -0.778412
      22A     -0.746710    23A     -0.684900    24A     -0.655029
      25A     -0.644191    26A     -0.620241    27A     -0.600900
      28A     -0.593074    29A     -0.584508    30A     -0.569078
      31A     -0.523291    32A     -0.500734    33A     -0.492920
      34A     -0.466916    35A     -0.403615    36A     -0.356030
      37A     -0.342104    38A     -0.299540

  @DF-RHF Final Energy:  -454.47331209705550

   => Energetics <=

    Nuclear Repulsion Energy =            546.7094848772397881
    One-Electron Energy =               -1698.9384894389074816
    Two-Electron Energy =                 697.7556924646122525
    Total Energy =                       -454.4733120970555547
  Basis Set: (AUG-CC-PVTZ AUX)
    Blend: AUG-CC-PVTZ-RI
    Molecular point group: c1

    Geometry (in Angstrom), charge = 0, multiplicity = 1:

       Center              X                  Y                   Z               Mass
    ------------   -----------------  -----------------  -----------------  -----------------
         N            0.988598947339     0.044528865174     0.005445503385    14.003074004430
         N            1.676479947339    -1.045428134826    -0.413333496615    14.003074004430
         C           -0.329703152661     0.028785965174    -0.002833496615    12.000000000000
         C           -1.135712052661     1.207927865174    -0.249415496615    12.000000000000
         C           -1.096244052661    -1.175310134826     0.243446503385    12.000000000000
         C            1.807989947339     1.062090865174     0.411796503385    12.000000000000
         C           -2.530567052661     1.183233865174    -0.225780496615    12.000000000000
         C           -2.490135052661    -1.188037134826     0.241641503385    12.000000000000
         C            3.104447947339     0.609569865174     0.242453503385    12.000000000000
         C           -3.210885052661    -0.011496134826     0.018654503385    12.000000000000
         C            2.968445947339    -0.693923134826    -0.264215496615    12.000000000000
         H           -0.602198052661     2.124674865174    -0.485503496615     1.007825032230
         H           -0.515929052661    -2.074931134826     0.420757503385     1.007825032230
         H            1.409251947339     1.982601865174     0.814029503385     1.007825032230
         H           -3.085016052661     2.098482865174    -0.417416496615     1.007825032230
         H           -3.015499052661    -2.121020134826     0.429772503385     1.007825032230
         H            4.014603947339     1.146662865174     0.469916503385     1.007825032230
         H           -4.297618052661    -0.027509134826     0.026763503385     1.007825032230
         H            3.739866947339    -1.400920134826    -0.541215496615     1.007825032230

  Basis Set: AUG-CC-PVTZ
    Blend: AUG-CC-PVTZ
  Basis Set: (AUG-CC-PVTZ AUX)
    Blend: AUG-CC-PVTZ-JKFIT
	 Reference Energy          =    -454.4733120970554978 [Eh]
	 Singles Energy            =      -0.0000000000000000 [Eh]
	 Same-Spin Energy          =      -0.5107017800368312 [Eh]
	 Opposite-Spin Energy      =      -1.5495778762365067 [Eh]
	 Correlation Energy        =      -2.0602796562733379 [Eh]
	 Total Energy              =    -456.5335917533288352 [Eh]

	 ================> DF-SCS-MP2 Energies <==================
	-----------------------------------------------------------
	 SCS Same-Spin Scale       =       0.3333333333333333 [-]
	 SCS Opposite-Spin Scale   =       1.2000000000000000 [-]
	 SCS Same-Spin Energy      =      -0.1702339266789437 [Eh]
	 SCS Opposite-Spin Energy  =      -1.8594934514838080 [Eh]
	 SCS Correlation Energy    =      -2.0297273781627516 [Eh]
	 SCS Total Energy          =    -456.5030394752182588 [Eh]
	-----------------------------------------------------------

  Dipole Moment: [D]
     X:    -0.2976      Y:     1.6340      Z:     0.7438     Total:     1.8198

*** Psi4 exiting successfully. Buy a developer a beer!
