                               Psi4 1.4a3.dev225

  ==> Input File <==

--------------------------------------------------------------------------
#psi4
#
memory 32 gb

molecule  {
0 1
  N        1.0119030     0.0333230     0.0008060
  N        1.6744047    -1.0164201    -0.4025222
  C       -0.4063900     0.0163860    -0.0081010
  C       -1.1124080     1.1967220    -0.2540550
  C       -1.0729400    -1.1865160     0.2388070
  C        1.8312940     1.0508850     0.4071570
  C       -2.5072630     1.1720280    -0.2304200
  C       -2.4668310    -1.1992430     0.2370020
  C        3.1277520     0.5983640     0.2378140
  C       -3.1875810    -0.0227020     0.0140150
  C        2.9917500    -0.7051290    -0.2688550
  H       -0.5788940     2.1134690    -0.4901430
  H       -0.4926250    -2.0861370     0.4161180
  H        1.4325560     1.9713960     0.8093900
  H       -3.0617120     2.0872770    -0.4220560
  H       -2.9921950    -2.1322260     0.4251330
  H        4.0379080     1.1354570     0.4652770
  H       -4.2743140    -0.0387150     0.0221240
  H        3.7631710    -1.4121260    -0.5458550
units angstrom
no_reorient  #important for SAPT in psi4, default
symmetry c1  #important for SAPT in psi4, default
}

set PROPERTIES_ORIGIN ["COM"]
properties('MP2/aug-cc-pvtz', properties = ['dipole'])
--------------------------------------------------------------------------

    Molecular point group: c1
  Charge       = 0
  Multiplicity = 1
  Basis Set: AUG-CC-PVTZ
    Blend: AUG-CC-PVTZ
  Basis Set: (AUG-CC-PVTZ AUX)
    Blend: AUG-CC-PVTZ-JKFIT

    Orbital Energies [Eh]
    ---------------------

    Doubly Occupied:

       1A    -15.655763     2A    -15.587485     3A    -11.292413
       4A    -11.276044     5A    -11.256705     6A    -11.249172
       7A    -11.247930     8A    -11.246892     9A    -11.242537
      10A    -11.242271    11A    -11.228297    12A     -1.402117
      13A     -1.176044    14A     -1.107426    15A     -1.066226
      16A     -1.025236    17A     -1.000526    18A     -0.862728
      19A     -0.849730    20A     -0.801802    21A     -0.776233
      22A     -0.742335    23A     -0.688012    24A     -0.652982
      25A     -0.642579    26A     -0.619886    27A     -0.599714
      28A     -0.597942    29A     -0.589781    30A     -0.562240
      31A     -0.521690    32A     -0.512032    33A     -0.507536
      34A     -0.457500    35A     -0.392979    36A     -0.348789
      37A     -0.345051    38A     -0.313993

  @DF-RHF Final Energy:  -454.48733584106481

   => Energetics <=

    Nuclear Repulsion Energy =            547.6396446274688969
    One-Electron Energy =               -1700.8767254402373510
    Two-Electron Energy =                 698.7497449717036488
    Total Energy =                       -454.4873358410648052
  Basis Set: (AUG-CC-PVTZ AUX)
    Blend: AUG-CC-PVTZ-RI
    Molecular point group: c1

    Geometry (in Angstrom), charge = 0, multiplicity = 1:

       Center              X                  Y                   Z               Mass
    ------------   -----------------  -----------------  -----------------  -----------------
         N            0.999394342140     0.040719648919     0.003996037776    14.003074004430
         N            1.661896042140    -1.009023451081    -0.399332162224    14.003074004430
         C           -0.418898657860     0.023782648919    -0.004910962224    12.000000000000
         C           -1.124916657860     1.204118648919    -0.250864962224    12.000000000000
         C           -1.085448657860    -1.179119351081     0.241997037776    12.000000000000
         C            1.818785342140     1.058281648919     0.410347037776    12.000000000000
         C           -2.519771657860     1.179424648919    -0.227229962224    12.000000000000
         C           -2.479339657860    -1.191846351081     0.240192037776    12.000000000000
         C            3.115243342140     0.605760648919     0.241004037776    12.000000000000
         C           -3.200089657860    -0.015305351081     0.017205037776    12.000000000000
         C            2.979241342140    -0.697732351081    -0.265664962224    12.000000000000
         H           -0.591402657860     2.120865648919    -0.486952962224     1.007825032230
         H           -0.505133657860    -2.078740351081     0.419308037776     1.007825032230
         H            1.420047342140     1.978792648919     0.812580037776     1.007825032230
         H           -3.074220657860     2.094673648919    -0.418865962224     1.007825032230
         H           -3.004703657860    -2.124829351081     0.428323037776     1.007825032230
         H            4.025399342140     1.142853648919     0.468467037776     1.007825032230
         H           -4.286822657860    -0.031318351081     0.025314037776     1.007825032230
         H            3.750662342140    -1.404729351081    -0.542664962224     1.007825032230

  Basis Set: AUG-CC-PVTZ
    Blend: AUG-CC-PVTZ
  Basis Set: (AUG-CC-PVTZ AUX)
    Blend: AUG-CC-PVTZ-JKFIT
	 Reference Energy          =    -454.4873358410648052 [Eh]
	 Singles Energy            =      -0.0000000000000000 [Eh]
	 Same-Spin Energy          =      -0.5099680967408393 [Eh]
	 Opposite-Spin Energy      =      -1.5471854286361144 [Eh]
	 Correlation Energy        =      -2.0571535253769540 [Eh]
	 Total Energy              =    -456.5444893664417805 [Eh]

	 ================> DF-SCS-MP2 Energies <==================
	-----------------------------------------------------------
	 SCS Same-Spin Scale       =       0.3333333333333333 [-]
	 SCS Opposite-Spin Scale   =       1.2000000000000000 [-]
	 SCS Same-Spin Energy      =      -0.1699893655802798 [Eh]
	 SCS Opposite-Spin Energy  =      -1.8566225143633373 [Eh]
	 SCS Correlation Energy    =      -2.0266118799436170 [Eh]
	 SCS Total Energy          =    -456.5139477210084351 [Eh]
	-----------------------------------------------------------

  Dipole Moment: [D]
     X:    -0.9578      Y:     1.5898      Z:     0.7189     Total:     1.9903

*** Psi4 exiting successfully. Buy a developer a beer!
