                               Psi4 1.3.2 release

  ==> Input File <==

--------------------------------------------------------------------------
#psi4
#
memory 32 gb

molecule  {
0 1
  N        1.0119030     0.0333230     0.0008060
  N        1.6997840    -1.0566340    -0.4179730
  C       -0.4063900     0.0163860    -0.0081010
  C       -1.1124080     1.1967220    -0.2540550
  C       -1.0729400    -1.1865160     0.2388070
  C        1.8007618     0.9660880     0.3724681
  C       -2.5072630     1.1720280    -0.2304200
  C       -2.4668310    -1.1992430     0.2370020
  C        3.1277520     0.5983640     0.2378140
  C       -3.1875810    -0.0227020     0.0140150
  C        2.9917500    -0.7051290    -0.2688550
  H       -0.5788940     2.1134690    -0.4901430
  H       -0.4926250    -2.0861370     0.4161180
  H        1.4325560     1.9713960     0.8093900
  H       -3.0617120     2.0872770    -0.4220560
  H       -2.9921950    -2.1322260     0.4251330
  H        4.0379080     1.1354570     0.4652770
  H       -4.2743140    -0.0387150     0.0221240
  H        3.7631710    -1.4121260    -0.5458550
units angstrom
no_reorient  #important for SAPT in psi4, default
symmetry c1  #important for SAPT in psi4, default
}

set PROPERTIES_ORIGIN ["COM"]
properties('MP2/aug-cc-pvtz', properties = ['dipole'])
--------------------------------------------------------------------------

    Molecular point group: c1
  Charge       = 0
  Multiplicity = 1
  Basis Set: AUG-CC-PVTZ
    Blend: AUG-CC-PVTZ
  Basis Set: (AUG-CC-PVTZ AUX)
    Blend: AUG-CC-PVTZ-JKFIT

    Orbital Energies [Eh]
    ---------------------

    Doubly Occupied:

       1A    -15.652750     2A    -15.580009     3A    -11.294754
       4A    -11.280040     5A    -11.258709     6A    -11.250578
       7A    -11.249315     8A    -11.247884     9A    -11.244133
      10A    -11.243793    11A    -11.220384    12A     -1.403050
      13A     -1.178711    14A     -1.118734    15A     -1.066296
      16A     -1.026702    17A     -1.003480    18A     -0.866317
      19A     -0.850596    20A     -0.803044    21A     -0.773882
      22A     -0.737796    23A     -0.687771    24A     -0.656060
      25A     -0.642384    26A     -0.623102    27A     -0.603999
      28A     -0.599272    29A     -0.586906    30A     -0.540311
      31A     -0.523876    32A     -0.513283    33A     -0.508866
      34A     -0.457865    35A     -0.397668    36A     -0.349426
      37A     -0.346544    38A     -0.317481

  @DF-RHF Final Energy:  -454.47961690992747

   => Energetics <=

    Nuclear Repulsion Energy =            548.5340838605628733
    One-Electron Energy =               -1702.6158613371262618
    Two-Electron Energy =                 699.6021605666358028
    Total Energy =                       -454.4796169099274721
  Basis Set: (AUG-CC-PVTZ AUX)
    Blend: AUG-CC-PVTZ-RI
    Molecular point group: c1

    Geometry (in Angstrom), charge = 0, multiplicity = 1:

       Center              X                  Y                   Z               Mass
    ------------   -----------------  -----------------  -----------------  -----------------
         N            0.999470681972     0.051691370661     0.008387173977    14.003074004430
         N            1.687351681972    -1.038265629339    -0.410391826023    14.003074004430
         C           -0.418822318028     0.034754370661    -0.000519826023    12.000000000000
         C           -1.124840318028     1.215090370661    -0.246473826023    12.000000000000
         C           -1.085372318028    -1.168147629339     0.246388173977    12.000000000000
         C            1.788329481972     0.984456370661     0.380049273977    12.000000000000
         C           -2.519695318028     1.190396370661    -0.222838826023    12.000000000000
         C           -2.479263318028    -1.180874629339     0.244583173977    12.000000000000
         C            3.115319681972     0.616732370661     0.245395173977    12.000000000000
         C           -3.200013318028    -0.004333629339     0.021596173977    12.000000000000
         C            2.979317681972    -0.686760629339    -0.261273826023    12.000000000000
         H           -0.591326318028     2.131837370661    -0.482561826023     1.007825032230
         H           -0.505057318028    -2.067768629339     0.423699173977     1.007825032230
         H            1.420123681972     1.989764370661     0.816971173977     1.007825032230
         H           -3.074144318028     2.105645370661    -0.414474826023     1.007825032230
         H           -3.004627318028    -2.113857629339     0.432714173977     1.007825032230
         H            4.025475681972     1.153825370661     0.472858173977     1.007825032230
         H           -4.286746318028    -0.020346629339     0.029705173977     1.007825032230
         H            3.750738681972    -1.393757629339    -0.538273826023     1.007825032230

  Basis Set: AUG-CC-PVTZ
    Blend: AUG-CC-PVTZ
  Basis Set: (AUG-CC-PVTZ AUX)
    Blend: AUG-CC-PVTZ-JKFIT
	 Reference Energy          =    -454.4796169099274721 [Eh]
	 Singles Energy            =      -0.0000000000000000 [Eh]
	 Same-Spin Energy          =      -0.5089238176892406 [Eh]
	 Opposite-Spin Energy      =      -1.5457006896966421 [Eh]
	 Correlation Energy        =      -2.0546245073858826 [Eh]
	 Total Energy              =    -456.5342414173133534 [Eh]

	 ================> DF-SCS-MP2 Energies <==================
	-----------------------------------------------------------
	 SCS Same-Spin Scale       =       0.3333333333333333 [-]
	 SCS Opposite-Spin Scale   =       1.2000000000000000 [-]
	 SCS Same-Spin Energy      =      -0.1696412725630802 [Eh]
	 SCS Opposite-Spin Energy  =      -1.8548408276359705 [Eh]
	 SCS Correlation Energy    =      -2.0244821001990507 [Eh]
	 SCS Total Energy          =    -456.5040990101265379 [Eh]
	-----------------------------------------------------------

  Dipole Moment: [D]
     X:    -1.1122      Y:     1.6404      Z:     0.7352     Total:     2.1139

*** Psi4 exiting successfully. Buy a developer a beer!
