                               Psi4 1.3.2 release

  ==> Input File <==

--------------------------------------------------------------------------
#psi4
#
memory 32 gb

molecule  {
0 1
  N        1.0119457     0.0090629     0.0057353
  N        1.6997840    -1.0566340    -0.4179730
  C       -0.4063900     0.0163860    -0.0081010
  C       -1.1124080     1.1967220    -0.2540550
  C       -1.0729400    -1.1865160     0.2388070
  C        1.8312940     1.0508850     0.4071570
  C       -2.5072630     1.1720280    -0.2304200
  C       -2.4668310    -1.1992430     0.2370020
  C        3.1277520     0.5983640     0.2378140
  C       -3.1875810    -0.0227020     0.0140150
  C        2.9917500    -0.7051290    -0.2688550
  H       -0.5788940     2.1134690    -0.4901430
  H       -0.4926250    -2.0861370     0.4161180
  H        1.4325560     1.9713960     0.8093900
  H       -3.0617120     2.0872770    -0.4220560
  H       -2.9921950    -2.1322260     0.4251330
  H        4.0379080     1.1354570     0.4652770
  H       -4.2743140    -0.0387150     0.0221240
  H        3.7631710    -1.4121260    -0.5458550
units angstrom
no_reorient  #important for SAPT in psi4, default
symmetry c1  #important for SAPT in psi4, default
}

set PROPERTIES_ORIGIN ["COM"]
properties('MP2/aug-cc-pvtz', properties = ['dipole'])
--------------------------------------------------------------------------

    Molecular point group: c1
  Charge       = 0
  Multiplicity = 1
  Basis Set: AUG-CC-PVTZ
    Blend: AUG-CC-PVTZ
  Basis Set: (AUG-CC-PVTZ AUX)
    Blend: AUG-CC-PVTZ-JKFIT

    Orbital Energies [Eh]
    ---------------------

    Doubly Occupied:

       1A    -15.652822     2A    -15.591614     3A    -11.291641
       4A    -11.281915     5A    -11.258208     6A    -11.248540
       7A    -11.247200     8A    -11.245894     9A    -11.241028
      10A    -11.240635    11A    -11.229398    12A     -1.386741
      13A     -1.175768    14A     -1.108781    15A     -1.064112
      16A     -1.024492    17A     -0.998203    18A     -0.860610
      19A     -0.848133    20A     -0.798037    21A     -0.777390
      22A     -0.742048    23A     -0.686904    24A     -0.649547
      25A     -0.640485    26A     -0.616246    27A     -0.597534
      28A     -0.596316    29A     -0.588270    30A     -0.563282
      31A     -0.520180    32A     -0.510990    33A     -0.507113
      34A     -0.462749    35A     -0.394261    36A     -0.349913
      37A     -0.346336    38A     -0.312537

  @DF-RHF Final Energy:  -454.48742967570638

   => Energetics <=

    Nuclear Repulsion Energy =            546.4249044879777557
    One-Electron Energy =               -1698.5129226783092236
    Two-Electron Energy =                 697.6005885146250876
    Total Energy =                       -454.4874296757063803
  Basis Set: (AUG-CC-PVTZ AUX)
    Blend: AUG-CC-PVTZ-RI
    Molecular point group: c1

    Geometry (in Angstrom), charge = 0, multiplicity = 1:

       Center              X                  Y                   Z               Mass
    ------------   -----------------  -----------------  -----------------  -----------------
         N            0.996966095793     0.022726238984     0.009947997756    14.003074004430
         N            1.684804395793    -1.042970661016    -0.413760302244    14.003074004430
         C           -0.421369604207     0.030049338984    -0.003888302244    12.000000000000
         C           -1.127387604207     1.210385338984    -0.249842302244    12.000000000000
         C           -1.087919604207    -1.172852661016     0.243019697756    12.000000000000
         C            1.816314395793     1.064548338984     0.411369697756    12.000000000000
         C           -2.522242604207     1.185691338984    -0.226207302244    12.000000000000
         C           -2.481810604207    -1.185579661016     0.241214697756    12.000000000000
         C            3.112772395793     0.612027338984     0.242026697756    12.000000000000
         C           -3.202560604207    -0.009038661016     0.018227697756    12.000000000000
         C            2.976770395793    -0.691465661016    -0.264642302244    12.000000000000
         H           -0.593873604207     2.127132338984    -0.485930302244     1.007825032230
         H           -0.507604604207    -2.072473661016     0.420330697756     1.007825032230
         H            1.417576395793     1.985059338984     0.813602697756     1.007825032230
         H           -3.076691604207     2.100940338984    -0.417843302244     1.007825032230
         H           -3.007174604207    -2.118562661016     0.429345697756     1.007825032230
         H            4.022928395793     1.149120338984     0.469489697756     1.007825032230
         H           -4.289293604207    -0.025051661016     0.026336697756     1.007825032230
         H            3.748191395793    -1.398462661016    -0.541642302244     1.007825032230

  Basis Set: AUG-CC-PVTZ
    Blend: AUG-CC-PVTZ
  Basis Set: (AUG-CC-PVTZ AUX)
    Blend: AUG-CC-PVTZ-JKFIT
	 Reference Energy          =    -454.4874296757063803 [Eh]
	 Singles Energy            =      -0.0000000000000000 [Eh]
	 Same-Spin Energy          =      -0.5098234220984008 [Eh]
	 Opposite-Spin Energy      =      -1.5479532923504178 [Eh]
	 Correlation Energy        =      -2.0577767144488188 [Eh]
	 Total Energy              =    -456.5452063901552151 [Eh]

	 ================> DF-SCS-MP2 Energies <==================
	-----------------------------------------------------------
	 SCS Same-Spin Scale       =       0.3333333333333333 [-]
	 SCS Opposite-Spin Scale   =       1.2000000000000000 [-]
	 SCS Same-Spin Energy      =      -0.1699411406994669 [Eh]
	 SCS Opposite-Spin Energy  =      -1.8575439508205012 [Eh]
	 SCS Correlation Energy    =      -2.0274850915199680 [Eh]
	 SCS Total Energy          =    -456.5149147672263439 [Eh]
	-----------------------------------------------------------

  Dipole Moment: [D]
     X:    -0.8867      Y:     1.6462      Z:     0.7363     Total:     2.0095

*** Psi4 exiting successfully. Buy a developer a beer!
