                               Psi4 1.3.2 release

  ==> Input File <==

--------------------------------------------------------------------------
#psi4
#
memory 32 gb

molecule  {
0 1
  N        1.0119030     0.0333230     0.0008060
  N        1.6997840    -1.0566340    -0.4179730
  C       -0.4063900     0.0163860    -0.0081010
  C       -1.1124080     1.1967220    -0.2540550
  C       -1.0729400    -1.1865160     0.2388070
  C        1.8312940     1.0508850     0.4071570
  C       -2.5072630     1.1720280    -0.2304200
  C       -2.4668310    -1.1992430     0.2370020
  C        3.2249750     0.5864324     0.2329211
  C       -3.1875810    -0.0227020     0.0140150
  C        2.9917500    -0.7051290    -0.2688550
  H       -0.5788940     2.1134690    -0.4901430
  H       -0.4926250    -2.0861370     0.4161180
  H        1.4325560     1.9713960     0.8093900
  H       -3.0617120     2.0872770    -0.4220560
  H       -2.9921950    -2.1322260     0.4251330
  H        4.0379080     1.1354570     0.4652770
  H       -4.2743140    -0.0387150     0.0221240
  H        3.7631710    -1.4121260    -0.5458550
units angstrom
no_reorient  #important for SAPT in psi4, default
symmetry c1  #important for SAPT in psi4, default
}

set PROPERTIES_ORIGIN ["COM"]
properties('MP2/aug-cc-pvtz', properties = ['dipole'])
--------------------------------------------------------------------------

    Molecular point group: c1
  Charge       = 0
  Multiplicity = 1
  Basis Set: AUG-CC-PVTZ
    Blend: AUG-CC-PVTZ
  Basis Set: (AUG-CC-PVTZ AUX)
    Blend: AUG-CC-PVTZ-JKFIT

    Orbital Energies [Eh]
    ---------------------

    Doubly Occupied:

       1A    -15.659427     2A    -15.586919     3A    -11.294260
       4A    -11.293653     5A    -11.261735     6A    -11.249835
       7A    -11.248628     8A    -11.247388     9A    -11.243191
      10A    -11.242930    11A    -11.232095    12A     -1.380508
      13A     -1.176279    14A     -1.111443    15A     -1.051940
      16A     -1.025205    17A     -1.000681    18A     -0.866542
      19A     -0.848177    20A     -0.803276    21A     -0.774872
      22A     -0.742579    23A     -0.688529    24A     -0.651505
      25A     -0.640140    26A     -0.626007    27A     -0.603557
      28A     -0.598087    29A     -0.591851    30A     -0.538627
      31A     -0.522223    32A     -0.511261    33A     -0.508796
      34A     -0.463745    35A     -0.395936    36A     -0.348513
      37A     -0.337301    38A     -0.316135

  @DF-RHF Final Energy:  -454.47272730321112

   => Energetics <=

    Nuclear Repulsion Energy =            544.5408997131166871
    One-Electron Energy =               -1694.6597003146623592
    Two-Electron Energy =                 695.6460732983344997
    Total Energy =                       -454.4727273032111725
  Basis Set: (AUG-CC-PVTZ AUX)
    Blend: AUG-CC-PVTZ-RI
    Molecular point group: c1

    Geometry (in Angstrom), charge = 0, multiplicity = 1:

       Center              X                  Y                   Z               Mass
    ------------   -----------------  -----------------  -----------------  -----------------
         N            0.988829495604     0.045622151552     0.005905358841    14.003074004430
         N            1.676710495604    -1.044334848448    -0.412873641159    14.003074004430
         C           -0.429463504396     0.028685151552    -0.003001641159    12.000000000000
         C           -1.135481504396     1.209021151552    -0.248955641159    12.000000000000
         C           -1.096013504396    -1.174216848448     0.243906358841    12.000000000000
         C            1.808220495604     1.063184151552     0.412256358841    12.000000000000
         C           -2.530336504396     1.184327151552    -0.225320641159    12.000000000000
         C           -2.489904504396    -1.186943848448     0.242101358841    12.000000000000
         C            3.201901495604     0.598731551552     0.238020458841    12.000000000000
         C           -3.210654504396    -0.010402848448     0.019114358841    12.000000000000
         C            2.968676495604    -0.692829848448    -0.263755641159    12.000000000000
         H           -0.601967504396     2.125768151552    -0.485043641159     1.007825032230
         H           -0.515698504396    -2.073837848448     0.421217358841     1.007825032230
         H            1.409482495604     1.983695151552     0.814489358841     1.007825032230
         H           -3.084785504396     2.099576151552    -0.416956641159     1.007825032230
         H           -3.015268504396    -2.119926848448     0.430232358841     1.007825032230
         H            4.014834495604     1.147756151552     0.470376358841     1.007825032230
         H           -4.297387504396    -0.026415848448     0.027223358841     1.007825032230
         H            3.740097495604    -1.399826848448    -0.540755641159     1.007825032230

  Basis Set: AUG-CC-PVTZ
    Blend: AUG-CC-PVTZ
  Basis Set: (AUG-CC-PVTZ AUX)
    Blend: AUG-CC-PVTZ-JKFIT
	 Reference Energy          =    -454.4727273032111157 [Eh]
	 Singles Energy            =      -0.0000000000000000 [Eh]
	 Same-Spin Energy          =      -0.5103972538855530 [Eh]
	 Opposite-Spin Energy      =      -1.5499283043752881 [Eh]
	 Correlation Energy        =      -2.0603255582608409 [Eh]
	 Total Energy              =    -456.5330528614719583 [Eh]

	 ================> DF-SCS-MP2 Energies <==================
	-----------------------------------------------------------
	 SCS Same-Spin Scale       =       0.3333333333333333 [-]
	 SCS Opposite-Spin Scale   =       1.2000000000000000 [-]
	 SCS Same-Spin Energy      =      -0.1701324179618510 [Eh]
	 SCS Opposite-Spin Energy  =      -1.8599139652503456 [Eh]
	 SCS Correlation Energy    =      -2.0300463832121967 [Eh]
	 SCS Total Energy          =    -456.5027736864233248 [Eh]
	-----------------------------------------------------------

  Dipole Moment: [D]
     X:    -1.0642      Y:     1.6312      Z:     0.7374     Total:     2.0825

*** Psi4 exiting successfully. Buy a developer a beer!
