                               Psi4 1.3.2 release

  ==> Input File <==

--------------------------------------------------------------------------
#psi4
#
memory 32 gb

molecule  {
0 1
  N        0.9741641     0.0606399     0.0113059
  N        1.6997840    -1.0566340    -0.4179730
  C       -0.4063900     0.0163860    -0.0081010
  C       -1.1124080     1.1967220    -0.2540550
  C       -1.0729400    -1.1865160     0.2388070
  C        1.8312940     1.0508850     0.4071570
  C       -2.5072630     1.1720280    -0.2304200
  C       -2.4668310    -1.1992430     0.2370020
  C        3.1277520     0.5983640     0.2378140
  C       -3.1875810    -0.0227020     0.0140150
  C        2.9917500    -0.7051290    -0.2688550
  H       -0.5788940     2.1134690    -0.4901430
  H       -0.4926250    -2.0861370     0.4161180
  H        1.4325560     1.9713960     0.8093900
  H       -3.0617120     2.0872770    -0.4220560
  H       -2.9921950    -2.1322260     0.4251330
  H        4.0379080     1.1354570     0.4652770
  H       -4.2743140    -0.0387150     0.0221240
  H        3.7631710    -1.4121260    -0.5458550
units angstrom
no_reorient  #important for SAPT in psi4, default
symmetry c1  #important for SAPT in psi4, default
}

set PROPERTIES_ORIGIN ["COM"]
properties('MP2/aug-cc-pvtz', properties = ['dipole'])
--------------------------------------------------------------------------

    Molecular point group: c1
  Charge       = 0
  Multiplicity = 1
  Basis Set: AUG-CC-PVTZ
    Blend: AUG-CC-PVTZ
  Basis Set: (AUG-CC-PVTZ AUX)
    Blend: AUG-CC-PVTZ-JKFIT

    Orbital Energies [Eh]
    ---------------------

    Doubly Occupied:

       1A    -15.649163     2A    -15.592047     3A    -11.288899
       4A    -11.287715     5A    -11.265232     6A    -11.246569
       7A    -11.244805     8A    -11.244148     9A    -11.239130
      10A    -11.238867    11A    -11.229671    12A     -1.370466
      13A     -1.177960    14A     -1.115154    15A     -1.060688
      16A     -1.022954    17A     -0.996550    18A     -0.866651
      19A     -0.847938    20A     -0.793422    21A     -0.778452
      22A     -0.741521    23A     -0.685296    24A     -0.649255
      25A     -0.640886    26A     -0.613482    27A     -0.599401
      28A     -0.595699    29A     -0.582507    30A     -0.565992
      31A     -0.520532    32A     -0.508853    33A     -0.505684
      34A     -0.459092    35A     -0.400432    36A     -0.350000
      37A     -0.345363    38A     -0.309522

  @DF-RHF Final Energy:  -454.48397867150510

   => Energetics <=

    Nuclear Repulsion Energy =            546.2648876801299593
    One-Electron Energy =               -1698.2377378587275416
    Two-Electron Energy =                 697.4888715070924263
    Total Energy =                       -454.4839786715051559
  Basis Set: (AUG-CC-PVTZ AUX)
    Blend: AUG-CC-PVTZ-RI
    Molecular point group: c1

    Geometry (in Angstrom), charge = 0, multiplicity = 1:

       Center              X                  Y                   Z               Mass
    ------------   -----------------  -----------------  -----------------  -----------------
         N            0.962856760230     0.069290100766     0.014977151224    14.003074004430
         N            1.688476660230    -1.047983799234    -0.414301748776    14.003074004430
         C           -0.417697339770     0.025036200766    -0.004429748776    12.000000000000
         C           -1.123715339770     1.205372200766    -0.250383748776    12.000000000000
         C           -1.084247339770    -1.177865799234     0.242478251224    12.000000000000
         C            1.819986660230     1.059535200766     0.410828251224    12.000000000000
         C           -2.518570339770     1.180678200766    -0.226748748776    12.000000000000
         C           -2.478138339770    -1.190592799234     0.240673251224    12.000000000000
         C            3.116444660230     0.607014200766     0.241485251224    12.000000000000
         C           -3.198888339770    -0.014051799234     0.017686251224    12.000000000000
         C            2.980442660230    -0.696478799234    -0.265183748776    12.000000000000
         H           -0.590201339770     2.122119200766    -0.486471748776     1.007825032230
         H           -0.503932339770    -2.077486799234     0.419789251224     1.007825032230
         H            1.421248660230     1.980046200766     0.813061251224     1.007825032230
         H           -3.073019339770     2.095927200766    -0.418384748776     1.007825032230
         H           -3.003502339770    -2.123575799234     0.428804251224     1.007825032230
         H            4.026600660230     1.144107200766     0.468948251224     1.007825032230
         H           -4.285621339770    -0.030064799234     0.025795251224     1.007825032230
         H            3.751863660230    -1.403475799234    -0.542183748776     1.007825032230

  Basis Set: AUG-CC-PVTZ
    Blend: AUG-CC-PVTZ
  Basis Set: (AUG-CC-PVTZ AUX)
    Blend: AUG-CC-PVTZ-JKFIT
	 Reference Energy          =    -454.4839786715050991 [Eh]
	 Singles Energy            =      -0.0000000000000000 [Eh]
	 Same-Spin Energy          =      -0.5097964812765272 [Eh]
	 Opposite-Spin Energy      =      -1.5489195581249637 [Eh]
	 Correlation Energy        =      -2.0587160394014909 [Eh]
	 Total Energy              =    -456.5426947109065736 [Eh]

	 ================> DF-SCS-MP2 Energies <==================
	-----------------------------------------------------------
	 SCS Same-Spin Scale       =       0.3333333333333333 [-]
	 SCS Opposite-Spin Scale   =       1.2000000000000000 [-]
	 SCS Same-Spin Energy      =      -0.1699321604255091 [Eh]
	 SCS Opposite-Spin Energy  =      -1.8587034697499565 [Eh]
	 SCS Correlation Energy    =      -2.0286356301754656 [Eh]
	 SCS Total Energy          =    -456.5126143016805713 [Eh]
	-----------------------------------------------------------

  Dipole Moment: [D]
     X:    -0.7065      Y:     1.6127      Z:     0.7373     Total:     1.9088

*** Psi4 exiting successfully. Buy a developer a beer!
