                               Psi4 1.3.2 release

  ==> Input File <==

--------------------------------------------------------------------------
#psi4
#
memory 32 gb

molecule  {
0 1
  N        1.0119030     0.0333230     0.0008060
  N        1.6997840    -1.0566340    -0.4179730
  C       -0.4063900     0.0163860    -0.0081010
  C       -1.2134704     1.3656802    -0.2892619
  C       -1.0729400    -1.1865160     0.2388070
  C        1.8312940     1.0508850     0.4071570
  C       -2.5072630     1.1720280    -0.2304200
  C       -2.4668310    -1.1992430     0.2370020
  C        3.1277520     0.5983640     0.2378140
  C       -3.1875810    -0.0227020     0.0140150
  C        2.9917500    -0.7051290    -0.2688550
  H       -0.5788940     2.1134690    -0.4901430
  H       -0.4926250    -2.0861370     0.4161180
  H        1.4325560     1.9713960     0.8093900
  H       -3.0617120     2.0872770    -0.4220560
  H       -2.9921950    -2.1322260     0.4251330
  H        4.0379080     1.1354570     0.4652770
  H       -4.2743140    -0.0387150     0.0221240
  H        3.7631710    -1.4121260    -0.5458550
units angstrom
no_reorient  #important for SAPT in psi4, default
symmetry c1  #important for SAPT in psi4, default
}

set PROPERTIES_ORIGIN ["COM"]
properties('MP2/aug-cc-pvtz', properties = ['dipole'])
--------------------------------------------------------------------------

    Molecular point group: c1
  Charge       = 0
  Multiplicity = 1
  Basis Set: AUG-CC-PVTZ
    Blend: AUG-CC-PVTZ
  Basis Set: (AUG-CC-PVTZ AUX)
    Blend: AUG-CC-PVTZ-JKFIT

    Orbital Energies [Eh]
    ---------------------

    Doubly Occupied:

       1A    -15.654539     2A    -15.591501     3A    -11.305002
       4A    -11.284045     5A    -11.261061     6A    -11.251105
       7A    -11.248606     8A    -11.240543     9A    -11.239091
      10A    -11.238048    11A    -11.229588    12A     -1.382925
      13A     -1.164991    14A     -1.112275    15A     -1.066415
      16A     -1.037717    17A     -0.985377    18A     -0.868953
      19A     -0.840089    20A     -0.800537    21A     -0.774054
      22A     -0.738347    23A     -0.704565    24A     -0.652634
      25A     -0.637739    26A     -0.614934    27A     -0.608502
      28A     -0.592657    29A     -0.578569    30A     -0.565963
      31A     -0.533996    32A     -0.505900    33A     -0.477759
      34A     -0.461579    35A     -0.394341    36A     -0.361058
      37A     -0.350308    38A     -0.299804

  @DF-RHF Final Energy:  -454.44618474799142

   => Energetics <=

    Nuclear Repulsion Energy =            543.5656072077773615
    One-Electron Energy =               -1692.7133576316414292
    Two-Electron Energy =                 694.7015656758727573
    Total Energy =                       -454.4461847479914240
  Basis Set: (AUG-CC-PVTZ AUX)
    Blend: AUG-CC-PVTZ-RI
    Molecular point group: c1

    Geometry (in Angstrom), charge = 0, multiplicity = 1:

       Center              X                  Y                   Z               Mass
    ------------   -----------------  -----------------  -----------------  -----------------
         N            1.005345393942     0.030555194796     0.008430320044    14.003074004430
         N            1.693226393942    -1.059401805204    -0.410348679956    14.003074004430
         C           -0.412947606058     0.013618194796    -0.000476679956    12.000000000000
         C           -1.220028006058     1.362912394796    -0.281637579956    12.000000000000
         C           -1.079497606058    -1.189283805204     0.246431320044    12.000000000000
         C            1.824736393942     1.048117194796     0.414781320044    12.000000000000
         C           -2.513820606058     1.169260194796    -0.222795679956    12.000000000000
         C           -2.473388606058    -1.202010805204     0.244626320044    12.000000000000
         C            3.121194393942     0.595596194796     0.245438320044    12.000000000000
         C           -3.194138606058    -0.025469805204     0.021639320044    12.000000000000
         C            2.985192393942    -0.707896805204    -0.261230679956    12.000000000000
         H           -0.585451606058     2.110701194796    -0.482518679956     1.007825032230
         H           -0.499182606058    -2.088904805204     0.423742320044     1.007825032230
         H            1.425998393942     1.968628194796     0.817014320044     1.007825032230
         H           -3.068269606058     2.084509194796    -0.414431679956     1.007825032230
         H           -2.998752606058    -2.134993805204     0.432757320044     1.007825032230
         H            4.031350393942     1.132689194796     0.472901320044     1.007825032230
         H           -4.280871606058    -0.041482805204     0.029748320044     1.007825032230
         H            3.756613393942    -1.414893805204    -0.538230679956     1.007825032230

  Basis Set: AUG-CC-PVTZ
    Blend: AUG-CC-PVTZ
  Basis Set: (AUG-CC-PVTZ AUX)
    Blend: AUG-CC-PVTZ-JKFIT
	 Reference Energy          =    -454.4461847479914240 [Eh]
	 Singles Energy            =      -0.0000000000000000 [Eh]
	 Same-Spin Energy          =      -0.5094439733182563 [Eh]
	 Opposite-Spin Energy      =      -1.5503725282377578 [Eh]
	 Correlation Energy        =      -2.0598165015560141 [Eh]
	 Total Energy              =    -456.5060012495474666 [Eh]

	 ================> DF-SCS-MP2 Energies <==================
	-----------------------------------------------------------
	 SCS Same-Spin Scale       =       0.3333333333333333 [-]
	 SCS Opposite-Spin Scale   =       1.2000000000000000 [-]
	 SCS Same-Spin Energy      =      -0.1698146577727521 [Eh]
	 SCS Opposite-Spin Energy  =      -1.8604470338853094 [Eh]
	 SCS Correlation Energy    =      -2.0302616916580614 [Eh]
	 SCS Total Energy          =    -456.4764464396494645 [Eh]
	-----------------------------------------------------------

  Dipole Moment: [D]
     X:    -0.7810      Y:     1.6182      Z:     0.7311     Total:     1.9398

*** Psi4 exiting successfully. Buy a developer a beer!
