                               Psi4 1.3.2 release

  ==> Input File <==

--------------------------------------------------------------------------
#psi4
#
memory 32 gb

molecule  {
0 1
  N        1.0119030     0.0333230     0.0008060
  N        1.6997840    -1.0566340    -0.4179730
  C       -0.4063900     0.0163860    -0.0081010
  C       -1.1124080     1.1967220    -0.2540550
  C       -1.0729400    -1.1865160     0.2388070
  C        1.8312940     1.0508850     0.4071570
  C       -2.5072630     1.1720280    -0.2304200
  C       -2.4668310    -1.1992430     0.2370020
  C        3.1277520     0.5983640     0.2378140
  C       -3.1875810    -0.0227020     0.0140150
  C        2.9917500    -0.7051290    -0.2688550
  H       -0.5788940     2.1134690    -0.4901430
  H       -0.4926250    -2.0861370     0.4161180
  H        1.4325560     1.9713960     0.8093900
  H       -3.0617120     2.0872770    -0.4220560
  H       -2.9921950    -2.1322260     0.4251330
  H        3.9537134     1.0857728     0.4442354
  H       -4.2743140    -0.0387150     0.0221240
  H        3.7631710    -1.4121260    -0.5458550
units angstrom
no_reorient  #important for SAPT in psi4, default
symmetry c1  #important for SAPT in psi4, default
}

set PROPERTIES_ORIGIN ["COM"]
properties('MP2/aug-cc-pvtz', properties = ['dipole'])
--------------------------------------------------------------------------

    Molecular point group: c1
  Charge       = 0
  Multiplicity = 1
  Basis Set: AUG-CC-PVTZ
    Blend: AUG-CC-PVTZ
  Basis Set: (AUG-CC-PVTZ AUX)
    Blend: AUG-CC-PVTZ-JKFIT

    Orbital Energies [Eh]
    ---------------------

    Doubly Occupied:

       1A    -15.651461     2A    -15.590237     3A    -11.291549
       4A    -11.282038     5A    -11.259000     6A    -11.248114
       7A    -11.246625     8A    -11.245863     9A    -11.240902
      10A    -11.240745    11A    -11.216534    12A     -1.381975
      13A     -1.175371    14A     -1.110168    15A     -1.065930
      16A     -1.024427    17A     -0.999326    18A     -0.863817
      19A     -0.848434    20A     -0.803530    21A     -0.777377
      22A     -0.745500    23A     -0.688710    24A     -0.649629
      25A     -0.642113    26A     -0.621284    27A     -0.600069
      28A     -0.596905    29A     -0.591680    30A     -0.563724
      31A     -0.520337    32A     -0.510685    33A     -0.506999
      34A     -0.462991    35A     -0.394727    36A     -0.349565
      37A     -0.346168    38A     -0.312838

  @DF-RHF Final Energy:  -454.48186466851666

   => Energetics <=

    Nuclear Repulsion Energy =            546.9152552690085258
    One-Electron Energy =               -1699.4595359083893982
    Two-Electron Energy =                 698.0624159708640946
    Total Energy =                       -454.4818646685166641
  Basis Set: (AUG-CC-PVTZ AUX)
    Blend: AUG-CC-PVTZ-RI
    Molecular point group: c1

    Geometry (in Angstrom), charge = 0, multiplicity = 1:

       Center              X                  Y                   Z               Mass
    ------------   -----------------  -----------------  -----------------  -----------------
         N            0.997516524821     0.044975889121     0.005645007104    14.003074004430
         N            1.685397524821    -1.044981110879    -0.413133992896    14.003074004430
         C           -0.420776475179     0.028038889121    -0.003261992896    12.000000000000
         C           -1.126794475179     1.208374889121    -0.249215992896    12.000000000000
         C           -1.087326475179    -1.174863110879     0.243646007104    12.000000000000
         C            1.816907524821     1.062537889121     0.411996007104    12.000000000000
         C           -2.521649475179     1.183680889121    -0.225580992896    12.000000000000
         C           -2.481217475179    -1.187590110879     0.241841007104    12.000000000000
         C            3.113365524821     0.610016889121     0.242653007104    12.000000000000
         C           -3.201967475179    -0.011049110879     0.018854007104    12.000000000000
         C            2.977363524821    -0.693476110879    -0.264015992896    12.000000000000
         H           -0.593280475179     2.125121889121    -0.485303992896     1.007825032230
         H           -0.507011475179    -2.074484110879     0.420957007104     1.007825032230
         H            1.418169524821     1.983048889121     0.814229007104     1.007825032230
         H           -3.076098475179     2.098929889121    -0.417216992896     1.007825032230
         H           -3.006581475179    -2.120573110879     0.429972007104     1.007825032230
         H            3.939326924821     1.097425689121     0.449074407104     1.007825032230
         H           -4.288700475179    -0.027062110879     0.026963007104     1.007825032230
         H            3.748784524821    -1.400473110879    -0.541015992896     1.007825032230

  Basis Set: AUG-CC-PVTZ
    Blend: AUG-CC-PVTZ
  Basis Set: (AUG-CC-PVTZ AUX)
    Blend: AUG-CC-PVTZ-JKFIT
	 Reference Energy          =    -454.4818646685166641 [Eh]
	 Singles Energy            =      -0.0000000000000000 [Eh]
	 Same-Spin Energy          =      -0.5095416919764637 [Eh]
	 Opposite-Spin Energy      =      -1.5474887832480171 [Eh]
	 Correlation Energy        =      -2.0570304752244808 [Eh]
	 Total Energy              =    -456.5388951437411720 [Eh]

	 ================> DF-SCS-MP2 Energies <==================
	-----------------------------------------------------------
	 SCS Same-Spin Scale       =       0.3333333333333333 [-]
	 SCS Opposite-Spin Scale   =       1.2000000000000000 [-]
	 SCS Same-Spin Energy      =      -0.1698472306588212 [Eh]
	 SCS Opposite-Spin Energy  =      -1.8569865398976204 [Eh]
	 SCS Correlation Energy    =      -2.0268337705564416 [Eh]
	 SCS Total Energy          =    -456.5086984390731004 [Eh]
	-----------------------------------------------------------

  Dipole Moment: [D]
     X:    -0.8811      Y:     1.6410      Z:     0.7400     Total:     2.0042

*** Psi4 exiting successfully. Buy a developer a beer!
