                               Psi4 1.3.2 release

  ==> Input File <==

--------------------------------------------------------------------------
#psi4
#
memory 32 gb

molecule  {
0 1
  N        1.0119030     0.0333230     0.0008060
  N        1.6997840    -1.0566340    -0.4179730
  C       -0.4063900     0.0163860    -0.0081010
  C       -1.1124080     1.1967220    -0.2540550
  C       -1.0729400    -1.1865160     0.2388070
  C        1.8312940     1.0508850     0.4071570
  C       -2.5072630     1.1720280    -0.2304200
  C       -2.4668310    -1.1992430     0.2370020
  C        3.1277520     0.5983640     0.2378140
  C       -3.1875810    -0.0227020     0.0140150
  C        3.0876496    -0.6790376    -0.2577863
  H       -0.5788940     2.1134690    -0.4901430
  H       -0.4926250    -2.0861370     0.4161180
  H        1.4325560     1.9713960     0.8093900
  H       -3.0617120     2.0872770    -0.4220560
  H       -2.9921950    -2.1322260     0.4251330
  H        4.0379080     1.1354570     0.4652770
  H       -4.2743140    -0.0387150     0.0221240
  H        3.7631710    -1.4121260    -0.5458550
units angstrom
no_reorient  #important for SAPT in psi4, default
symmetry c1  #important for SAPT in psi4, default
}

set PROPERTIES_ORIGIN ["COM"]
properties('MP2/aug-cc-pvtz', properties = ['dipole'])
--------------------------------------------------------------------------

    Molecular point group: c1
  Charge       = 0
  Multiplicity = 1
  Basis Set: AUG-CC-PVTZ
    Blend: AUG-CC-PVTZ
  Basis Set: (AUG-CC-PVTZ AUX)
    Blend: AUG-CC-PVTZ-JKFIT

    Orbital Energies [Eh]
    ---------------------

    Doubly Occupied:

       1A    -15.660667     2A    -15.593433     3A    -11.293143
       4A    -11.279896     5A    -11.260150     6A    -11.249788
       7A    -11.248562     8A    -11.247069     9A    -11.243091
      10A    -11.242890    11A    -11.228840    12A     -1.373130
      13A     -1.172567    14A     -1.101391    15A     -1.060473
      16A     -1.025135    17A     -1.001842    18A     -0.867170
      19A     -0.847990    20A     -0.797147    21A     -0.779063
      22A     -0.740756    23A     -0.688550    24A     -0.648672
      25A     -0.639874    26A     -0.611350    27A     -0.600899
      28A     -0.596818    29A     -0.583585    30A     -0.573788
      31A     -0.521966    32A     -0.510943    33A     -0.506997
      34A     -0.454164    35A     -0.395155    36A     -0.348385
      37A     -0.337006    38A     -0.315260

  @DF-RHF Final Energy:  -454.46961032727359

   => Energetics <=

    Nuclear Repulsion Energy =            544.7362412193222099
    One-Electron Energy =               -1695.1164957563350981
    Two-Electron Energy =                 695.9106442097393028
    Total Energy =                       -454.4696103272735854
  Basis Set: (AUG-CC-PVTZ AUX)
    Blend: AUG-CC-PVTZ-RI
    Molecular point group: c1

    Geometry (in Angstrom), charge = 0, multiplicity = 1:

       Center              X                  Y                   Z               Mass
    ------------   -----------------  -----------------  -----------------  -----------------
         N            0.988939726311     0.042455080237     0.004575860235    14.003074004430
         N            1.676820726311    -1.047501919763    -0.414203139765    14.003074004430
         C           -0.429353273689     0.025518080237    -0.004331139765    12.000000000000
         C           -1.135371273689     1.205854080237    -0.250285139765    12.000000000000
         C           -1.095903273689    -1.177383919763     0.242576860235    12.000000000000
         C            1.808330726311     1.060017080237     0.410926860235    12.000000000000
         C           -2.530226273689     1.181160080237    -0.226650139765    12.000000000000
         C           -2.489794273689    -1.190110919763     0.240771860235    12.000000000000
         C            3.104788726311     0.607496080237     0.241583860235    12.000000000000
         C           -3.210544273689    -0.013569919763     0.017784860235    12.000000000000
         C            3.064686326311    -0.669905519763    -0.254016439765    12.000000000000
         H           -0.601857273689     2.122601080237    -0.486373139765     1.007825032230
         H           -0.515588273689    -2.077004919763     0.419887860235     1.007825032230
         H            1.409592726311     1.980528080237     0.813159860235     1.007825032230
         H           -3.084675273689     2.096409080237    -0.418286139765     1.007825032230
         H           -3.015158273689    -2.123093919763     0.428902860235     1.007825032230
         H            4.014944726311     1.144589080237     0.469046860235     1.007825032230
         H           -4.297277273689    -0.029582919763     0.025893860235     1.007825032230
         H            3.740207726311    -1.402993919763    -0.542085139765     1.007825032230

  Basis Set: AUG-CC-PVTZ
    Blend: AUG-CC-PVTZ
  Basis Set: (AUG-CC-PVTZ AUX)
    Blend: AUG-CC-PVTZ-JKFIT
	 Reference Energy          =    -454.4696103272735854 [Eh]
	 Singles Energy            =      -0.0000000000000000 [Eh]
	 Same-Spin Energy          =      -0.5125409746542096 [Eh]
	 Opposite-Spin Energy      =      -1.5533823941918263 [Eh]
	 Correlation Energy        =      -2.0659233688460361 [Eh]
	 Total Energy              =    -456.5355336961196144 [Eh]

	 ================> DF-SCS-MP2 Energies <==================
	-----------------------------------------------------------
	 SCS Same-Spin Scale       =       0.3333333333333333 [-]
	 SCS Opposite-Spin Scale   =       1.2000000000000000 [-]
	 SCS Same-Spin Energy      =      -0.1708469915514032 [Eh]
	 SCS Opposite-Spin Energy  =      -1.8640588730301915 [Eh]
	 SCS Correlation Energy    =      -2.0349058645815945 [Eh]
	 SCS Total Energy          =    -456.5045161918552026 [Eh]
	-----------------------------------------------------------

  Dipole Moment: [D]
     X:    -1.0178      Y:     1.6641      Z:     0.7509     Total:     2.0902

*** Psi4 exiting successfully. Buy a developer a beer!
