                               Psi4 1.3.2 release

  ==> Input File <==

--------------------------------------------------------------------------
#psi4
#
memory 32 gb

molecule  {
0 1
  N        1.0119030     0.0333230     0.0008060
  N        1.6997840    -1.0566340    -0.4179730
  C       -0.4063900     0.0163860    -0.0081010
  C       -1.1124080     1.1967220    -0.2540550
  C       -1.0729400    -1.1865160     0.2388070
  C        1.8312940     1.0508850     0.4071570
  C       -2.5072630     1.1720280    -0.2304200
  C       -2.4668310    -1.1992430     0.2370020
  C        3.0909664     0.5172392     0.2005093
  C       -3.1875810    -0.0227020     0.0140150
  C        2.9917500    -0.7051290    -0.2688550
  H       -0.5788940     2.1134690    -0.4901430
  H       -0.4926250    -2.0861370     0.4161180
  H        1.4325560     1.9713960     0.8093900
  H       -3.0617120     2.0872770    -0.4220560
  H       -2.9921950    -2.1322260     0.4251330
  H        4.0379080     1.1354570     0.4652770
  H       -4.2743140    -0.0387150     0.0221240
  H        3.7631710    -1.4121260    -0.5458550
units angstrom
no_reorient  #important for SAPT in psi4, default
symmetry c1  #important for SAPT in psi4, default
}

set PROPERTIES_ORIGIN ["COM"]
properties('MP2/aug-cc-pvtz', properties = ['dipole'])
--------------------------------------------------------------------------

    Molecular point group: c1
  Charge       = 0
  Multiplicity = 1
  Basis Set: AUG-CC-PVTZ
    Blend: AUG-CC-PVTZ
  Basis Set: (AUG-CC-PVTZ AUX)
    Blend: AUG-CC-PVTZ-JKFIT

    Orbital Energies [Eh]
    ---------------------

    Doubly Occupied:

       1A    -15.655507     2A    -15.585895     3A    -11.291713
       4A    -11.279874     5A    -11.248967     6A    -11.247712
       7A    -11.246921     8A    -11.246435     9A    -11.241962
      10A    -11.241673    11A    -11.223783    12A     -1.386649
      13A     -1.178528    14A     -1.115006    15A     -1.065055
      16A     -1.024959    17A     -1.002811    18A     -0.866519
      19A     -0.847364    20A     -0.792456    21A     -0.781043
      22A     -0.741530    23A     -0.687164    24A     -0.649984
      25A     -0.640209    26A     -0.613455    27A     -0.600401
      28A     -0.596545    29A     -0.591213    30A     -0.551866
      31A     -0.520069    32A     -0.512151    33A     -0.506660
      34A     -0.460183    35A     -0.402521    36A     -0.347976
      37A     -0.342955    38A     -0.317364

  @DF-RHF Final Energy:  -454.47309077855743

   => Energetics <=

    Nuclear Repulsion Energy =            548.0869771137873840
    One-Electron Energy =               -1701.8139788202483942
    Two-Electron Energy =                 699.2539109279036893
    Total Energy =                       -454.4730907785574345
  Basis Set: (AUG-CC-PVTZ AUX)
    Blend: AUG-CC-PVTZ-RI
    Molecular point group: c1

    Geometry (in Angstrom), charge = 0, multiplicity = 1:

       Center              X                  Y                   Z               Mass
    ------------   -----------------  -----------------  -----------------  -----------------
         N            0.999991549966     0.051385500023     0.008605053290    14.003074004430
         N            1.687872549966    -1.038571499977    -0.410173946710    14.003074004430
         C           -0.418301450034     0.034448500023    -0.000301946710    12.000000000000
         C           -1.124319450034     1.214784500023    -0.246255946710    12.000000000000
         C           -1.084851450034    -1.168453499977     0.246606053290    12.000000000000
         C            1.819382549966     1.068947500023     0.414956053290    12.000000000000
         C           -2.519174450034     1.190090500023    -0.222620946710    12.000000000000
         C           -2.478742450034    -1.181180499977     0.244801053290    12.000000000000
         C            3.079054949966     0.535301700023     0.208308353290    12.000000000000
         C           -3.199492450034    -0.004639499977     0.021814053290    12.000000000000
         C            2.979838549966    -0.687066499977    -0.261055946710    12.000000000000
         H           -0.590805450034     2.131531500023    -0.482343946710     1.007825032230
         H           -0.504536450034    -2.068074499977     0.423917053290     1.007825032230
         H            1.420644549966     1.989458500023     0.817189053290     1.007825032230
         H           -3.073623450034     2.105339500023    -0.414256946710     1.007825032230
         H           -3.004106450034    -2.114163499977     0.432932053290     1.007825032230
         H            4.025996549966     1.153519500023     0.473076053290     1.007825032230
         H           -4.286225450034    -0.020652499977     0.029923053290     1.007825032230
         H            3.751259549966    -1.394063499977    -0.538055946710     1.007825032230

  Basis Set: AUG-CC-PVTZ
    Blend: AUG-CC-PVTZ
  Basis Set: (AUG-CC-PVTZ AUX)
    Blend: AUG-CC-PVTZ-JKFIT
	 Reference Energy          =    -454.4730907785574345 [Eh]
	 Singles Energy            =      -0.0000000000000000 [Eh]
	 Same-Spin Energy          =      -0.5110048766439834 [Eh]
	 Opposite-Spin Energy      =      -1.5491250040780269 [Eh]
	 Correlation Energy        =      -2.0601298807220103 [Eh]
	 Total Energy              =    -456.5332206592794364 [Eh]

	 ================> DF-SCS-MP2 Energies <==================
	-----------------------------------------------------------
	 SCS Same-Spin Scale       =       0.3333333333333333 [-]
	 SCS Opposite-Spin Scale   =       1.2000000000000000 [-]
	 SCS Same-Spin Energy      =      -0.1703349588813278 [Eh]
	 SCS Opposite-Spin Energy  =      -1.8589500048936323 [Eh]
	 SCS Correlation Energy    =      -2.0292849637749599 [Eh]
	 SCS Total Energy          =    -456.5023757423323900 [Eh]
	-----------------------------------------------------------

  Dipole Moment: [D]
     X:    -0.9707      Y:     1.6309      Z:     0.7431     Total:     2.0382

*** Psi4 exiting successfully. Buy a developer a beer!
