                               Psi4 1.4a3.dev225

  ==> Input File <==

--------------------------------------------------------------------------
#psi4
#
memory 32 gb

molecule  {
0 1
  N        1.0119030     0.0333230     0.0008060
  N        1.6997840    -1.0566340    -0.4179730
  C       -0.4063900     0.0163860    -0.0081010
  C       -1.1124080     1.1967220    -0.2540550
  C       -1.0729400    -1.1865160     0.2388070
  C        1.8193163     1.0360105     0.4012170
  C       -2.5072630     1.1720280    -0.2304200
  C       -2.4668310    -1.1992430     0.2370020
  C        3.1277520     0.5983640     0.2378140
  C       -3.1875810    -0.0227020     0.0140150
  C        2.9917500    -0.7051290    -0.2688550
  H       -0.5788940     2.1134690    -0.4901430
  H       -0.4926250    -2.0861370     0.4161180
  H        1.4325560     1.9713960     0.8093900
  H       -3.0617120     2.0872770    -0.4220560
  H       -2.9921950    -2.1322260     0.4251330
  H        4.0379080     1.1354570     0.4652770
  H       -4.2743140    -0.0387150     0.0221240
  H        3.7631710    -1.4121260    -0.5458550
units angstrom
no_reorient  #important for SAPT in psi4, default
symmetry c1  #important for SAPT in psi4, default
}

set PROPERTIES_ORIGIN ["COM"]
properties('MP2/aug-cc-pvtz', properties = ['dipole'])
--------------------------------------------------------------------------

    Molecular point group: c1
  Charge       = 0
  Multiplicity = 1
  Basis Set: AUG-CC-PVTZ
    Blend: AUG-CC-PVTZ
  Basis Set: (AUG-CC-PVTZ AUX)
    Blend: AUG-CC-PVTZ-JKFIT

    Orbital Energies [Eh]
    ---------------------

    Doubly Occupied:

       1A    -15.652687     2A    -15.588429     3A    -11.292318
       4A    -11.282207     5A    -11.259417     6A    -11.248736
       7A    -11.247399     8A    -11.246416     9A    -11.241720
      10A    -11.241545    11A    -11.226805    12A     -1.386215
      13A     -1.176182    14A     -1.112222    15A     -1.063633
      16A     -1.024922    17A     -0.999175    18A     -0.861668
      19A     -0.848485    20A     -0.798073    21A     -0.776964
      22A     -0.742735    23A     -0.687040    24A     -0.650232
      25A     -0.639999    26A     -0.616969    27A     -0.597764
      28A     -0.595488    29A     -0.589155    30A     -0.559766
      31A     -0.521111    32A     -0.511317    33A     -0.507420
      34A     -0.462056    35A     -0.395350    36A     -0.349011
      37A     -0.346340    38A     -0.314142

  @DF-RHF Final Energy:  -454.48840871165390

   => Energetics <=

    Nuclear Repulsion Energy =            546.7694060002952483
    One-Electron Energy =               -1699.1933992762697017
    Two-Electron Energy =                 697.9355845643206067
    Total Energy =                       -454.4884087116538467
  Basis Set: (AUG-CC-PVTZ AUX)
    Blend: AUG-CC-PVTZ-RI
    Molecular point group: c1

    Geometry (in Angstrom), charge = 0, multiplicity = 1:

       Center              X                  Y                   Z               Mass
    ------------   -----------------  -----------------  -----------------  -----------------
         N            0.997925211474     0.045867276192     0.005992575535    14.003074004430
         N            1.685806211474    -1.044089723808    -0.412786424465    14.003074004430
         C           -0.420367788526     0.028930276192    -0.002914424465    12.000000000000
         C           -1.126385788526     1.209266276192    -0.248868424465    12.000000000000
         C           -1.086917788526    -1.173971723808     0.243993575535    12.000000000000
         C            1.805338511474     1.048554776192     0.406403575535    12.000000000000
         C           -2.521240788526     1.184572276192    -0.225233424465    12.000000000000
         C           -2.480808788526    -1.186698723808     0.242188575535    12.000000000000
         C            3.113774211474     0.610908276192     0.243000575535    12.000000000000
         C           -3.201558788526    -0.010157723808     0.019201575535    12.000000000000
         C            2.977772211474    -0.692584723808    -0.263668424465    12.000000000000
         H           -0.592871788526     2.126013276192    -0.484956424465     1.007825032230
         H           -0.506602788526    -2.073592723808     0.421304575535     1.007825032230
         H            1.418578211474     1.983940276192     0.814576575535     1.007825032230
         H           -3.075689788526     2.099821276192    -0.416869424465     1.007825032230
         H           -3.006172788526    -2.119681723808     0.430319575535     1.007825032230
         H            4.023930211474     1.148001276192     0.470463575535     1.007825032230
         H           -4.288291788526    -0.026170723808     0.027310575535     1.007825032230
         H            3.749193211474    -1.399581723808    -0.540668424465     1.007825032230

  Basis Set: AUG-CC-PVTZ
    Blend: AUG-CC-PVTZ
  Basis Set: (AUG-CC-PVTZ AUX)
    Blend: AUG-CC-PVTZ-JKFIT
	 Reference Energy          =    -454.4884087116539035 [Eh]
	 Singles Energy            =      -0.0000000000000000 [Eh]
	 Same-Spin Energy          =      -0.5095470984475133 [Eh]
	 Opposite-Spin Energy      =      -1.5474537689850634 [Eh]
	 Correlation Energy        =      -2.0570008674325768 [Eh]
	 Total Energy              =    -456.5454095790864812 [Eh]

	 ================> DF-SCS-MP2 Energies <==================
	-----------------------------------------------------------
	 SCS Same-Spin Scale       =       0.3333333333333333 [-]
	 SCS Opposite-Spin Scale   =       1.2000000000000000 [-]
	 SCS Same-Spin Energy      =      -0.1698490328158378 [Eh]
	 SCS Opposite-Spin Energy  =      -1.8569445227820760 [Eh]
	 SCS Correlation Energy    =      -2.0267935555979140 [Eh]
	 SCS Total Energy          =    -456.5152022672518228 [Eh]
	-----------------------------------------------------------

  Dipole Moment: [D]
     X:    -0.9397      Y:     1.6372      Z:     0.7377     Total:     2.0267

*** Psi4 exiting successfully. Buy a developer a beer!
