                               Psi4 1.3.2 release

  ==> Input File <==

--------------------------------------------------------------------------
#psi4
#
memory 32 gb

molecule  {
0 1
  N        1.0119030     0.0333230     0.0008060
  N        1.6997840    -1.0566340    -0.4179730
  C       -0.4063900     0.0163860    -0.0081010
  C       -1.1124080     1.1967220    -0.2540550
  C       -1.0729400    -1.1865160     0.2388070
  C        1.8911825     1.1252576     0.4368568
  C       -2.5072630     1.1720280    -0.2304200
  C       -2.4668310    -1.1992430     0.2370020
  C        3.1277520     0.5983640     0.2378140
  C       -3.1875810    -0.0227020     0.0140150
  C        2.9917500    -0.7051290    -0.2688550
  H       -0.5788940     2.1134690    -0.4901430
  H       -0.4926250    -2.0861370     0.4161180
  H        1.4325560     1.9713960     0.8093900
  H       -3.0617120     2.0872770    -0.4220560
  H       -2.9921950    -2.1322260     0.4251330
  H        4.0379080     1.1354570     0.4652770
  H       -4.2743140    -0.0387150     0.0221240
  H        3.7631710    -1.4121260    -0.5458550
units angstrom
no_reorient  #important for SAPT in psi4, default
symmetry c1  #important for SAPT in psi4, default
}

set PROPERTIES_ORIGIN ["COM"]
properties('MP2/aug-cc-pvtz', properties = ['dipole'])
--------------------------------------------------------------------------

    Molecular point group: c1
  Charge       = 0
  Multiplicity = 1
  Basis Set: AUG-CC-PVTZ
    Blend: AUG-CC-PVTZ
  Basis Set: (AUG-CC-PVTZ AUX)
    Blend: AUG-CC-PVTZ-JKFIT

    Orbital Energies [Eh]
    ---------------------

    Doubly Occupied:

       1A    -15.646579     2A    -15.601768     3A    -11.288854
       4A    -11.285006     5A    -11.260691     6A    -11.245984
       7A    -11.243932     8A    -11.243540     9A    -11.237883
      10A    -11.237725    11A    -11.234915    12A     -1.367272
      13A     -1.172541    14A     -1.102932    15A     -1.066578
      16A     -1.022250    17A     -0.992711    18A     -0.858186
      19A     -0.845390    20A     -0.798605    21A     -0.777722
      22A     -0.739798    23A     -0.685743    24A     -0.647062
      25A     -0.638903    26A     -0.609464    27A     -0.600879
      28A     -0.595020    29A     -0.581394    30A     -0.569961
      31A     -0.516019    32A     -0.508399    33A     -0.504913
      34A     -0.465765    35A     -0.394917    36A     -0.355553
      37A     -0.344663    38A     -0.306623

  @DF-RHF Final Energy:  -454.47406094552343

   => Energetics <=

    Nuclear Repulsion Energy =            544.4208624966396428
    One-Electron Energy =               -1694.5975630522657411
    Two-Electron Energy =                 695.7026396101027785
    Total Energy =                       -454.4740609455234335
  Basis Set: (AUG-CC-PVTZ AUX)
    Blend: AUG-CC-PVTZ-RI
    Molecular point group: c1

    Geometry (in Angstrom), charge = 0, multiplicity = 1:

       Center              X                  Y                   Z               Mass
    ------------   -----------------  -----------------  -----------------  -----------------
         N            0.991939219298     0.038433566849     0.003024009451    14.003074004430
         N            1.679820219298    -1.051523433151    -0.415754990549    14.003074004430
         C           -0.426353780702     0.021496566849    -0.005882990549    12.000000000000
         C           -1.132371780702     1.201832566849    -0.251836990549    12.000000000000
         C           -1.092903780702    -1.181405433151     0.241025009451    12.000000000000
         C            1.871218719298     1.130368166849     0.439074809451    12.000000000000
         C           -2.527226780702     1.177138566849    -0.228201990549    12.000000000000
         C           -2.486794780702    -1.194132433151     0.239220009451    12.000000000000
         C            3.107788219298     0.603474566849     0.240032009451    12.000000000000
         C           -3.207544780702    -0.017591433151     0.016233009451    12.000000000000
         C            2.971786219298    -0.700018433151    -0.266636990549    12.000000000000
         H           -0.598857780702     2.118579566849    -0.487924990549     1.007825032230
         H           -0.512588780702    -2.081026433151     0.418336009451     1.007825032230
         H            1.412592219298     1.976506566849     0.811608009451     1.007825032230
         H           -3.081675780702     2.092387566849    -0.419837990549     1.007825032230
         H           -3.012158780702    -2.127115433151     0.427351009451     1.007825032230
         H            4.017944219298     1.140567566849     0.467495009451     1.007825032230
         H           -4.294277780702    -0.033604433151     0.024342009451     1.007825032230
         H            3.743207219298    -1.407015433151    -0.543636990549     1.007825032230

  Basis Set: AUG-CC-PVTZ
    Blend: AUG-CC-PVTZ
  Basis Set: (AUG-CC-PVTZ AUX)
    Blend: AUG-CC-PVTZ-JKFIT
	 Reference Energy          =    -454.4740609455234335 [Eh]
	 Singles Energy            =      -0.0000000000000000 [Eh]
	 Same-Spin Energy          =      -0.5103895619949603 [Eh]
	 Opposite-Spin Energy      =      -1.5505069266192808 [Eh]
	 Correlation Energy        =      -2.0608964886142411 [Eh]
	 Total Energy              =    -456.5349574341376524 [Eh]

	 ================> DF-SCS-MP2 Energies <==================
	-----------------------------------------------------------
	 SCS Same-Spin Scale       =       0.3333333333333333 [-]
	 SCS Opposite-Spin Scale   =       1.2000000000000000 [-]
	 SCS Same-Spin Energy      =      -0.1701298539983201 [Eh]
	 SCS Opposite-Spin Energy  =      -1.8606083119431369 [Eh]
	 SCS Correlation Energy    =      -2.0307381659414570 [Eh]
	 SCS Total Energy          =    -456.5047991114648767 [Eh]
	-----------------------------------------------------------

  Dipole Moment: [D]
     X:    -0.6283      Y:     1.6493      Z:     0.7476     Total:     1.9167

*** Psi4 exiting successfully. Buy a developer a beer!
