                               Psi4 1.4a3.dev225

  ==> Input File <==

--------------------------------------------------------------------------
#psi4
#
memory 32 gb

molecule  {
0 1
  N        1.0119030     0.0333230     0.0008060
  N        1.6997840    -1.0566340    -0.4179730
  C       -0.4063900     0.0163860    -0.0081010
  C       -1.1124080     1.1967220    -0.2540550
  C       -1.0729400    -1.1865160     0.2388070
  C        1.8432717     1.0657595     0.4130970
  C       -2.5072630     1.1720280    -0.2304200
  C       -2.4668310    -1.1992430     0.2370020
  C        3.1277520     0.5983640     0.2378140
  C       -3.1875810    -0.0227020     0.0140150
  C        2.9917500    -0.7051290    -0.2688550
  H       -0.5788940     2.1134690    -0.4901430
  H       -0.4926250    -2.0861370     0.4161180
  H        1.4325560     1.9713960     0.8093900
  H       -3.0617120     2.0872770    -0.4220560
  H       -2.9921950    -2.1322260     0.4251330
  H        4.0379080     1.1354570     0.4652770
  H       -4.2743140    -0.0387150     0.0221240
  H        3.7631710    -1.4121260    -0.5458550
units angstrom
no_reorient  #important for SAPT in psi4, default
symmetry c1  #important for SAPT in psi4, default
}

set PROPERTIES_ORIGIN ["COM"]
properties('MP2/aug-cc-pvtz', properties = ['dipole'])
--------------------------------------------------------------------------

    Molecular point group: c1
  Charge       = 0
  Multiplicity = 1
  Basis Set: AUG-CC-PVTZ
    Blend: AUG-CC-PVTZ
  Basis Set: (AUG-CC-PVTZ AUX)
    Blend: AUG-CC-PVTZ-JKFIT

    Orbital Energies [Eh]
    ---------------------

    Doubly Occupied:

       1A    -15.650909     2A    -15.593051     3A    -11.291167
       4A    -11.282923     5A    -11.259871     6A    -11.247743
       7A    -11.246097     8A    -11.245558     9A    -11.240378
      10A    -11.240227    11A    -11.229362    12A     -1.378962
      13A     -1.174901    14A     -1.108616    15A     -1.064398
      16A     -1.023988    17A     -0.997128    18A     -0.859941
      19A     -0.847431    20A     -0.796845    21A     -0.778080
      22A     -0.742331    23A     -0.686547    24A     -0.648189
      25A     -0.639669    26A     -0.613885    27A     -0.596810
      28A     -0.594542    29A     -0.587526    30A     -0.566919
      31A     -0.519498    32A     -0.510315    33A     -0.506541
      34A     -0.463698    35A     -0.394733    36A     -0.350937
      37A     -0.346089    38A     -0.311803

  @DF-RHF Final Energy:  -454.48681685628446

   => Energetics <=

    Nuclear Repulsion Energy =            545.9650092802319250
    One-Electron Energy =               -1697.6284428453261626
    Two-Electron Energy =                 697.1766167088097745
    Total Energy =                       -454.4868168562844630
  Basis Set: (AUG-CC-PVTZ AUX)
    Blend: AUG-CC-PVTZ-RI
    Molecular point group: c1

    Geometry (in Angstrom), charge = 0, multiplicity = 1:

       Center              X                  Y                   Z               Mass
    ------------   -----------------  -----------------  -----------------  -----------------
         N            0.995929880749     0.043389375854     0.005003047954    14.003074004430
         N            1.683810880749    -1.046567624146    -0.413775952046    14.003074004430
         C           -0.422363119251     0.026452375854    -0.003903952046    12.000000000000
         C           -1.128381119251     1.206788375854    -0.249857952046    12.000000000000
         C           -1.088913119251    -1.176449624146     0.243004047954    12.000000000000
         C            1.827298580749     1.075825875854     0.417294047954    12.000000000000
         C           -2.523236119251     1.182094375854    -0.226222952046    12.000000000000
         C           -2.482804119251    -1.189176624146     0.241199047954    12.000000000000
         C            3.111778880749     0.608430375854     0.242011047954    12.000000000000
         C           -3.203554119251    -0.012635624146     0.018212047954    12.000000000000
         C            2.975776880749    -0.695062624146    -0.264657952046    12.000000000000
         H           -0.594867119251     2.123535375854    -0.485945952046     1.007825032230
         H           -0.508598119251    -2.076070624146     0.420315047954     1.007825032230
         H            1.416582880749     1.981462375854     0.813587047954     1.007825032230
         H           -3.077685119251     2.097343375854    -0.417858952046     1.007825032230
         H           -3.008168119251    -2.122159624146     0.429330047954     1.007825032230
         H            4.021934880749     1.145523375854     0.469474047954     1.007825032230
         H           -4.290287119251    -0.028648624146     0.026321047954     1.007825032230
         H            3.747197880749    -1.402059624146    -0.541657952046     1.007825032230

  Basis Set: AUG-CC-PVTZ
    Blend: AUG-CC-PVTZ
  Basis Set: (AUG-CC-PVTZ AUX)
    Blend: AUG-CC-PVTZ-JKFIT
	 Reference Energy          =    -454.4868168562844630 [Eh]
	 Singles Energy            =      -0.0000000000000000 [Eh]
	 Same-Spin Energy          =      -0.5098021340996035 [Eh]
	 Opposite-Spin Energy      =      -1.5483835845321208 [Eh]
	 Correlation Energy        =      -2.0581857186317243 [Eh]
	 Total Energy              =    -456.5450025749161682 [Eh]

	 ================> DF-SCS-MP2 Energies <==================
	-----------------------------------------------------------
	 SCS Same-Spin Scale       =       0.3333333333333333 [-]
	 SCS Opposite-Spin Scale   =       1.2000000000000000 [-]
	 SCS Same-Spin Energy      =      -0.1699340446998678 [Eh]
	 SCS Opposite-Spin Energy  =      -1.8580603014385448 [Eh]
	 SCS Correlation Energy    =      -2.0279943461384127 [Eh]
	 SCS Total Energy          =    -456.5148112024228908 [Eh]
	-----------------------------------------------------------

  Dipole Moment: [D]
     X:    -0.8323      Y:     1.6392      Z:     0.7400     Total:     1.9817

*** Psi4 exiting successfully. Buy a developer a beer!
