                               Psi4 1.4a3.dev225

  ==> Input File <==

--------------------------------------------------------------------------
#psi4
#
memory 32 gb

molecule  {
0 1
  N        1.0119030     0.0333230     0.0008060
  N        1.6896323    -1.0405484    -0.4117927
  C       -0.4063900     0.0163860    -0.0081010
  C       -1.1124080     1.1967220    -0.2540550
  C       -1.0729400    -1.1865160     0.2388070
  C        1.8312940     1.0508850     0.4071570
  C       -2.5072630     1.1720280    -0.2304200
  C       -2.4668310    -1.1992430     0.2370020
  C        3.1277520     0.5983640     0.2378140
  C       -3.1875810    -0.0227020     0.0140150
  C        2.9917500    -0.7051290    -0.2688550
  H       -0.5788940     2.1134690    -0.4901430
  H       -0.4926250    -2.0861370     0.4161180
  H        1.4325560     1.9713960     0.8093900
  H       -3.0617120     2.0872770    -0.4220560
  H       -2.9921950    -2.1322260     0.4251330
  H        4.0379080     1.1354570     0.4652770
  H       -4.2743140    -0.0387150     0.0221240
  H        3.7631710    -1.4121260    -0.5458550
units angstrom
no_reorient  #important for SAPT in psi4, default
symmetry c1  #important for SAPT in psi4, default
}

set PROPERTIES_ORIGIN ["COM"]
properties('MP2/aug-cc-pvtz', properties = ['dipole'])
--------------------------------------------------------------------------

    Molecular point group: c1
  Charge       = 0
  Multiplicity = 1
  Basis Set: AUG-CC-PVTZ
    Blend: AUG-CC-PVTZ
  Basis Set: (AUG-CC-PVTZ AUX)
    Blend: AUG-CC-PVTZ-JKFIT

    Orbital Energies [Eh]
    ---------------------

    Doubly Occupied:

       1A    -15.653403     2A    -15.589395     3A    -11.292022
       4A    -11.280029     5A    -11.258480     6A    -11.248587
       7A    -11.247225     8A    -11.246336     9A    -11.241618
      10A    -11.241428    11A    -11.228146    12A     -1.389933
      13A     -1.175702    14A     -1.109128    15A     -1.064793
      16A     -1.024750    17A     -0.999175    18A     -0.861462
      19A     -0.848677    20A     -0.799091    21A     -0.777037
      22A     -0.742564    23A     -0.687273    24A     -0.650500
      25A     -0.640877    26A     -0.617201    27A     -0.597843
      28A     -0.596082    29A     -0.589305    30A     -0.563249
      31A     -0.520832    32A     -0.511285    33A     -0.507174
      34A     -0.460834    35A     -0.394073    36A     -0.349101
      37A     -0.346089    38A     -0.313549

  @DF-RHF Final Energy:  -454.48832858722574

   => Energetics <=

    Nuclear Repulsion Energy =            546.8688006715144638
    One-Electron Energy =               -1699.3857576901007178
    Two-Electron Energy =                 698.0286284313605165
    Total Energy =                       -454.4883285872257375
  Basis Set: (AUG-CC-PVTZ AUX)
    Blend: AUG-CC-PVTZ-RI
    Molecular point group: c1

    Geometry (in Angstrom), charge = 0, multiplicity = 1:

       Center              X                  Y                   Z               Mass
    ------------   -----------------  -----------------  -----------------  -----------------
         N            0.997914262579     0.043064851294     0.004897104101    14.003074004430
         N            1.675643562579    -1.030806548706    -0.407701595899    14.003074004430
         C           -0.420378737421     0.026127851294    -0.004009895899    12.000000000000
         C           -1.126396737421     1.206463851294    -0.249963895899    12.000000000000
         C           -1.086928737421    -1.176774148706     0.242898104101    12.000000000000
         C            1.817305262579     1.060626851294     0.411248104101    12.000000000000
         C           -2.521251737421     1.181769851294    -0.226328895899    12.000000000000
         C           -2.480819737421    -1.189501148706     0.241093104101    12.000000000000
         C            3.113763262579     0.608105851294     0.241905104101    12.000000000000
         C           -3.201569737421    -0.012960148706     0.018106104101    12.000000000000
         C            2.977761262579    -0.695387148706    -0.264763895899    12.000000000000
         H           -0.592882737421     2.123210851294    -0.486051895899     1.007825032230
         H           -0.506613737421    -2.076395148706     0.420209104101     1.007825032230
         H            1.418567262579     1.981137851294     0.813481104101     1.007825032230
         H           -3.075700737421     2.097018851294    -0.417964895899     1.007825032230
         H           -3.006183737421    -2.122484148706     0.429224104101     1.007825032230
         H            4.023919262579     1.145198851294     0.469368104101     1.007825032230
         H           -4.288302737421    -0.028973148706     0.026215104101     1.007825032230
         H            3.749182262579    -1.402384148706    -0.541763895899     1.007825032230

  Basis Set: AUG-CC-PVTZ
    Blend: AUG-CC-PVTZ
  Basis Set: (AUG-CC-PVTZ AUX)
    Blend: AUG-CC-PVTZ-JKFIT
	 Reference Energy          =    -454.4883285872257375 [Eh]
	 Singles Energy            =      -0.0000000000000000 [Eh]
	 Same-Spin Energy          =      -0.5097908172419948 [Eh]
	 Opposite-Spin Energy      =      -1.5476133512247876 [Eh]
	 Correlation Energy        =      -2.0574041684667823 [Eh]
	 Total Energy              =    -456.5457327556925406 [Eh]

	 ================> DF-SCS-MP2 Energies <==================
	-----------------------------------------------------------
	 SCS Same-Spin Scale       =       0.3333333333333333 [-]
	 SCS Opposite-Spin Scale   =       1.2000000000000000 [-]
	 SCS Same-Spin Energy      =      -0.1699302724139983 [Eh]
	 SCS Opposite-Spin Energy  =      -1.8571360214697450 [Eh]
	 SCS Correlation Energy    =      -2.0270662938837432 [Eh]
	 SCS Total Energy          =    -456.5153948811095006 [Eh]
	-----------------------------------------------------------

  Dipole Moment: [D]
     X:    -0.9148      Y:     1.6199      Z:     0.7314     Total:     1.9989

*** Psi4 exiting successfully. Buy a developer a beer!
