                               Psi4 1.3.2 release

  ==> Input File <==

--------------------------------------------------------------------------
#psi4
#
memory 32 gb

molecule  {
0 1
  N        1.0119030     0.0333230     0.0008060
  N        1.6997840    -1.0566340    -0.4179730
  C       -0.4063900     0.0163860    -0.0081010
  C       -1.1124080     1.1967220    -0.2540550
  C       -1.0729400    -1.1865160     0.2388070
  C        1.8312940     1.0508850     0.4071570
  C       -2.5072630     1.1720280    -0.2304200
  C       -2.4668310    -1.1992430     0.2370020
  C        3.1277520     0.5983640     0.2378140
  C       -3.1875810    -0.0227020     0.0140150
  C        2.9917500    -0.7051290    -0.2688550
  H       -0.5788940     2.1134690    -0.4901430
  H       -0.4926250    -2.0861370     0.4161180
  H        1.4325560     1.9713960     0.8093900
  H       -3.0617120     2.0872770    -0.4220560
  H       -2.9921950    -2.1322260     0.4251330
  H        4.0379080     1.1354570     0.4652770
  H       -4.2743140    -0.0387150     0.0221240
  H        3.7631710    -1.4121260    -0.5458550
units angstrom
no_reorient  #important for SAPT in psi4, default
symmetry c1  #important for SAPT in psi4, default
}

set PROPERTIES_ORIGIN ["COM"]
properties('MP2/aug-cc-pvtz', properties = ['dipole'])
--------------------------------------------------------------------------

    Molecular point group: c1
  Charge       = 0
  Multiplicity = 1
  Basis Set: AUG-CC-PVTZ
    Blend: AUG-CC-PVTZ
  Basis Set: (AUG-CC-PVTZ AUX)
    Blend: AUG-CC-PVTZ-JKFIT

    Orbital Energies [Eh]
    ---------------------

    Doubly Occupied:

       1A    -15.651833     2A    -15.590760     3A    -11.291742
       4A    -11.282544     5A    -11.259646     6A    -11.248226
       7A    -11.246750     8A    -11.245983     9A    -11.241041
      10A    -11.240880    11A    -11.228067    12A     -1.382456
      13A     -1.175532    14A     -1.110351    15A     -1.063979
      16A     -1.024447    17A     -0.998180    18A     -0.860735
      19A     -0.847956    20A     -0.797304    21A     -0.777605
      22A     -0.742618    23A     -0.686787    24A     -0.649109
      25A     -0.639821    26A     -0.615397    27A     -0.597270
      28A     -0.594456    29A     -0.588742    30A     -0.563704
      31A     -0.520315    32A     -0.510812    33A     -0.506976
      34A     -0.462919    35A     -0.394983    36A     -0.349844
      37A     -0.346326    38A     -0.313012

  @DF-RHF Final Energy:  -454.48806857910989

   => Energetics <=

    Nuclear Repulsion Energy =            546.3641585721777574
    One-Electron Energy =               -1698.4062445212646253
    Two-Electron Energy =                 697.5540173699769184
    Total Energy =                       -454.4880685791099495
  Basis Set: (AUG-CC-PVTZ AUX)
    Blend: AUG-CC-PVTZ-RI
    Molecular point group: c1

    Geometry (in Angstrom), charge = 0, multiplicity = 1:

       Center              X                  Y                   Z               Mass
    ------------   -----------------  -----------------  -----------------  -----------------
         N            0.996927546112     0.044628326023     0.005497811745    14.003074004430
         N            1.684808546112    -1.045328673977    -0.413281188255    14.003074004430
         C           -0.421365453888     0.027691326023    -0.003409188255    12.000000000000
         C           -1.127383453888     1.208027326023    -0.249363188255    12.000000000000
         C           -1.087915453888    -1.175210673977     0.243498811745    12.000000000000
         C            1.816318546112     1.062190326023     0.411848811745    12.000000000000
         C           -2.522238453888     1.183333326023    -0.225728188255    12.000000000000
         C           -2.481806453888    -1.187937673977     0.241693811745    12.000000000000
         C            3.112776546112     0.609669326023     0.242505811745    12.000000000000
         C           -3.202556453888    -0.011396673977     0.018706811745    12.000000000000
         C            2.976774546112    -0.693823673977    -0.264163188255    12.000000000000
         H           -0.593869453888     2.124774326023    -0.485451188255     1.007825032230
         H           -0.507600453888    -2.074831673977     0.420809811745     1.007825032230
         H            1.417580546112     1.982701326023     0.814081811745     1.007825032230
         H           -3.076687453888     2.098582326023    -0.417364188255     1.007825032230
         H           -3.007170453888    -2.120920673977     0.429824811745     1.007825032230
         H            4.022932546112     1.146762326023     0.469968811745     1.007825032230
         H           -4.289289453888    -0.027409673977     0.026815811745     1.007825032230
         H            3.748195546112    -1.400820673977    -0.541163188255     1.007825032230

  Basis Set: AUG-CC-PVTZ
    Blend: AUG-CC-PVTZ
  Basis Set: (AUG-CC-PVTZ AUX)
    Blend: AUG-CC-PVTZ-JKFIT
	 Reference Energy          =    -454.4880685791098927 [Eh]
	 Singles Energy            =      -0.0000000000000000 [Eh]
	 Same-Spin Energy          =      -0.5096728334358653 [Eh]
	 Opposite-Spin Energy      =      -1.5479079615650710 [Eh]
	 Correlation Energy        =      -2.0575807950009364 [Eh]
	 Total Energy              =    -456.5456493741108375 [Eh]

	 ================> DF-SCS-MP2 Energies <==================
	-----------------------------------------------------------
	 SCS Same-Spin Scale       =       0.3333333333333333 [-]
	 SCS Opposite-Spin Scale   =       1.2000000000000000 [-]
	 SCS Same-Spin Energy      =      -0.1698909444786218 [Eh]
	 SCS Opposite-Spin Energy  =      -1.8574895538780851 [Eh]
	 SCS Correlation Energy    =      -2.0273804983567070 [Eh]
	 SCS Total Energy          =    -456.5154490774665987 [Eh]
	-----------------------------------------------------------

  Dipole Moment: [D]
     X:    -0.8855      Y:     1.6379      Z:     0.7387     Total:     2.0031

*** Psi4 exiting successfully. Buy a developer a beer!
