                               Psi4 1.3.2 release

  ==> Input File <==

--------------------------------------------------------------------------
#psi4
#
memory 32 gb

molecule  {
0 1
  N        1.0119030     0.0333230     0.0008060
  N        1.6997840    -1.0566340    -0.4179730
  C       -0.4063900     0.0163860    -0.0081010
  C       -1.1124080     1.1967220    -0.2540550
  C       -1.0729400    -1.1865160     0.2388070
  C        1.8312940     1.0508850     0.4071570
  C       -2.5072630     1.1720280    -0.2304200
  C       -2.4668310    -1.1992430     0.2370020
  C        3.1033241     0.6003562     0.2386522
  C       -3.1875810    -0.0227020     0.0140150
  C        2.9917500    -0.7051290    -0.2688550
  H       -0.5788940     2.1134690    -0.4901430
  H       -0.4926250    -2.0861370     0.4161180
  H        1.4325560     1.9713960     0.8093900
  H       -3.0617120     2.0872770    -0.4220560
  H       -2.9921950    -2.1322260     0.4251330
  H        4.0379080     1.1354570     0.4652770
  H       -4.2743140    -0.0387150     0.0221240
  H        3.7631710    -1.4121260    -0.5458550
units angstrom
no_reorient  #important for SAPT in psi4, default
symmetry c1  #important for SAPT in psi4, default
}

set PROPERTIES_ORIGIN ["COM"]
properties('MP2/aug-cc-pvtz', properties = ['dipole'])
--------------------------------------------------------------------------

    Molecular point group: c1
  Charge       = 0
  Multiplicity = 1
  Basis Set: AUG-CC-PVTZ
    Blend: AUG-CC-PVTZ
  Basis Set: (AUG-CC-PVTZ AUX)
    Blend: AUG-CC-PVTZ-JKFIT

    Orbital Energies [Eh]
    ---------------------

    Doubly Occupied:

       1A    -15.649957     2A    -15.591772     3A    -11.291275
       4A    -11.279301     5A    -11.259332     6A    -11.247869
       7A    -11.246272     8A    -11.245648     9A    -11.240526
      10A    -11.240374    11A    -11.227092    12A     -1.383217
      13A     -1.175395    14A     -1.110115    15A     -1.067658
      16A     -1.024211    17A     -0.997549    18A     -0.859490
      19A     -0.847929    20A     -0.796141    21A     -0.778381
      22A     -0.742790    23A     -0.686406    24A     -0.648900
      25A     -0.639861    26A     -0.614442    27A     -0.597075
      28A     -0.594295    29A     -0.583570    30A     -0.569312
      31A     -0.519769    32A     -0.510696    33A     -0.506464
      34A     -0.462614    35A     -0.394932    36A     -0.352769
      37A     -0.346317    38A     -0.312247

  @DF-RHF Final Energy:  -454.48777407574386

   => Energetics <=

    Nuclear Repulsion Energy =            546.8523582139683867
    One-Electron Energy =               -1699.3963404046628511
    Two-Electron Energy =                 698.0562081149504365
    Total Energy =                       -454.4877740757439142
  Basis Set: (AUG-CC-PVTZ AUX)
    Blend: AUG-CC-PVTZ-RI
    Molecular point group: c1

    Geometry (in Angstrom), charge = 0, multiplicity = 1:

       Center              X                  Y                   Z               Mass
    ------------   -----------------  -----------------  -----------------  -----------------
         N            0.998962233048     0.044462388578     0.005427995077    14.003074004430
         N            1.686843233048    -1.045494611422    -0.413351004923    14.003074004430
         C           -0.419330766952     0.027525388578    -0.003479004923    12.000000000000
         C           -1.125348766952     1.207861388578    -0.249433004923    12.000000000000
         C           -1.085880766952    -1.175376611422     0.243428995077    12.000000000000
         C            1.818353233048     1.062024388578     0.411778995077    12.000000000000
         C           -2.520203766952     1.183167388578    -0.225798004923    12.000000000000
         C           -2.479771766952    -1.188103611422     0.241623995077    12.000000000000
         C            3.090383333048     0.611495588578     0.243274195077    12.000000000000
         C           -3.200521766952    -0.011562611422     0.018636995077    12.000000000000
         C            2.978809233048    -0.693989611422    -0.264233004923    12.000000000000
         H           -0.591834766952     2.124608388578    -0.485521004923     1.007825032230
         H           -0.505565766952    -2.074997611422     0.420739995077     1.007825032230
         H            1.419615233048     1.982535388578     0.814011995077     1.007825032230
         H           -3.074652766952     2.098416388578    -0.417434004923     1.007825032230
         H           -3.005135766952    -2.121086611422     0.429754995077     1.007825032230
         H            4.024967233048     1.146596388578     0.469898995077     1.007825032230
         H           -4.287254766952    -0.027575611422     0.026745995077     1.007825032230
         H            3.750230233048    -1.400986611422    -0.541233004923     1.007825032230

  Basis Set: AUG-CC-PVTZ
    Blend: AUG-CC-PVTZ
  Basis Set: (AUG-CC-PVTZ AUX)
    Blend: AUG-CC-PVTZ-JKFIT
	 Reference Energy          =    -454.4877740757438573 [Eh]
	 Singles Energy            =      -0.0000000000000000 [Eh]
	 Same-Spin Energy          =      -0.5095332966306942 [Eh]
	 Opposite-Spin Energy      =      -1.5475784150089753 [Eh]
	 Correlation Energy        =      -2.0571117116396698 [Eh]
	 Total Energy              =    -456.5448857873835209 [Eh]

	 ================> DF-SCS-MP2 Energies <==================
	-----------------------------------------------------------
	 SCS Same-Spin Scale       =       0.3333333333333333 [-]
	 SCS Opposite-Spin Scale   =       1.2000000000000000 [-]
	 SCS Same-Spin Energy      =      -0.1698444322102314 [Eh]
	 SCS Opposite-Spin Energy  =      -1.8570940980107702 [Eh]
	 SCS Correlation Energy    =      -2.0269385302210017 [Eh]
	 SCS Total Energy          =    -456.5147126059648599 [Eh]
	-----------------------------------------------------------

  Dipole Moment: [D]
     X:    -0.8434      Y:     1.6364      Z:     0.7378     Total:     1.9833

*** Psi4 exiting successfully. Buy a developer a beer!
