                               Psi4 1.3.2 release

  ==> Input File <==

--------------------------------------------------------------------------
#psi4
#
memory 32 gb

molecule  {
0 1
  N        1.0119030     0.0333230     0.0008060
  N        1.6997840    -1.0566340    -0.4179730
  C       -0.4063900     0.0163860    -0.0081010
  C       -1.0113456     1.0277638    -0.2188481
  C       -1.0729400    -1.1865160     0.2388070
  C        1.8312940     1.0508850     0.4071570
  C       -2.5072630     1.1720280    -0.2304200
  C       -2.4668310    -1.1992430     0.2370020
  C        3.1277520     0.5983640     0.2378140
  C       -3.1875810    -0.0227020     0.0140150
  C        2.9917500    -0.7051290    -0.2688550
  H       -0.5788940     2.1134690    -0.4901430
  H       -0.4926250    -2.0861370     0.4161180
  H        1.4325560     1.9713960     0.8093900
  H       -3.0617120     2.0872770    -0.4220560
  H       -2.9921950    -2.1322260     0.4251330
  H        4.0379080     1.1354570     0.4652770
  H       -4.2743140    -0.0387150     0.0221240
  H        3.7631710    -1.4121260    -0.5458550
units angstrom
no_reorient  #important for SAPT in psi4, default
symmetry c1  #important for SAPT in psi4, default
}

set PROPERTIES_ORIGIN ["COM"]
properties('MP2/aug-cc-pvtz', properties = ['dipole'])
--------------------------------------------------------------------------

    Molecular point group: c1
  Charge       = 0
  Multiplicity = 1
  Basis Set: AUG-CC-PVTZ
    Blend: AUG-CC-PVTZ
  Basis Set: (AUG-CC-PVTZ AUX)
    Blend: AUG-CC-PVTZ-JKFIT

    Orbital Energies [Eh]
    ---------------------

    Doubly Occupied:

       1A    -15.647476     2A    -15.589170     3A    -11.280305
       4A    -11.265620     5A    -11.257421     6A    -11.257371
       7A    -11.245153     8A    -11.243625     9A    -11.243045
      10A    -11.240209    11A    -11.225840    12A     -1.381678
      13A     -1.197686    14A     -1.109319    15A     -1.061630
      16A     -1.026264    17A     -1.005580    18A     -0.861884
      19A     -0.850784    20A     -0.795935    21A     -0.777021
      22A     -0.743154    23A     -0.682146    24A     -0.655311
      25A     -0.636751    26A     -0.618465    27A     -0.604063
      28A     -0.588391    29A     -0.577989    30A     -0.559435
      31A     -0.526916    32A     -0.523662    33A     -0.478652
      34A     -0.461164    35A     -0.402829    36A     -0.347127
      37A     -0.340958    38A     -0.324656

  @DF-RHF Final Energy:  -454.42619689991284

   => Energetics <=

    Nuclear Repulsion Energy =            549.7553380391186693
    One-Electron Energy =               -1705.0936981120430573
    Two-Electron Energy =                 700.9121631730115496
    Total Energy =                       -454.4261968999128385
  Basis Set: (AUG-CC-PVTZ AUX)
    Blend: AUG-CC-PVTZ-RI
    Molecular point group: c1

    Geometry (in Angstrom), charge = 0, multiplicity = 1:

       Center              X                  Y                   Z               Mass
    ------------   -----------------  -----------------  -----------------  -----------------
         N            0.988509698281     0.058701457249     0.002565303445    14.003074004430
         N            1.676390698281    -1.031255542751    -0.416213696555    14.003074004430
         C           -0.429783301719     0.041764457249    -0.006341696555    12.000000000000
         C           -1.034738901719     1.053142257249    -0.217088796555    12.000000000000
         C           -1.096333301719    -1.161137542751     0.240566303445    12.000000000000
         C            1.807900698281     1.076263457249     0.408916303445    12.000000000000
         C           -2.530656301719     1.197406457249    -0.228660696555    12.000000000000
         C           -2.490224301719    -1.173864542751     0.238761303445    12.000000000000
         C            3.104358698281     0.623742457249     0.239573303445    12.000000000000
         C           -3.210974301719     0.002676457249     0.015774303445    12.000000000000
         C            2.968356698281    -0.679750542751    -0.267095696555    12.000000000000
         H           -0.602287301719     2.138847457249    -0.488383696555     1.007825032230
         H           -0.516018301719    -2.060758542751     0.417877303445     1.007825032230
         H            1.409162698281     1.996774457249     0.811149303445     1.007825032230
         H           -3.085105301719     2.112655457249    -0.420296696555     1.007825032230
         H           -3.015588301719    -2.106847542751     0.426892303445     1.007825032230
         H            4.014514698281     1.160835457249     0.467036303445     1.007825032230
         H           -4.297707301719    -0.013336542751     0.023883303445     1.007825032230
         H            3.739777698281    -1.386747542751    -0.544095696555     1.007825032230

  Basis Set: AUG-CC-PVTZ
    Blend: AUG-CC-PVTZ
  Basis Set: (AUG-CC-PVTZ AUX)
    Blend: AUG-CC-PVTZ-JKFIT
	 Reference Energy          =    -454.4261968999128385 [Eh]
	 Singles Energy            =      -0.0000000000000000 [Eh]
	 Same-Spin Energy          =      -0.5090784133189169 [Eh]
	 Opposite-Spin Energy      =      -1.5494680679563655 [Eh]
	 Correlation Energy        =      -2.0585464812752825 [Eh]
	 Total Energy              =    -456.4847433811881388 [Eh]

	 ================> DF-SCS-MP2 Energies <==================
	-----------------------------------------------------------
	 SCS Same-Spin Scale       =       0.3333333333333333 [-]
	 SCS Opposite-Spin Scale   =       1.2000000000000000 [-]
	 SCS Same-Spin Energy      =      -0.1696928044396390 [Eh]
	 SCS Opposite-Spin Energy  =      -1.8593616815476386 [Eh]
	 SCS Correlation Energy    =      -2.0290544859872774 [Eh]
	 SCS Total Energy          =    -456.4552513859001124 [Eh]
	-----------------------------------------------------------

  Dipole Moment: [D]
     X:    -1.1286      Y:     1.6789      Z:     0.7391     Total:     2.1538

*** Psi4 exiting successfully. Buy a developer a beer!
