                               Psi4 1.3.2 release

  ==> Input File <==

--------------------------------------------------------------------------
#psi4
#
memory 32 gb

molecule  {
0 1
  N        1.0119030     0.0333230     0.0008060
  N        1.6997840    -1.0566340    -0.4179730
  C       -0.4063900     0.0163860    -0.0081010
  C       -1.1124080     1.1967220    -0.2540550
  C       -1.0729400    -1.1865160     0.2388070
  C        1.8312940     1.0508850     0.4071570
  C       -2.5072630     1.1720280    -0.2304200
  C       -2.4668310    -1.1992430     0.2370020
  C        3.1277520     0.5983640     0.2378140
  C       -3.1875810    -0.0227020     0.0140150
  C        3.0111083    -0.5195915    -0.1967364
  H       -0.5788940     2.1134690    -0.4901430
  H       -0.4926250    -2.0861370     0.4161180
  H        1.4325560     1.9713960     0.8093900
  H       -3.0617120     2.0872770    -0.4220560
  H       -2.9921950    -2.1322260     0.4251330
  H        4.0379080     1.1354570     0.4652770
  H       -4.2743140    -0.0387150     0.0221240
  H        3.7631710    -1.4121260    -0.5458550
units angstrom
no_reorient  #important for SAPT in psi4, default
symmetry c1  #important for SAPT in psi4, default
}

set PROPERTIES_ORIGIN ["COM"]
properties('MP2/aug-cc-pvtz', properties = ['dipole'])
--------------------------------------------------------------------------

    Molecular point group: c1
  Charge       = 0
  Multiplicity = 1
  Basis Set: AUG-CC-PVTZ
    Blend: AUG-CC-PVTZ
  Basis Set: (AUG-CC-PVTZ AUX)
    Blend: AUG-CC-PVTZ-JKFIT

    Orbital Energies [Eh]
    ---------------------

    Doubly Occupied:

       1A    -15.665489     2A    -15.582607     3A    -11.292858
       4A    -11.283238     5A    -11.250741     6A    -11.249408
       7A    -11.248004     8A    -11.247980     9A    -11.244498
      10A    -11.244280    11A    -11.209189    12A     -1.384863
      13A     -1.179247    14A     -1.118769    15A     -1.073033
      16A     -1.027021    17A     -1.007007    18A     -0.877396
      19A     -0.845263    20A     -0.788414    21A     -0.773763
      22A     -0.743822    23A     -0.689723    24A     -0.650280
      25A     -0.641499    26A     -0.618900    27A     -0.604916
      28A     -0.597965    29A     -0.591031    30A     -0.527203
      31A     -0.519806    32A     -0.512536    33A     -0.497349
      34A     -0.467995    35A     -0.417034    36A     -0.349310
      37A     -0.338105    38A     -0.317005

  @DF-RHF Final Energy:  -454.41520030468729

   => Energetics <=

    Nuclear Repulsion Energy =            548.3928652880963455
    One-Electron Energy =               -1702.2610369247784092
    Two-Electron Energy =                 699.4529713319948314
    Total Energy =                       -454.4152003046872323
  Basis Set: (AUG-CC-PVTZ AUX)
    Blend: AUG-CC-PVTZ-RI
    Molecular point group: c1

    Geometry (in Angstrom), charge = 0, multiplicity = 1:

       Center              X                  Y                   Z               Mass
    ------------   -----------------  -----------------  -----------------  -----------------
         N            0.995315124245     0.029174245754    -0.000509203728    14.003074004430
         N            1.683196124245    -1.060782754246    -0.419288203728    14.003074004430
         C           -0.422977875755     0.012237245754    -0.009416203728    12.000000000000
         C           -1.128995875755     1.192573245754    -0.255370203728    12.000000000000
         C           -1.089527875755    -1.190664754246     0.237491796272    12.000000000000
         C            1.814706124245     1.046736245754     0.405841796272    12.000000000000
         C           -2.523850875755     1.167879245754    -0.231735203728    12.000000000000
         C           -2.483418875755    -1.203391754246     0.235686796272    12.000000000000
         C            3.111164124245     0.594215245754     0.236498796272    12.000000000000
         C           -3.204168875755    -0.026850754246     0.012699796272    12.000000000000
         C            2.994520424245    -0.523740254246    -0.198051603728    12.000000000000
         H           -0.595481875755     2.109320245754    -0.491458203728     1.007825032230
         H           -0.509212875755    -2.090285754246     0.414802796272     1.007825032230
         H            1.415968124245     1.967247245754     0.808074796272     1.007825032230
         H           -3.078299875755     2.083128245754    -0.423371203728     1.007825032230
         H           -3.008782875755    -2.136374754246     0.423817796272     1.007825032230
         H            4.021320124245     1.131308245754     0.463961796272     1.007825032230
         H           -4.290901875755    -0.042863754246     0.020808796272     1.007825032230
         H            3.746583124245    -1.416274754246    -0.547170203728     1.007825032230

  Basis Set: AUG-CC-PVTZ
    Blend: AUG-CC-PVTZ
  Basis Set: (AUG-CC-PVTZ AUX)
    Blend: AUG-CC-PVTZ-JKFIT
	 Reference Energy          =    -454.4152003046872892 [Eh]
	 Singles Energy            =      -0.0000000000000000 [Eh]
	 Same-Spin Energy          =      -0.5139914762476117 [Eh]
	 Opposite-Spin Energy      =      -1.5553536346084336 [Eh]
	 Correlation Energy        =      -2.0693451108560454 [Eh]
	 Total Energy              =    -456.4845454155433231 [Eh]

	 ================> DF-SCS-MP2 Energies <==================
	-----------------------------------------------------------
	 SCS Same-Spin Scale       =       0.3333333333333333 [-]
	 SCS Opposite-Spin Scale   =       1.2000000000000000 [-]
	 SCS Same-Spin Energy      =      -0.1713304920825372 [Eh]
	 SCS Opposite-Spin Energy  =      -1.8664243615301201 [Eh]
	 SCS Correlation Energy    =      -2.0377548536126575 [Eh]
	 SCS Total Energy          =    -456.4529551582999716 [Eh]
	-----------------------------------------------------------

  Dipole Moment: [D]
     X:    -1.1383      Y:     1.8676      Z:     0.8325     Total:     2.3402

*** Psi4 exiting successfully. Buy a developer a beer!
