                               Psi4 1.3.2 release

  ==> Input File <==

--------------------------------------------------------------------------
#psi4
#
memory 32 gb

molecule  {
0 1
  N        1.0119030     0.0333230     0.0008060
  N        1.6997840    -1.0566340    -0.4179730
  C       -0.4063900     0.0163860    -0.0081010
  C       -1.1124080     1.1967220    -0.2540550
  C       -1.0729400    -1.1865160     0.2388070
  C        1.8312940     1.0508850     0.4071570
  C       -2.5072630     1.1720280    -0.2304200
  C       -2.4668310    -1.1992430     0.2370020
  C        3.1277520     0.5983640     0.2378140
  C       -3.1875810    -0.0227020     0.0140150
  C        2.9917500    -0.7051290    -0.2688550
  H       -0.5788940     2.1134690    -0.4901430
  H       -0.4926250    -2.0861370     0.4161180
  H        1.3956631     2.0565656     0.8466063
  H       -3.0617120     2.0872770    -0.4220560
  H       -2.9921950    -2.1322260     0.4251330
  H        4.0379080     1.1354570     0.4652770
  H       -4.2743140    -0.0387150     0.0221240
  H        3.7631710    -1.4121260    -0.5458550
units angstrom
no_reorient  #important for SAPT in psi4, default
symmetry c1  #important for SAPT in psi4, default
}

set PROPERTIES_ORIGIN ["COM"]
properties('MP2/aug-cc-pvtz', properties = ['dipole'])
--------------------------------------------------------------------------

    Molecular point group: c1
  Charge       = 0
  Multiplicity = 1
  Basis Set: AUG-CC-PVTZ
    Blend: AUG-CC-PVTZ
  Basis Set: (AUG-CC-PVTZ AUX)
    Blend: AUG-CC-PVTZ-JKFIT

    Orbital Energies [Eh]
    ---------------------

    Doubly Occupied:

       1A    -15.652442     2A    -15.591107     3A    -11.292842
       4A    -11.291637     5A    -11.260217     6A    -11.248030
       7A    -11.246517     8A    -11.245848     9A    -11.240959
      10A    -11.240782    11A    -11.228643    12A     -1.382861
      13A     -1.175491    14A     -1.110090    15A     -1.062036
      16A     -1.024240    17A     -0.998258    18A     -0.859790
      19A     -0.847872    20A     -0.795216    21A     -0.773883
      22A     -0.731891    23A     -0.684822    24A     -0.648807
      25A     -0.639431    26A     -0.614947    27A     -0.597171
      28A     -0.594442    29A     -0.584353    30A     -0.557078
      31A     -0.520194    32A     -0.510694    33A     -0.506797
      34A     -0.462858    35A     -0.395200    36A     -0.350049
      37A     -0.346227    38A     -0.313110

  @DF-RHF Final Energy:  -454.48029129371611

   => Energetics <=

    Nuclear Repulsion Energy =            545.8945896591320661
    One-Electron Energy =               -1697.4960947507702258
    Two-Electron Energy =                 697.1212137979218824
    Total Energy =                       -454.4802912937161636
  Basis Set: (AUG-CC-PVTZ AUX)
    Blend: AUG-CC-PVTZ-RI
    Molecular point group: c1

    Geometry (in Angstrom), charge = 0, multiplicity = 1:

       Center              X                  Y                   Z               Mass
    ------------   -----------------  -----------------  -----------------  -----------------
         N            0.997185628372     0.044032526754     0.005237467158    14.003074004430
         N            1.685066628372    -1.045924473246    -0.413541532842    14.003074004430
         C           -0.421107371628     0.027095526754    -0.003669532842    12.000000000000
         C           -1.127125371628     1.207431526754    -0.249623532842    12.000000000000
         C           -1.087657371628    -1.175806473246     0.243238467158    12.000000000000
         C            1.816576628372     1.061594526754     0.411588467158    12.000000000000
         C           -2.521980371628     1.182737526754    -0.225988532842    12.000000000000
         C           -2.481548371628    -1.188533473246     0.241433467158    12.000000000000
         C            3.113034628372     0.609073526754     0.242245467158    12.000000000000
         C           -3.202298371628    -0.011992473246     0.018446467158    12.000000000000
         C            2.977032628372    -0.694419473246    -0.264423532842    12.000000000000
         H           -0.593611371628     2.124178526754    -0.485711532842     1.007825032230
         H           -0.507342371628    -2.075427473246     0.420549467158     1.007825032230
         H            1.380945728372     2.067275126754     0.851037767158     1.007825032230
         H           -3.076429371628     2.097986526754    -0.417624532842     1.007825032230
         H           -3.006912371628    -2.121516473246     0.429564467158     1.007825032230
         H            4.023190628372     1.146166526754     0.469708467158     1.007825032230
         H           -4.289031371628    -0.028005473246     0.026555467158     1.007825032230
         H            3.748453628372    -1.401416473246    -0.541423532842     1.007825032230

  Basis Set: AUG-CC-PVTZ
    Blend: AUG-CC-PVTZ
  Basis Set: (AUG-CC-PVTZ AUX)
    Blend: AUG-CC-PVTZ-JKFIT
	 Reference Energy          =    -454.4802912937161068 [Eh]
	 Singles Energy            =      -0.0000000000000000 [Eh]
	 Same-Spin Energy          =      -0.5099912076863622 [Eh]
	 Opposite-Spin Energy      =      -1.5489243373656807 [Eh]
	 Correlation Energy        =      -2.0589155450520429 [Eh]
	 Total Energy              =    -456.5392068387681661 [Eh]

	 ================> DF-SCS-MP2 Energies <==================
	-----------------------------------------------------------
	 SCS Same-Spin Scale       =       0.3333333333333333 [-]
	 SCS Opposite-Spin Scale   =       1.2000000000000000 [-]
	 SCS Same-Spin Energy      =      -0.1699970692287874 [Eh]
	 SCS Opposite-Spin Energy  =      -1.8587092048388167 [Eh]
	 SCS Correlation Energy    =      -2.0287062740676043 [Eh]
	 SCS Total Energy          =    -456.5089975677836946 [Eh]
	-----------------------------------------------------------

  Dipole Moment: [D]
     X:    -0.8802      Y:     1.6409      Z:     0.7411     Total:     2.0042

*** Psi4 exiting successfully. Buy a developer a beer!
