                               Psi4 1.3.2 release

  ==> Input File <==

--------------------------------------------------------------------------
#psi4
#
memory 32 gb

molecule  {
0 1
  N        1.0119030     0.0333230     0.0008060
  N        1.6997840    -1.0566340    -0.4179730
  C       -0.4063900     0.0163860    -0.0081010
  C       -1.0912584     1.2086200    -0.2564578
  C       -1.0729400    -1.1865160     0.2388070
  C        1.8312940     1.0508850     0.4071570
  C       -2.5072630     1.1720280    -0.2304200
  C       -2.4668310    -1.1992430     0.2370020
  C        3.1277520     0.5983640     0.2378140
  C       -3.1875810    -0.0227020     0.0140150
  C        2.9917500    -0.7051290    -0.2688550
  H       -0.5788940     2.1134690    -0.4901430
  H       -0.4926250    -2.0861370     0.4161180
  H        1.4325560     1.9713960     0.8093900
  H       -3.0617120     2.0872770    -0.4220560
  H       -2.9921950    -2.1322260     0.4251330
  H        4.0379080     1.1354570     0.4652770
  H       -4.2743140    -0.0387150     0.0221240
  H        3.7631710    -1.4121260    -0.5458550
units angstrom
no_reorient  #important for SAPT in psi4, default
symmetry c1  #important for SAPT in psi4, default
}

set PROPERTIES_ORIGIN ["COM"]
properties('MP2/aug-cc-pvtz', properties = ['dipole'])
--------------------------------------------------------------------------

    Molecular point group: c1
  Charge       = 0
  Multiplicity = 1
  Basis Set: AUG-CC-PVTZ
    Blend: AUG-CC-PVTZ
  Basis Set: (AUG-CC-PVTZ AUX)
    Blend: AUG-CC-PVTZ-JKFIT

    Orbital Energies [Eh]
    ---------------------

    Doubly Occupied:

       1A    -15.651173     2A    -15.590471     3A    -11.292285
       4A    -11.282293     5A    -11.259350     6A    -11.250546
       7A    -11.247353     8A    -11.246676     9A    -11.241236
      10A    -11.241064    11A    -11.227886    12A     -1.382233
      13A     -1.174469    14A     -1.109569    15A     -1.063621
      16A     -1.022872    17A     -0.998277    18A     -0.860588
      19A     -0.848805    20A     -0.797544    21A     -0.776568
      22A     -0.742543    23A     -0.687736    24A     -0.648850
      25A     -0.641452    26A     -0.615267    27A     -0.598802
      28A     -0.593587    29A     -0.588028    30A     -0.563444
      31A     -0.518834    32A     -0.510027    33A     -0.509199
      34A     -0.462796    35A     -0.394939    36A     -0.349414
      37A     -0.344468    38A     -0.313519

  @DF-RHF Final Energy:  -454.48696770755402

   => Energetics <=

    Nuclear Repulsion Energy =            546.1728280948033216
    One-Electron Energy =               -1698.0240297335549258
    Two-Electron Energy =                 697.3642339311976457
    Total Energy =                       -454.4869677075540721
  Basis Set: (AUG-CC-PVTZ AUX)
    Blend: AUG-CC-PVTZ-RI
    Molecular point group: c1

    Geometry (in Angstrom), charge = 0, multiplicity = 1:

       Center              X                  Y                   Z               Mass
    ------------   -----------------  -----------------  -----------------  -----------------
         N            0.995165920478     0.043637299157     0.005697949529    14.003074004430
         N            1.683046920478    -1.046319700843    -0.413081050471    14.003074004430
         C           -0.423127079522     0.026700299157    -0.003209050471    12.000000000000
         C           -1.107995479522     1.218934299157    -0.251565850471    12.000000000000
         C           -1.089677079522    -1.176201700843     0.243698949529    12.000000000000
         C            1.814556920478     1.061199299157     0.412048949529    12.000000000000
         C           -2.524000079522     1.182342299157    -0.225528050471    12.000000000000
         C           -2.483568079522    -1.188928700843     0.241893949529    12.000000000000
         C            3.111014920478     0.608678299157     0.242705949529    12.000000000000
         C           -3.204318079522    -0.012387700843     0.018906949529    12.000000000000
         C            2.975012920478    -0.694814700843    -0.263963050471    12.000000000000
         H           -0.595631079522     2.123783299157    -0.485251050471     1.007825032230
         H           -0.509362079522    -2.075822700843     0.421009949529     1.007825032230
         H            1.415818920478     1.981710299157     0.814281949529     1.007825032230
         H           -3.078449079522     2.097591299157    -0.417164050471     1.007825032230
         H           -3.008932079522    -2.121911700843     0.430024949529     1.007825032230
         H            4.021170920478     1.145771299157     0.470168949529     1.007825032230
         H           -4.291051079522    -0.028400700843     0.027015949529     1.007825032230
         H            3.746433920478    -1.401811700843    -0.540963050471     1.007825032230

  Basis Set: AUG-CC-PVTZ
    Blend: AUG-CC-PVTZ
  Basis Set: (AUG-CC-PVTZ AUX)
    Blend: AUG-CC-PVTZ-JKFIT
	 Reference Energy          =    -454.4869677075540153 [Eh]
	 Singles Energy            =      -0.0000000000000000 [Eh]
	 Same-Spin Energy          =      -0.5096796415111335 [Eh]
	 Opposite-Spin Energy      =      -1.5481027899594726 [Eh]
	 Correlation Energy        =      -2.0577824314706064 [Eh]
	 Total Energy              =    -456.5447501390246430 [Eh]

	 ================> DF-SCS-MP2 Energies <==================
	-----------------------------------------------------------
	 SCS Same-Spin Scale       =       0.3333333333333333 [-]
	 SCS Opposite-Spin Scale   =       1.2000000000000000 [-]
	 SCS Same-Spin Energy      =      -0.1698932138370445 [Eh]
	 SCS Opposite-Spin Energy  =      -1.8577233479513671 [Eh]
	 SCS Correlation Energy    =      -2.0276165617884114 [Eh]
	 SCS Total Energy          =    -456.5145842693424356 [Eh]
	-----------------------------------------------------------

  Dipole Moment: [D]
     X:    -0.9009      Y:     1.6361      Z:     0.7374     Total:     2.0080

*** Psi4 exiting successfully. Buy a developer a beer!
