                               Psi4 1.4a3.dev225

  ==> Input File <==

--------------------------------------------------------------------------
#psi4
#
memory 32 gb

molecule  {
0 1
  N        1.0119030     0.0333230     0.0008060
  N        1.6997840    -1.0566340    -0.4179730
  C       -0.4063900     0.0163860    -0.0081010
  C       -1.1124080     1.1967220    -0.2540550
  C       -1.0729400    -1.1865160     0.2388070
  C        1.8312940     1.0508850     0.4071570
  C       -2.5072630     1.1720280    -0.2304200
  C       -2.4668310    -1.1992430     0.2370020
  C        3.1277520     0.5983640     0.2378140
  C       -3.1875810    -0.0227020     0.0140150
  C        2.9917500    -0.7051290    -0.2688550
  H       -0.5788940     2.1134690    -0.4901430
  H       -0.4926250    -2.0861370     0.4161180
  H        1.4325560     1.9713960     0.8093900
  H       -3.0617120     2.0872770    -0.4220560
  H       -2.9921950    -2.1322260     0.4251330
  H        4.0379080     1.1354570     0.4652770
  H       -4.2743140    -0.0387150     0.0221240
  H        3.7275374    -1.3794683    -0.5330598
units angstrom
no_reorient  #important for SAPT in psi4, default
symmetry c1  #important for SAPT in psi4, default
}

set PROPERTIES_ORIGIN ["COM"]
properties('MP2/aug-cc-pvtz', properties = ['dipole'])
--------------------------------------------------------------------------

    Molecular point group: c1
  Charge       = 0
  Multiplicity = 1
  Basis Set: AUG-CC-PVTZ
    Blend: AUG-CC-PVTZ
  Basis Set: (AUG-CC-PVTZ AUX)
    Blend: AUG-CC-PVTZ-JKFIT

    Orbital Energies [Eh]
    ---------------------

    Doubly Occupied:

       1A    -15.651641     2A    -15.590541     3A    -11.291633
       4A    -11.282266     5A    -11.253952     6A    -11.248161
       7A    -11.246673     8A    -11.245927     9A    -11.240979
      10A    -11.240819    11A    -11.227673    12A     -1.382213
      13A     -1.175563    14A     -1.110829    15A     -1.063703
      16A     -1.024385    17A     -0.998858    18A     -0.862081
      19A     -0.848887    20A     -0.800367    21A     -0.779060
      22A     -0.742847    23A     -0.687616    24A     -0.649714
      25A     -0.641032    26A     -0.615918    27A     -0.598359
      28A     -0.595108    29A     -0.588551    30A     -0.567957
      31A     -0.520310    32A     -0.510797    33A     -0.506900
      34A     -0.463062    35A     -0.394855    36A     -0.349643
      37A     -0.346235    38A     -0.312922

  @DF-RHF Final Energy:  -454.48718945388197

   => Energetics <=

    Nuclear Repulsion Energy =            546.6353397860798395
    One-Electron Energy =               -1698.9289838283837071
    Two-Electron Energy =                 697.8064545884218433
    Total Energy =                       -454.4871894538820243
  Basis Set: (AUG-CC-PVTZ AUX)
    Blend: AUG-CC-PVTZ-RI
    Molecular point group: c1

    Geometry (in Angstrom), charge = 0, multiplicity = 1:

       Center              X                  Y                   Z               Mass
    ------------   -----------------  -----------------  -----------------  -----------------
         N            0.997176819007     0.044399870872     0.005408303625    14.003074004430
         N            1.685057819007    -1.045557129128    -0.413370696375    14.003074004430
         C           -0.421116180993     0.027462870872    -0.003498696375    12.000000000000
         C           -1.127134180993     1.207798870872    -0.249452696375    12.000000000000
         C           -1.087666180993    -1.175439129128     0.243409303625    12.000000000000
         C            1.816567819007     1.061961870872     0.411759303625    12.000000000000
         C           -2.521989180993     1.183104870872    -0.225817696375    12.000000000000
         C           -2.481557180993    -1.188166129128     0.241604303625    12.000000000000
         C            3.113025819007     0.609440870872     0.242416303625    12.000000000000
         C           -3.202307180993    -0.011625129128     0.018617303625    12.000000000000
         C            2.977023819007    -0.694052129128    -0.264252696375    12.000000000000
         H           -0.593620180993     2.124545870872    -0.485540696375     1.007825032230
         H           -0.507351180993    -2.075060129128     0.420720303625     1.007825032230
         H            1.417829819007     1.982472870872     0.813992303625     1.007825032230
         H           -3.076438180993     2.098353870872    -0.417453696375     1.007825032230
         H           -3.006921180993    -2.121149129128     0.429735303625     1.007825032230
         H            4.023181819007     1.146533870872     0.469879303625     1.007825032230
         H           -4.289040180993    -0.027638129128     0.026726303625     1.007825032230
         H            3.712811219007    -1.368391429128    -0.528457496375     1.007825032230

  Basis Set: AUG-CC-PVTZ
    Blend: AUG-CC-PVTZ
  Basis Set: (AUG-CC-PVTZ AUX)
    Blend: AUG-CC-PVTZ-JKFIT
	 Reference Energy          =    -454.4871894538819674 [Eh]
	 Singles Energy            =      -0.0000000000000000 [Eh]
	 Same-Spin Energy          =      -0.5096010692514449 [Eh]
	 Opposite-Spin Energy      =      -1.5476554379316074 [Eh]
	 Correlation Energy        =      -2.0572565071830522 [Eh]
	 Total Energy              =    -456.5444459610650370 [Eh]

	 ================> DF-SCS-MP2 Energies <==================
	-----------------------------------------------------------
	 SCS Same-Spin Scale       =       0.3333333333333333 [-]
	 SCS Opposite-Spin Scale   =       1.2000000000000000 [-]
	 SCS Same-Spin Energy      =      -0.1698670230838150 [Eh]
	 SCS Opposite-Spin Energy  =      -1.8571865255179287 [Eh]
	 SCS Correlation Energy    =      -2.0270535486017436 [Eh]
	 SCS Total Energy          =    -456.5142430024837381 [Eh]
	-----------------------------------------------------------

  Dipole Moment: [D]
     X:    -0.8796      Y:     1.6371      Z:     0.7385     Total:     1.9998

*** Psi4 exiting successfully. Buy a developer a beer!
