                               Psi4 1.3.2 release

  ==> Input File <==

--------------------------------------------------------------------------
#psi4
#
memory 32 gb

molecule  {
0 1
  N        1.0119030     0.0333230     0.0008060
  N        1.6997840    -1.0566340    -0.4179730
  C       -0.4063900     0.0163860    -0.0081010
  C       -1.1124080     1.1967220    -0.2540550
  C       -1.0729400    -1.1865160     0.2388070
  C        1.8489392     1.0924822     0.4242025
  C       -2.5072630     1.1720280    -0.2304200
  C       -2.4668310    -1.1992430     0.2370020
  C        3.1277520     0.5983640     0.2378140
  C       -3.1875810    -0.0227020     0.0140150
  C        2.9917500    -0.7051290    -0.2688550
  H       -0.5788940     2.1134690    -0.4901430
  H       -0.4926250    -2.0861370     0.4161180
  H        1.4325560     1.9713960     0.8093900
  H       -3.0617120     2.0872770    -0.4220560
  H       -2.9921950    -2.1322260     0.4251330
  H        4.0379080     1.1354570     0.4652770
  H       -4.2743140    -0.0387150     0.0221240
  H        3.7631710    -1.4121260    -0.5458550
units angstrom
no_reorient  #important for SAPT in psi4, default
symmetry c1  #important for SAPT in psi4, default
}

set PROPERTIES_ORIGIN ["COM"]
properties('MP2/aug-cc-pvtz', properties = ['dipole'])
--------------------------------------------------------------------------

    Molecular point group: c1
  Charge       = 0
  Multiplicity = 1
  Basis Set: AUG-CC-PVTZ
    Blend: AUG-CC-PVTZ
  Basis Set: (AUG-CC-PVTZ AUX)
    Blend: AUG-CC-PVTZ-JKFIT

    Orbital Energies [Eh]
    ---------------------

    Doubly Occupied:

       1A    -15.650712     2A    -15.596154     3A    -11.290310
       4A    -11.284136     5A    -11.260254     6A    -11.247246
       7A    -11.245381     8A    -11.245082     9A    -11.239638
      10A    -11.239482    11A    -11.232399    12A     -1.374491
      13A     -1.174133    14A     -1.106923    15A     -1.063204
      16A     -1.023418    17A     -0.995594    18A     -0.859455
      19A     -0.846703    20A     -0.797887    21A     -0.778367
      22A     -0.742647    23A     -0.686343    24A     -0.647389
      25A     -0.639105    26A     -0.612249    27A     -0.596692
      28A     -0.595803    29A     -0.586404    30A     -0.568665
      31A     -0.518410    32A     -0.509621    33A     -0.506068
      34A     -0.464833    35A     -0.394245    36A     -0.351125
      37A     -0.345669    38A     -0.310352

  @DF-RHF Final Energy:  -454.48287052127557

   => Energetics <=

    Nuclear Repulsion Energy =            545.3341364057913552
    One-Electron Energy =               -1696.3808403188104421
    Two-Electron Energy =                 696.5638333917434011
    Total Energy =                       -454.4828705212755722
  Basis Set: (AUG-CC-PVTZ AUX)
    Blend: AUG-CC-PVTZ-RI
    Molecular point group: c1

    Geometry (in Angstrom), charge = 0, multiplicity = 1:

       Center              X                  Y                   Z               Mass
    ------------   -----------------  -----------------  -----------------  -----------------
         N            0.995457814455     0.041163546839     0.004078031241    14.003074004430
         N            1.683338814455    -1.048793453161    -0.414700968759    14.003074004430
         C           -0.422835185545     0.024226546839    -0.004828968759    12.000000000000
         C           -1.128853185545     1.204562546839    -0.250782968759    12.000000000000
         C           -1.089385185545    -1.178675453161     0.242079031241    12.000000000000
         C            1.832494014455     1.100322746839     0.427474531241    12.000000000000
         C           -2.523708185545     1.179868546839    -0.227147968759    12.000000000000
         C           -2.483276185545    -1.191402453161     0.240274031241    12.000000000000
         C            3.111306814455     0.606204546839     0.241086031241    12.000000000000
         C           -3.204026185545    -0.014861453161     0.017287031241    12.000000000000
         C            2.975304814455    -0.697288453161    -0.265582968759    12.000000000000
         H           -0.595339185545     2.121309546839    -0.486870968759     1.007825032230
         H           -0.509070185545    -2.078296453161     0.419390031241     1.007825032230
         H            1.416110814455     1.979236546839     0.812662031241     1.007825032230
         H           -3.078157185545     2.095117546839    -0.418783968759     1.007825032230
         H           -3.008640185545    -2.124385453161     0.428405031241     1.007825032230
         H            4.021462814455     1.143297546839     0.468549031241     1.007825032230
         H           -4.290759185545    -0.030874453161     0.025396031241     1.007825032230
         H            3.746725814455    -1.404285453161    -0.542582968759     1.007825032230

  Basis Set: AUG-CC-PVTZ
    Blend: AUG-CC-PVTZ
  Basis Set: (AUG-CC-PVTZ AUX)
    Blend: AUG-CC-PVTZ-JKFIT
	 Reference Energy          =    -454.4828705212755722 [Eh]
	 Singles Energy            =      -0.0000000000000000 [Eh]
	 Same-Spin Energy          =      -0.5101480580201856 [Eh]
	 Opposite-Spin Energy      =      -1.5493618421518409 [Eh]
	 Correlation Energy        =      -2.0595099001720265 [Eh]
	 Total Energy              =    -456.5423804214476036 [Eh]

	 ================> DF-SCS-MP2 Energies <==================
	-----------------------------------------------------------
	 SCS Same-Spin Scale       =       0.3333333333333333 [-]
	 SCS Opposite-Spin Scale   =       1.2000000000000000 [-]
	 SCS Same-Spin Energy      =      -0.1700493526733952 [Eh]
	 SCS Opposite-Spin Energy  =      -1.8592342105822091 [Eh]
	 SCS Correlation Energy    =      -2.0292835632556043 [Eh]
	 SCS Total Energy          =    -456.5121540845311756 [Eh]
	-----------------------------------------------------------

  Dipole Moment: [D]
     X:    -0.7789      Y:     1.6315      Z:     0.7383     Total:     1.9529

*** Psi4 exiting successfully. Buy a developer a beer!
