                               Psi4 1.3.2 release

  ==> Input File <==

--------------------------------------------------------------------------
#psi4
#
memory 32 gb

molecule  {
0 1
  N        1.0074140     0.1302379    -0.0189231
  N        1.6997840    -1.0566340    -0.4179730
  C       -0.4063900     0.0163860    -0.0081010
  C       -1.1124080     1.1967220    -0.2540550
  C       -1.0729400    -1.1865160     0.2388070
  C        1.8312940     1.0508850     0.4071570
  C       -2.5072630     1.1720280    -0.2304200
  C       -2.4668310    -1.1992430     0.2370020
  C        3.1277520     0.5983640     0.2378140
  C       -3.1875810    -0.0227020     0.0140150
  C        2.9917500    -0.7051290    -0.2688550
  H       -0.5788940     2.1134690    -0.4901430
  H       -0.4926250    -2.0861370     0.4161180
  H        1.4325560     1.9713960     0.8093900
  H       -3.0617120     2.0872770    -0.4220560
  H       -2.9921950    -2.1322260     0.4251330
  H        4.0379080     1.1354570     0.4652770
  H       -4.2743140    -0.0387150     0.0221240
  H        3.7631710    -1.4121260    -0.5458550
units angstrom
no_reorient  #important for SAPT in psi4, default
symmetry c1  #important for SAPT in psi4, default
}

set PROPERTIES_ORIGIN ["COM"]
properties('MP2/aug-cc-pvtz', properties = ['dipole'])
--------------------------------------------------------------------------

    Molecular point group: c1
  Charge       = 0
  Multiplicity = 1
  Basis Set: AUG-CC-PVTZ
    Blend: AUG-CC-PVTZ
  Basis Set: (AUG-CC-PVTZ AUX)
    Blend: AUG-CC-PVTZ-JKFIT

    Orbital Energies [Eh]
    ---------------------

    Doubly Occupied:

       1A    -15.647651     2A    -15.587784     3A    -11.292799
       4A    -11.284397     5A    -11.265061     6A    -11.247260
       7A    -11.246527     8A    -11.245137     9A    -11.242671
      10A    -11.240987    11A    -11.222713    12A     -1.369467
      13A     -1.174924    14A     -1.118043    15A     -1.062910
      16A     -1.024698    17A     -0.996505    18A     -0.862658
      19A     -0.847546    20A     -0.794360    21A     -0.778325
      22A     -0.744458    23A     -0.686361    24A     -0.648266
      25A     -0.638255    26A     -0.613003    27A     -0.599670
      28A     -0.596321    29A     -0.575413    30A     -0.565496
      31A     -0.521263    32A     -0.510325    33A     -0.505995
      34A     -0.460075    35A     -0.400653    36A     -0.349936
      37A     -0.346458    38A     -0.312087

  @DF-RHF Final Energy:  -454.47920186612242

   => Energetics <=

    Nuclear Repulsion Energy =            546.0966332693529921
    One-Electron Energy =               -1697.8987535638091231
    Two-Electron Energy =                 697.3229184283335371
    Total Energy =                       -454.4792018661224802
  Basis Set: (AUG-CC-PVTZ AUX)
    Blend: AUG-CC-PVTZ-RI
    Molecular point group: c1

    Geometry (in Angstrom), charge = 0, multiplicity = 1:

       Center              X                  Y                   Z               Mass
    ------------   -----------------  -----------------  -----------------  -----------------
         N            0.992874864189     0.132123372424    -0.012313675652    14.003074004430
         N            1.685244864189    -1.054748527576    -0.411363575652    14.003074004430
         C           -0.420929135811     0.018271472424    -0.001491575652    12.000000000000
         C           -1.126947135811     1.198607472424    -0.247445575652    12.000000000000
         C           -1.087479135811    -1.184630527576     0.245416424348    12.000000000000
         C            1.816754864189     1.052770472424     0.413766424348    12.000000000000
         C           -2.521802135811     1.173913472424    -0.223810575652    12.000000000000
         C           -2.481370135811    -1.197357527576     0.243611424348    12.000000000000
         C            3.113212864189     0.600249472424     0.244423424348    12.000000000000
         C           -3.202120135811    -0.020816527576     0.020624424348    12.000000000000
         C            2.977210864189    -0.703243527576    -0.262245575652    12.000000000000
         H           -0.593433135811     2.115354472424    -0.483533575652     1.007825032230
         H           -0.507164135811    -2.084251527576     0.422727424348     1.007825032230
         H            1.418016864189     1.973281472424     0.815999424348     1.007825032230
         H           -3.076251135811     2.089162472424    -0.415446575652     1.007825032230
         H           -3.006734135811    -2.130340527576     0.431742424348     1.007825032230
         H            4.023368864189     1.137342472424     0.471886424348     1.007825032230
         H           -4.288853135811    -0.036829527576     0.028733424348     1.007825032230
         H            3.748631864189    -1.410240527576    -0.539245575652     1.007825032230

  Basis Set: AUG-CC-PVTZ
    Blend: AUG-CC-PVTZ
  Basis Set: (AUG-CC-PVTZ AUX)
    Blend: AUG-CC-PVTZ-JKFIT
	 Reference Energy          =    -454.4792018661224233 [Eh]
	 Singles Energy            =      -0.0000000000000000 [Eh]
	 Same-Spin Energy          =      -0.5093323954042059 [Eh]
	 Opposite-Spin Energy      =      -1.5484041807202706 [Eh]
	 Correlation Energy        =      -2.0577365761244764 [Eh]
	 Total Energy              =    -456.5369384422468784 [Eh]

	 ================> DF-SCS-MP2 Energies <==================
	-----------------------------------------------------------
	 SCS Same-Spin Scale       =       0.3333333333333333 [-]
	 SCS Opposite-Spin Scale   =       1.2000000000000000 [-]
	 SCS Same-Spin Energy      =      -0.1697774651347353 [Eh]
	 SCS Opposite-Spin Energy  =      -1.8580850168643246 [Eh]
	 SCS Correlation Energy    =      -2.0278624819990601 [Eh]
	 SCS Total Energy          =    -456.5070643481215029 [Eh]
	-----------------------------------------------------------

  Dipole Moment: [D]
     X:    -0.8917      Y:     1.5920      Z:     0.7471     Total:     1.9717

*** Psi4 exiting successfully. Buy a developer a beer!
