                               Psi4 1.3.2 release

  ==> Input File <==

--------------------------------------------------------------------------
#psi4
#
memory 32 gb

molecule  {
0 1
  N        1.0119030     0.0333230     0.0008060
  N        1.7401124    -1.0337550    -0.4086059
  C       -0.4063900     0.0163860    -0.0081010
  C       -1.1124080     1.1967220    -0.2540550
  C       -1.0729400    -1.1865160     0.2388070
  C        1.8312940     1.0508850     0.4071570
  C       -2.5072630     1.1720280    -0.2304200
  C       -2.4668310    -1.1992430     0.2370020
  C        3.1277520     0.5983640     0.2378140
  C       -3.1875810    -0.0227020     0.0140150
  C        2.9917500    -0.7051290    -0.2688550
  H       -0.5788940     2.1134690    -0.4901430
  H       -0.4926250    -2.0861370     0.4161180
  H        1.4325560     1.9713960     0.8093900
  H       -3.0617120     2.0872770    -0.4220560
  H       -2.9921950    -2.1322260     0.4251330
  H        4.0379080     1.1354570     0.4652770
  H       -4.2743140    -0.0387150     0.0221240
  H        3.7631710    -1.4121260    -0.5458550
units angstrom
no_reorient  #important for SAPT in psi4, default
symmetry c1  #important for SAPT in psi4, default
}

set PROPERTIES_ORIGIN ["COM"]
properties('MP2/aug-cc-pvtz', properties = ['dipole'])
--------------------------------------------------------------------------

    Molecular point group: c1
  Charge       = 0
  Multiplicity = 1
  Basis Set: AUG-CC-PVTZ
    Blend: AUG-CC-PVTZ
  Basis Set: (AUG-CC-PVTZ AUX)
    Blend: AUG-CC-PVTZ-JKFIT

    Orbital Energies [Eh]
    ---------------------

    Doubly Occupied:

       1A    -15.648883     2A    -15.585042     3A    -11.292816
       4A    -11.281233     5A    -11.254192     6A    -11.248504
       7A    -11.246971     8A    -11.246265     9A    -11.241243
      10A    -11.240976    11A    -11.225229    12A     -1.386516
      13A     -1.179628    14A     -1.117738    15A     -1.060352
      16A     -1.024820    17A     -0.999340    18A     -0.860617
      19A     -0.849245    20A     -0.800442    21A     -0.776443
      22A     -0.741947    23A     -0.687275    24A     -0.650028
      25A     -0.642375    26A     -0.616654    27A     -0.599160
      28A     -0.596269    29A     -0.588744    30A     -0.565701
      31A     -0.520748    32A     -0.512037    33A     -0.507231
      34A     -0.455608    35A     -0.398966    36A     -0.351120
      37A     -0.346938    38A     -0.313026

  @DF-RHF Final Energy:  -454.49055907389180

   => Energetics <=

    Nuclear Repulsion Energy =            546.9434709987564247
    One-Electron Energy =               -1699.5474186923258912
    Two-Electron Energy =                 698.1133886196776075
    Total Energy =                       -454.4905590738917454
  Basis Set: (AUG-CC-PVTZ AUX)
    Blend: AUG-CC-PVTZ-RI
    Molecular point group: c1

    Geometry (in Angstrom), charge = 0, multiplicity = 1:

       Center              X                  Y                   Z               Mass
    ------------   -----------------  -----------------  -----------------  -----------------
         N            0.993007739933     0.042404552068     0.004587356174    14.003074004430
         N            1.721217139933    -1.024673447932    -0.404824543826    14.003074004430
         C           -0.425285260067     0.025467552068    -0.004319643826    12.000000000000
         C           -1.131303260067     1.205803552068    -0.250273643826    12.000000000000
         C           -1.091835260067    -1.177434447932     0.242588356174    12.000000000000
         C            1.812398739933     1.059966552068     0.410938356174    12.000000000000
         C           -2.526158260067     1.181109552068    -0.226638643826    12.000000000000
         C           -2.485726260067    -1.190161447932     0.240783356174    12.000000000000
         C            3.108856739933     0.607445552068     0.241595356174    12.000000000000
         C           -3.206476260067    -0.013620447932     0.017796356174    12.000000000000
         C            2.972854739933    -0.696047447932    -0.265073643826    12.000000000000
         H           -0.597789260067     2.122550552068    -0.486361643826     1.007825032230
         H           -0.511520260067    -2.077055447932     0.419899356174     1.007825032230
         H            1.413660739933     1.980477552068     0.813171356174     1.007825032230
         H           -3.080607260067     2.096358552068    -0.418274643826     1.007825032230
         H           -3.011090260067    -2.123144447932     0.428914356174     1.007825032230
         H            4.019012739933     1.144538552068     0.469058356174     1.007825032230
         H           -4.293209260067    -0.029633447932     0.025905356174     1.007825032230
         H            3.744275739933    -1.403044447932    -0.542073643826     1.007825032230

  Basis Set: AUG-CC-PVTZ
    Blend: AUG-CC-PVTZ
  Basis Set: (AUG-CC-PVTZ AUX)
    Blend: AUG-CC-PVTZ-JKFIT
	 Reference Energy          =    -454.4905590738918022 [Eh]
	 Singles Energy            =      -0.0000000000000000 [Eh]
	 Same-Spin Energy          =      -0.5083187206821100 [Eh]
	 Opposite-Spin Energy      =      -1.5452198344250325 [Eh]
	 Correlation Energy        =      -2.0535385551071426 [Eh]
	 Total Energy              =    -456.5440976289989408 [Eh]

	 ================> DF-SCS-MP2 Energies <==================
	-----------------------------------------------------------
	 SCS Same-Spin Scale       =       0.3333333333333333 [-]
	 SCS Opposite-Spin Scale   =       1.2000000000000000 [-]
	 SCS Same-Spin Energy      =      -0.1694395735607033 [Eh]
	 SCS Opposite-Spin Energy  =      -1.8542638013100390 [Eh]
	 SCS Correlation Energy    =      -2.0237033748707423 [Eh]
	 SCS Total Energy          =    -456.5142624487625653 [Eh]
	-----------------------------------------------------------

  Dipole Moment: [D]
     X:    -0.9177      Y:     1.5640      Z:     0.7076     Total:     1.9465

*** Psi4 exiting successfully. Buy a developer a beer!
