                               Psi4 1.3.2 release

  ==> Input File <==

--------------------------------------------------------------------------
#psi4
#
memory 32 gb

molecule  {
0 1
  N        1.0119030     0.0333230     0.0008060
  N        1.6997840    -1.0566340    -0.4179730
  C       -0.4063900     0.0163860    -0.0081010
  C       -1.1124080     1.1967220    -0.2540550
  C       -1.0729400    -1.1865160     0.2388070
  C        1.8312940     1.0508850     0.4071570
  C       -2.5072630     1.1720280    -0.2304200
  C       -2.4668310    -1.1992430     0.2370020
  C        3.1277520     0.5983640     0.2378140
  C       -3.1875810    -0.0227020     0.0140150
  C        2.7999509    -0.7573118    -0.2909923
  H       -0.5788940     2.1134690    -0.4901430
  H       -0.4926250    -2.0861370     0.4161180
  H        1.4325560     1.9713960     0.8093900
  H       -3.0617120     2.0872770    -0.4220560
  H       -2.9921950    -2.1322260     0.4251330
  H        4.0379080     1.1354570     0.4652770
  H       -4.2743140    -0.0387150     0.0221240
  H        3.7631710    -1.4121260    -0.5458550
units angstrom
no_reorient  #important for SAPT in psi4, default
symmetry c1  #important for SAPT in psi4, default
}

set PROPERTIES_ORIGIN ["COM"]
properties('MP2/aug-cc-pvtz', properties = ['dipole'])
--------------------------------------------------------------------------

    Molecular point group: c1
  Charge       = 0
  Multiplicity = 1
  Basis Set: AUG-CC-PVTZ
    Blend: AUG-CC-PVTZ
  Basis Set: (AUG-CC-PVTZ AUX)
    Blend: AUG-CC-PVTZ-JKFIT

    Orbital Energies [Eh]
    ---------------------

    Doubly Occupied:

       1A    -15.637191     2A    -15.578351     3A    -11.289902
       4A    -11.286689     5A    -11.257292     6A    -11.246504
       7A    -11.244675     8A    -11.243413     9A    -11.238124
      10A    -11.237664    11A    -11.228814    12A     -1.420365
      13A     -1.196267    14A     -1.135974    15A     -1.063533
      16A     -1.023409    17A     -0.990305    18A     -0.855617
      19A     -0.844490    20A     -0.808569    21A     -0.763757
      22A     -0.747937    23A     -0.684002    24A     -0.656441
      25A     -0.640140    26A     -0.626668    27A     -0.604900
      28A     -0.595789    29A     -0.587235    30A     -0.554355
      31A     -0.518321    32A     -0.513355    33A     -0.505043
      34A     -0.441712    35A     -0.418531    36A     -0.364603
      37A     -0.345455    38A     -0.305493

  @DF-RHF Final Energy:  -454.43972646298590

   => Energetics <=

    Nuclear Repulsion Energy =            550.1634871408865592
    One-Electron Energy =               -1705.8046600731456692
    Two-Electron Energy =                 701.2014464692731508
    Total Energy =                       -454.4397264629858455
  Basis Set: (AUG-CC-PVTZ AUX)
    Blend: AUG-CC-PVTZ-RI
    Molecular point group: c1

    Geometry (in Angstrom), charge = 0, multiplicity = 1:

       Center              X                  Y                   Z               Mass
    ------------   -----------------  -----------------  -----------------  -----------------
         N            1.012903177383     0.048974817594     0.007341706435    14.003074004430
         N            1.700784177383    -1.040982182406    -0.411437293565    14.003074004430
         C           -0.405389822617     0.032037817594    -0.001565293565    12.000000000000
         C           -1.111407822617     1.212373817594    -0.247519293565    12.000000000000
         C           -1.071939822617    -1.170864182406     0.245342706435    12.000000000000
         C            1.832294177383     1.066536817594     0.413692706435    12.000000000000
         C           -2.506262822617     1.187679817594    -0.223884293565    12.000000000000
         C           -2.465830822617    -1.183591182406     0.243537706435    12.000000000000
         C            3.128752177383     0.614015817594     0.244349706435    12.000000000000
         C           -3.186580822617    -0.007050182406     0.020550706435    12.000000000000
         C            2.800951077383    -0.741659982406    -0.284456593565    12.000000000000
         H           -0.577893822617     2.129120817594    -0.483607293565     1.007825032230
         H           -0.491624822617    -2.070485182406     0.422653706435     1.007825032230
         H            1.433556177383     1.987047817594     0.815925706435     1.007825032230
         H           -3.060711822617     2.102928817594    -0.415520293565     1.007825032230
         H           -2.991194822617    -2.116574182406     0.431668706435     1.007825032230
         H            4.038908177383     1.151108817594     0.471812706435     1.007825032230
         H           -4.273313822617    -0.023063182406     0.028659706435     1.007825032230
         H            3.764171177383    -1.396474182406    -0.539319293565     1.007825032230

  Basis Set: AUG-CC-PVTZ
    Blend: AUG-CC-PVTZ
  Basis Set: (AUG-CC-PVTZ AUX)
    Blend: AUG-CC-PVTZ-JKFIT
	 Reference Energy          =    -454.4397264629859023 [Eh]
	 Singles Energy            =      -0.0000000000000000 [Eh]
	 Same-Spin Energy          =      -0.5048364015222155 [Eh]
	 Opposite-Spin Energy      =      -1.5401403850492468 [Eh]
	 Correlation Energy        =      -2.0449767865714623 [Eh]
	 Total Energy              =    -456.4847032495573558 [Eh]

	 ================> DF-SCS-MP2 Energies <==================
	-----------------------------------------------------------
	 SCS Same-Spin Scale       =       0.3333333333333333 [-]
	 SCS Opposite-Spin Scale   =       1.2000000000000000 [-]
	 SCS Same-Spin Energy      =      -0.1682788005074052 [Eh]
	 SCS Opposite-Spin Energy  =      -1.8481684620590961 [Eh]
	 SCS Correlation Energy    =      -2.0164472625665013 [Eh]
	 SCS Total Energy          =    -456.4561737255523894 [Eh]
	-----------------------------------------------------------

  Dipole Moment: [D]
     X:    -0.6374      Y:     1.5191      Z:     0.6854     Total:     1.7843

*** Psi4 exiting successfully. Buy a developer a beer!
