                               Psi4 1.3.2 release

  ==> Input File <==

--------------------------------------------------------------------------
#psi4
#
memory 32 gb

molecule  {
0 1
  N        1.0119030     0.0333230     0.0008060
  N        1.6997840    -1.0566340    -0.4179730
  C       -0.4065061     0.0393860     0.0010553
  C       -1.1124080     1.1967220    -0.2540550
  C       -1.0729400    -1.1865160     0.2388070
  C        1.8312940     1.0508850     0.4071570
  C       -2.5072630     1.1720280    -0.2304200
  C       -2.4668310    -1.1992430     0.2370020
  C        3.1277520     0.5983640     0.2378140
  C       -3.1875810    -0.0227020     0.0140150
  C        2.9917500    -0.7051290    -0.2688550
  H       -0.5788940     2.1134690    -0.4901430
  H       -0.4926250    -2.0861370     0.4161180
  H        1.4325560     1.9713960     0.8093900
  H       -3.0617120     2.0872770    -0.4220560
  H       -2.9921950    -2.1322260     0.4251330
  H        4.0379080     1.1354570     0.4652770
  H       -4.2743140    -0.0387150     0.0221240
  H        3.7631710    -1.4121260    -0.5458550
units angstrom
no_reorient  #important for SAPT in psi4, default
symmetry c1  #important for SAPT in psi4, default
}

set PROPERTIES_ORIGIN ["COM"]
properties('MP2/aug-cc-pvtz', properties = ['dipole'])
--------------------------------------------------------------------------

    Molecular point group: c1
  Charge       = 0
  Multiplicity = 1
  Basis Set: AUG-CC-PVTZ
    Blend: AUG-CC-PVTZ
  Basis Set: (AUG-CC-PVTZ AUX)
    Blend: AUG-CC-PVTZ-JKFIT

    Orbital Energies [Eh]
    ---------------------

    Doubly Occupied:

       1A    -15.651877     2A    -15.591213     3A    -11.291748
       4A    -11.282091     5A    -11.259895     6A    -11.248063
       7A    -11.245690     8A    -11.245262     9A    -11.242835
      10A    -11.241022    11A    -11.227913    12A     -1.382362
      13A     -1.175930    14A     -1.110755    15A     -1.063343
      16A     -1.024871    17A     -0.997972    18A     -0.860423
      19A     -0.848322    20A     -0.797115    21A     -0.777843
      22A     -0.742455    23A     -0.686888    24A     -0.648945
      25A     -0.639912    26A     -0.615115    27A     -0.598498
      28A     -0.593868    29A     -0.588561    30A     -0.563705
      31A     -0.520486    32A     -0.511052    33A     -0.506605
      34A     -0.462756    35A     -0.395221    36A     -0.349752
      37A     -0.346462    38A     -0.312868

  @DF-RHF Final Energy:  -454.48751989978905

   => Energetics <=

    Nuclear Repulsion Energy =            546.3530514804400582
    One-Electron Energy =               -1698.3817545225042522
    Two-Electron Energy =                 697.5411831422750311
    Total Energy =                       -454.4875198997890493
  Basis Set: (AUG-CC-PVTZ AUX)
    Blend: AUG-CC-PVTZ-RI
    Molecular point group: c1

    Geometry (in Angstrom), charge = 0, multiplicity = 1:

       Center              X                  Y                   Z               Mass
    ------------   -----------------  -----------------  -----------------  -----------------
         N            0.996937216495     0.042712573972     0.004735150853    14.003074004430
         N            1.684818216495    -1.047244426028    -0.414043849147    14.003074004430
         C           -0.421471883505     0.048775573972     0.004984450853    12.000000000000
         C           -1.127373783505     1.206111573972    -0.250125849147    12.000000000000
         C           -1.087905783505    -1.177126426028     0.242736150853    12.000000000000
         C            1.816328216495     1.060274573972     0.411086150853    12.000000000000
         C           -2.522228783505     1.181417573972    -0.226490849147    12.000000000000
         C           -2.481796783505    -1.189853426028     0.240931150853    12.000000000000
         C            3.112786216495     0.607753573972     0.241743150853    12.000000000000
         C           -3.202546783505    -0.013312426028     0.017944150853    12.000000000000
         C            2.976784216495    -0.695739426028    -0.264925849147    12.000000000000
         H           -0.593859783505     2.122858573972    -0.486213849147     1.007825032230
         H           -0.507590783505    -2.076747426028     0.420047150853     1.007825032230
         H            1.417590216495     1.980785573972     0.813319150853     1.007825032230
         H           -3.076677783505     2.096666573972    -0.418126849147     1.007825032230
         H           -3.007160783505    -2.122836426028     0.429062150853     1.007825032230
         H            4.022942216495     1.144846573972     0.469206150853     1.007825032230
         H           -4.289279783505    -0.029325426028     0.026053150853     1.007825032230
         H            3.748205216495    -1.402736426028    -0.541925849147     1.007825032230

  Basis Set: AUG-CC-PVTZ
    Blend: AUG-CC-PVTZ
  Basis Set: (AUG-CC-PVTZ AUX)
    Blend: AUG-CC-PVTZ-JKFIT
	 Reference Energy          =    -454.4875198997890493 [Eh]
	 Singles Energy            =      -0.0000000000000000 [Eh]
	 Same-Spin Energy          =      -0.5096338654642740 [Eh]
	 Opposite-Spin Energy      =      -1.5478796737021849 [Eh]
	 Correlation Energy        =      -2.0575135391664592 [Eh]
	 Total Energy              =    -456.5450334389554996 [Eh]

	 ================> DF-SCS-MP2 Energies <==================
	-----------------------------------------------------------
	 SCS Same-Spin Scale       =       0.3333333333333333 [-]
	 SCS Opposite-Spin Scale   =       1.2000000000000000 [-]
	 SCS Same-Spin Energy      =      -0.1698779551547580 [Eh]
	 SCS Opposite-Spin Energy  =      -1.8574556084426219 [Eh]
	 SCS Correlation Energy    =      -2.0273335635973799 [Eh]
	 SCS Total Energy          =    -456.5148534633864301 [Eh]
	-----------------------------------------------------------

  Dipole Moment: [D]
     X:    -0.8845      Y:     1.6414      Z:     0.7349     Total:     2.0042

*** Psi4 exiting successfully. Buy a developer a beer!
