                               Psi4 1.3.2 release

  ==> Input File <==

--------------------------------------------------------------------------
#psi4
#
memory 32 gb

molecule  {
0 1
  N        1.0119030     0.0333230     0.0008060
  N        1.6997840    -1.0566340    -0.4179730
  C       -0.4063900     0.0163860    -0.0081010
  C       -1.1124080     1.1967220    -0.2540550
  C       -1.0729400    -1.1865160     0.2388070
  C        1.8312940     1.0508850     0.4071570
  C       -2.5072630     1.1720280    -0.2304200
  C       -2.4668310    -1.1992430     0.2370020
  C        3.3151602     0.5329503     0.2133348
  C       -3.1875810    -0.0227020     0.0140150
  C        2.9917500    -0.7051290    -0.2688550
  H       -0.5788940     2.1134690    -0.4901430
  H       -0.4926250    -2.0861370     0.4161180
  H        1.4325560     1.9713960     0.8093900
  H       -3.0617120     2.0872770    -0.4220560
  H       -2.9921950    -2.1322260     0.4251330
  H        4.0379080     1.1354570     0.4652770
  H       -4.2743140    -0.0387150     0.0221240
  H        3.7631710    -1.4121260    -0.5458550
units angstrom
no_reorient  #important for SAPT in psi4, default
symmetry c1  #important for SAPT in psi4, default
}

set PROPERTIES_ORIGIN ["COM"]
properties('MP2/aug-cc-pvtz', properties = ['dipole'])
--------------------------------------------------------------------------

    Molecular point group: c1
  Charge       = 0
  Multiplicity = 1
  Basis Set: AUG-CC-PVTZ
    Blend: AUG-CC-PVTZ
  Basis Set: (AUG-CC-PVTZ AUX)
    Blend: AUG-CC-PVTZ-JKFIT

    Orbital Energies [Eh]
    ---------------------

    Doubly Occupied:

       1A    -15.668150     2A    -15.580208     3A    -11.301909
       4A    -11.295340     5A    -11.259615     6A    -11.251905
       7A    -11.250404     8A    -11.248827     9A    -11.245468
      10A    -11.245172    11A    -11.235144    12A     -1.379812
      13A     -1.177722    14A     -1.113699    15A     -1.044365
      16A     -1.025272    17A     -1.005246    18A     -0.873444
      19A     -0.848468    20A     -0.806655    21A     -0.775060
      22A     -0.743248    23A     -0.690077    24A     -0.656992
      25A     -0.640395    26A     -0.635597    27A     -0.606492
      28A     -0.599268    29A     -0.591501    30A     -0.525162
      31A     -0.516226    32A     -0.510528    33A     -0.503335
      34A     -0.463404    35A     -0.400518    36A     -0.349911
      37A     -0.325743    38A     -0.320836

  @DF-RHF Final Energy:  -454.44075541656684

   => Energetics <=

    Nuclear Repulsion Energy =            543.3697767233055629
    One-Electron Energy =               -1692.1988249277555951
    Two-Electron Energy =                 694.3882927878830742
    Total Energy =                       -454.4407554165668444
  Basis Set: (AUG-CC-PVTZ AUX)
    Blend: AUG-CC-PVTZ-RI
    Molecular point group: c1

    Geometry (in Angstrom), charge = 0, multiplicity = 1:

       Center              X                  Y                   Z               Mass
    ------------   -----------------  -----------------  -----------------  -----------------
         N            0.981317648566     0.050076866455     0.007536771641    14.003074004430
         N            1.669198648566    -1.039880133545    -0.411242228359    14.003074004430
         C           -0.436975351434     0.033139866455    -0.001370228359    12.000000000000
         C           -1.142993351434     1.213475866455    -0.247324228359    12.000000000000
         C           -1.103525351434    -1.169762133545     0.245537771641    12.000000000000
         C            1.800708648566     1.067638866455     0.413887771641    12.000000000000
         C           -2.537848351434     1.188781866455    -0.223689228359    12.000000000000
         C           -2.497416351434    -1.182489133545     0.243732771641    12.000000000000
         C            3.284574848566     0.549704166455     0.220065571641    12.000000000000
         C           -3.218166351434    -0.005948133545     0.020745771641    12.000000000000
         C            2.961164648566    -0.688375133545    -0.262124228359    12.000000000000
         H           -0.609479351434     2.130222866455    -0.483412228359     1.007825032230
         H           -0.523210351434    -2.069383133545     0.422848771641     1.007825032230
         H            1.401970648566     1.988149866455     0.816120771641     1.007825032230
         H           -3.092297351434     2.104030866455    -0.415325228359     1.007825032230
         H           -3.022780351434    -2.115472133545     0.431863771641     1.007825032230
         H            4.007322648566     1.152210866455     0.472007771641     1.007825032230
         H           -4.304899351434    -0.021961133545     0.028854771641     1.007825032230
         H            3.732585648566    -1.395372133545    -0.539124228359     1.007825032230

  Basis Set: AUG-CC-PVTZ
    Blend: AUG-CC-PVTZ
  Basis Set: (AUG-CC-PVTZ AUX)
    Blend: AUG-CC-PVTZ-JKFIT
	 Reference Energy          =    -454.4407554165668444 [Eh]
	 Singles Energy            =      -0.0000000000000000 [Eh]
	 Same-Spin Energy          =      -0.5115485395595516 [Eh]
	 Opposite-Spin Energy      =      -1.5527905566550722 [Eh]
	 Correlation Energy        =      -2.0643390962146237 [Eh]
	 Total Energy              =    -456.5050945127814543 [Eh]

	 ================> DF-SCS-MP2 Energies <==================
	-----------------------------------------------------------
	 SCS Same-Spin Scale       =       0.3333333333333333 [-]
	 SCS Opposite-Spin Scale   =       1.2000000000000000 [-]
	 SCS Same-Spin Energy      =      -0.1705161798531838 [Eh]
	 SCS Opposite-Spin Energy  =      -1.8633486679860864 [Eh]
	 SCS Correlation Energy    =      -2.0338648478392702 [Eh]
	 SCS Total Energy          =    -456.4746202644060986 [Eh]
	-----------------------------------------------------------

  Dipole Moment: [D]
     X:    -1.2526      Y:     1.6280      Z:     0.7371     Total:     2.1823

*** Psi4 exiting successfully. Buy a developer a beer!
