                               Psi4 1.3.2 release

  ==> Input File <==

--------------------------------------------------------------------------
#psi4
#
memory 32 gb

molecule  {
0 1
  N        1.0119030     0.0333230     0.0008060
  N        1.6997840    -1.0566340    -0.4179730
  C       -0.4063900     0.0163860    -0.0081010
  C       -1.1124080     1.1967220    -0.2540550
  C       -1.0729400    -1.1865160     0.2388070
  C        1.7115170     0.9021397     0.3477574
  C       -2.5072630     1.1720280    -0.2304200
  C       -2.4668310    -1.1992430     0.2370020
  C        3.1277520     0.5983640     0.2378140
  C       -3.1875810    -0.0227020     0.0140150
  C        2.9917500    -0.7051290    -0.2688550
  H       -0.5788940     2.1134690    -0.4901430
  H       -0.4926250    -2.0861370     0.4161180
  H        1.4325560     1.9713960     0.8093900
  H       -3.0617120     2.0872770    -0.4220560
  H       -2.9921950    -2.1322260     0.4251330
  H        4.0379080     1.1354570     0.4652770
  H       -4.2743140    -0.0387150     0.0221240
  H        3.7631710    -1.4121260    -0.5458550
units angstrom
no_reorient  #important for SAPT in psi4, default
symmetry c1  #important for SAPT in psi4, default
}

set PROPERTIES_ORIGIN ["COM"]
properties('MP2/aug-cc-pvtz', properties = ['dipole'])
--------------------------------------------------------------------------

    Molecular point group: c1
  Charge       = 0
  Multiplicity = 1
  Basis Set: AUG-CC-PVTZ
    Blend: AUG-CC-PVTZ
  Basis Set: (AUG-CC-PVTZ AUX)
    Blend: AUG-CC-PVTZ-JKFIT

    Orbital Energies [Eh]
    ---------------------

    Doubly Occupied:

       1A    -15.656673     2A    -15.566660     3A    -11.297640
       4A    -11.279867     5A    -11.257479     6A    -11.255012
       7A    -11.252537     8A    -11.250698     9A    -11.248407
      10A    -11.247985    11A    -11.216849    12A     -1.434656
      13A     -1.183187    14A     -1.135334    15A     -1.065037
      16A     -1.030298    17A     -1.002428    18A     -0.874734
      19A     -0.853661    20A     -0.809753    21A     -0.773455
      22A     -0.734689    23A     -0.689840    24A     -0.671109
      25A     -0.642651    26A     -0.630881    27A     -0.611683
      28A     -0.602240    29A     -0.588603    30A     -0.529548
      31A     -0.517820    32A     -0.512384    33A     -0.505676
      34A     -0.451248    35A     -0.403749    36A     -0.351745
      37A     -0.344870    38A     -0.314805

  @DF-RHF Final Energy:  -454.43505270008581

   => Energetics <=

    Nuclear Repulsion Energy =            550.7723681643127520
    One-Electron Energy =               -1706.8230596656305806
    Two-Electron Energy =                 701.6156388012320804
    Total Energy =                       -454.4350527000858619
  Basis Set: (AUG-CC-PVTZ AUX)
    Blend: AUG-CC-PVTZ-RI
    Molecular point group: c1

    Geometry (in Angstrom), charge = 0, multiplicity = 1:

       Center              X                  Y                   Z               Mass
    ------------   -----------------  -----------------  -----------------  -----------------
         N            1.006904199739     0.057017852700     0.010445416334    14.003074004430
         N            1.694785199739    -1.032939147300    -0.408333583666    14.003074004430
         C           -0.411388800261     0.040080852700     0.001538416334    12.000000000000
         C           -1.117406800261     1.220416852700    -0.244415583666    12.000000000000
         C           -1.077938800261    -1.162821147300     0.248446416334    12.000000000000
         C            1.706518199739     0.925834552700     0.357396816334    12.000000000000
         C           -2.512261800261     1.195722852700    -0.220780583666    12.000000000000
         C           -2.471829800261    -1.175548147300     0.246641416334    12.000000000000
         C            3.122753199739     0.622058852700     0.247453416334    12.000000000000
         C           -3.192579800261     0.000992852700     0.023654416334    12.000000000000
         C            2.986751199739    -0.681434147300    -0.259215583666    12.000000000000
         H           -0.583892800261     2.137163852700    -0.480503583666     1.007825032230
         H           -0.497623800261    -2.062442147300     0.425757416334     1.007825032230
         H            1.427557199739     1.995090852700     0.819029416334     1.007825032230
         H           -3.066710800261     2.110971852700    -0.412416583666     1.007825032230
         H           -2.997193800261    -2.108531147300     0.434772416334     1.007825032230
         H            4.032909199739     1.159151852700     0.474916416334     1.007825032230
         H           -4.279312800261    -0.015020147300     0.031763416334     1.007825032230
         H            3.758172199739    -1.388431147300    -0.536215583666     1.007825032230

  Basis Set: AUG-CC-PVTZ
    Blend: AUG-CC-PVTZ
  Basis Set: (AUG-CC-PVTZ AUX)
    Blend: AUG-CC-PVTZ-JKFIT
	 Reference Energy          =    -454.4350527000858051 [Eh]
	 Singles Energy            =      -0.0000000000000000 [Eh]
	 Same-Spin Energy          =      -0.5083592326773051 [Eh]
	 Opposite-Spin Energy      =      -1.5441943931858251 [Eh]
	 Correlation Energy        =      -2.0525536258631303 [Eh]
	 Total Energy              =    -456.4876063259489456 [Eh]

	 ================> DF-SCS-MP2 Energies <==================
	-----------------------------------------------------------
	 SCS Same-Spin Scale       =       0.3333333333333333 [-]
	 SCS Opposite-Spin Scale   =       1.2000000000000000 [-]
	 SCS Same-Spin Energy      =      -0.1694530775591017 [Eh]
	 SCS Opposite-Spin Energy  =      -1.8530332718229900 [Eh]
	 SCS Correlation Energy    =      -2.0224863493820919 [Eh]
	 SCS Total Energy          =    -456.4575390494678686 [Eh]
	-----------------------------------------------------------

  Dipole Moment: [D]
     X:    -1.5017      Y:     1.6548      Z:     0.7404     Total:     2.3541

*** Psi4 exiting successfully. Buy a developer a beer!
