                               Psi4 1.3.2 release

  ==> Input File <==

--------------------------------------------------------------------------
#psi4
#
memory 32 gb

molecule  {
0 1
  N        1.0119030     0.0333230     0.0008060
  N        1.6997840    -1.0566340    -0.4179730
  C       -0.4063900     0.0163860    -0.0081010
  C       -1.1124080     1.1967220    -0.2540550
  C       -1.0729400    -1.1865160     0.2388070
  C        1.8152284     1.0087365     0.3899052
  C       -2.5072630     1.1720280    -0.2304200
  C       -2.4668310    -1.1992430     0.2370020
  C        3.1277520     0.5983640     0.2378140
  C       -3.1875810    -0.0227020     0.0140150
  C        2.9917500    -0.7051290    -0.2688550
  H       -0.5788940     2.1134690    -0.4901430
  H       -0.4926250    -2.0861370     0.4161180
  H        1.4325560     1.9713960     0.8093900
  H       -3.0617120     2.0872770    -0.4220560
  H       -2.9921950    -2.1322260     0.4251330
  H        4.0379080     1.1354570     0.4652770
  H       -4.2743140    -0.0387150     0.0221240
  H        3.7631710    -1.4121260    -0.5458550
units angstrom
no_reorient  #important for SAPT in psi4, default
symmetry c1  #important for SAPT in psi4, default
}

set PROPERTIES_ORIGIN ["COM"]
properties('MP2/aug-cc-pvtz', properties = ['dipole'])
--------------------------------------------------------------------------

    Molecular point group: c1
  Charge       = 0
  Multiplicity = 1
  Basis Set: AUG-CC-PVTZ
    Blend: AUG-CC-PVTZ
  Basis Set: (AUG-CC-PVTZ AUX)
    Blend: AUG-CC-PVTZ-JKFIT

    Orbital Energies [Eh]
    ---------------------

    Doubly Occupied:

       1A    -15.652501     2A    -15.585343     3A    -11.293219
       4A    -11.281178     5A    -11.259113     6A    -11.249315
       7A    -11.248084     8A    -11.246915     9A    -11.242542
      10A    -11.242314    11A    -11.224051    12A     -1.391921
      13A     -1.177049    14A     -1.114284    15A     -1.065020
      16A     -1.025538    17A     -1.000832    18A     -0.863055
      19A     -0.849256    20A     -0.799536    21A     -0.775554
      22A     -0.741001    23A     -0.687272    24A     -0.651991
      25A     -0.640882    26A     -0.619171    27A     -0.598885
      28A     -0.598075    29A     -0.587757    30A     -0.553552
      31A     -0.522141    32A     -0.512040    33A     -0.507919
      34A     -0.460566    35A     -0.396121    36A     -0.349186
      37A     -0.346642    38A     -0.315439

  @DF-RHF Final Energy:  -454.48726252164101

   => Energetics <=

    Nuclear Repulsion Energy =            547.4303922444399859
    One-Electron Energy =               -1700.4847952305015042
    Two-Electron Energy =                 698.5671404644206177
    Total Energy =                       -454.4872625216410142
  Basis Set: (AUG-CC-PVTZ AUX)
    Blend: AUG-CC-PVTZ-RI
    Molecular point group: c1

    Geometry (in Angstrom), charge = 0, multiplicity = 1:

       Center              X                  Y                   Z               Mass
    ------------   -----------------  -----------------  -----------------  -----------------
         N            0.998265707249     0.048139024950     0.006934775712    14.003074004430
         N            1.686146707249    -1.041817975050    -0.411844224288    14.003074004430
         C           -0.420027292751     0.031202024950    -0.001972224288    12.000000000000
         C           -1.126045292751     1.211538024950    -0.247926224288    12.000000000000
         C           -1.086577292751    -1.171699975050     0.244935775712    12.000000000000
         C            1.801591107249     1.023552524950     0.396033975712    12.000000000000
         C           -2.520900292751     1.186844024950    -0.224291224288    12.000000000000
         C           -2.480468292751    -1.184426975050     0.243130775712    12.000000000000
         C            3.114114707249     0.613180024950     0.243942775712    12.000000000000
         C           -3.201218292751    -0.007885975050     0.020143775712    12.000000000000
         C            2.978112707249    -0.690312975050    -0.262726224288    12.000000000000
         H           -0.592531292751     2.128285024950    -0.484014224288     1.007825032230
         H           -0.506262292751    -2.071320975050     0.422246775712     1.007825032230
         H            1.418918707249     1.986212024950     0.815518775712     1.007825032230
         H           -3.075349292751     2.102093024950    -0.415927224288     1.007825032230
         H           -3.005832292751    -2.117409975050     0.431261775712     1.007825032230
         H            4.024270707249     1.150273024950     0.471405775712     1.007825032230
         H           -4.287951292751    -0.023898975050     0.028252775712     1.007825032230
         H            3.749533707249    -1.397309975050    -0.539726224288     1.007825032230

  Basis Set: AUG-CC-PVTZ
    Blend: AUG-CC-PVTZ
  Basis Set: (AUG-CC-PVTZ AUX)
    Blend: AUG-CC-PVTZ-JKFIT
	 Reference Energy          =    -454.4872625216410142 [Eh]
	 Singles Energy            =      -0.0000000000000000 [Eh]
	 Same-Spin Energy          =      -0.5092637129875744 [Eh]
	 Opposite-Spin Energy      =      -1.5466817849694512 [Eh]
	 Correlation Energy        =      -2.0559454979570257 [Eh]
	 Total Energy              =    -456.5432080195980120 [Eh]

	 ================> DF-SCS-MP2 Energies <==================
	-----------------------------------------------------------
	 SCS Same-Spin Scale       =       0.3333333333333333 [-]
	 SCS Opposite-Spin Scale   =       1.2000000000000000 [-]
	 SCS Same-Spin Energy      =      -0.1697545709958581 [Eh]
	 SCS Opposite-Spin Energy  =      -1.8560181419633413 [Eh]
	 SCS Correlation Energy    =      -2.0257727129591996 [Eh]
	 SCS Total Energy          =    -456.5130352346002383 [Eh]
	-----------------------------------------------------------

  Dipole Moment: [D]
     X:    -0.9965      Y:     1.6418      Z:     0.7381     Total:     2.0575

*** Psi4 exiting successfully. Buy a developer a beer!
