                               Psi4 1.4a3.dev225

  ==> Input File <==

--------------------------------------------------------------------------
#psi4
#
memory 32 gb

molecule  {
0 1
  N        1.0119030     0.0333230     0.0008060
  N        1.6997840    -1.0566340    -0.4179730
  C       -0.4263882     0.0161472    -0.0082266
  C       -1.1124080     1.1967220    -0.2540550
  C       -1.0729400    -1.1865160     0.2388070
  C        1.8312940     1.0508850     0.4071570
  C       -2.5072630     1.1720280    -0.2304200
  C       -2.4668310    -1.1992430     0.2370020
  C        3.1277520     0.5983640     0.2378140
  C       -3.1875810    -0.0227020     0.0140150
  C        2.9917500    -0.7051290    -0.2688550
  H       -0.5788940     2.1134690    -0.4901430
  H       -0.4926250    -2.0861370     0.4161180
  H        1.4325560     1.9713960     0.8093900
  H       -3.0617120     2.0872770    -0.4220560
  H       -2.9921950    -2.1322260     0.4251330
  H        4.0379080     1.1354570     0.4652770
  H       -4.2743140    -0.0387150     0.0221240
  H        3.7631710    -1.4121260    -0.5458550
units angstrom
no_reorient  #important for SAPT in psi4, default
symmetry c1  #important for SAPT in psi4, default
}

set PROPERTIES_ORIGIN ["COM"]
properties('MP2/aug-cc-pvtz', properties = ['dipole'])
--------------------------------------------------------------------------

    Molecular point group: c1
  Charge       = 0
  Multiplicity = 1
  Basis Set: AUG-CC-PVTZ
    Blend: AUG-CC-PVTZ
  Basis Set: (AUG-CC-PVTZ AUX)
    Blend: AUG-CC-PVTZ-JKFIT

    Orbital Energies [Eh]
    ---------------------

    Doubly Occupied:

       1A    -15.650690     2A    -15.589651     3A    -11.291540
       4A    -11.281227     5A    -11.258227     6A    -11.248811
       7A    -11.246746     8A    -11.246678     9A    -11.241638
      10A    -11.240851    11A    -11.226751    12A     -1.379111
      13A     -1.176739    14A     -1.107773    15A     -1.062430
      16A     -1.026388    17A     -0.999553    18A     -0.857974
      19A     -0.848796    20A     -0.796543    21A     -0.777227
      22A     -0.741890    23A     -0.686910    24A     -0.648975
      25A     -0.639522    26A     -0.614772    27A     -0.598773
      28A     -0.592737    29A     -0.588088    30A     -0.562614
      31A     -0.519206    32A     -0.512930    33A     -0.509647
      34A     -0.461863    35A     -0.393395    36A     -0.349328
      37A     -0.346585    38A     -0.315285

  @DF-RHF Final Energy:  -454.48771037481617

   => Energetics <=

    Nuclear Repulsion Energy =            546.3235500535978417
    One-Electron Energy =               -1698.3467900386801830
    Two-Electron Energy =                 697.5355296102662805
    Total Energy =                       -454.4877103748161744
  Basis Set: (AUG-CC-PVTZ AUX)
    Blend: AUG-CC-PVTZ-RI
    Molecular point group: c1

    Geometry (in Angstrom), charge = 0, multiplicity = 1:

       Center              X                  Y                   Z               Mass
    ------------   -----------------  -----------------  -----------------  -----------------
         N            0.998593267532     0.044648216527     0.005508273417    14.003074004430
         N            1.686474267532    -1.045308783473    -0.413270726583    14.003074004430
         C           -0.439697932468     0.027472416527    -0.003524326583    12.000000000000
         C           -1.125717732468     1.208047216527    -0.249352726583    12.000000000000
         C           -1.086249732468    -1.175190783473     0.243509273417    12.000000000000
         C            1.817984267532     1.062210216527     0.411859273417    12.000000000000
         C           -2.520572732468     1.183353216527    -0.225717726583    12.000000000000
         C           -2.480140732468    -1.187917783473     0.241704273417    12.000000000000
         C            3.114442267532     0.609689216527     0.242516273417    12.000000000000
         C           -3.200890732468    -0.011376783473     0.018717273417    12.000000000000
         C            2.978440267532    -0.693803783473    -0.264152726583    12.000000000000
         H           -0.592203732468     2.124794216527    -0.485440726583     1.007825032230
         H           -0.505934732468    -2.074811783473     0.420820273417     1.007825032230
         H            1.419246267532     1.982721216527     0.814092273417     1.007825032230
         H           -3.075021732468     2.098602216527    -0.417353726583     1.007825032230
         H           -3.005504732468    -2.120900783473     0.429835273417     1.007825032230
         H            4.024598267532     1.146782216527     0.469979273417     1.007825032230
         H           -4.287623732468    -0.027389783473     0.026826273417     1.007825032230
         H            3.749861267532    -1.400800783473    -0.541152726583     1.007825032230

  Basis Set: AUG-CC-PVTZ
    Blend: AUG-CC-PVTZ
  Basis Set: (AUG-CC-PVTZ AUX)
    Blend: AUG-CC-PVTZ-JKFIT
	 Reference Energy          =    -454.4877103748161744 [Eh]
	 Singles Energy            =      -0.0000000000000000 [Eh]
	 Same-Spin Energy          =      -0.5095960664760337 [Eh]
	 Opposite-Spin Energy      =      -1.5477942658222108 [Eh]
	 Correlation Energy        =      -2.0573903322982448 [Eh]
	 Total Energy              =    -456.5451007071144431 [Eh]

	 ================> DF-SCS-MP2 Energies <==================
	-----------------------------------------------------------
	 SCS Same-Spin Scale       =       0.3333333333333333 [-]
	 SCS Opposite-Spin Scale   =       1.2000000000000000 [-]
	 SCS Same-Spin Energy      =      -0.1698653554920112 [Eh]
	 SCS Opposite-Spin Energy  =      -1.8573531189866528 [Eh]
	 SCS Correlation Energy    =      -2.0272184744786639 [Eh]
	 SCS Total Energy          =    -456.5149288492948472 [Eh]
	-----------------------------------------------------------

  Dipole Moment: [D]
     X:    -1.0011      Y:     1.6383      Z:     0.7377     Total:     2.0568

*** Psi4 exiting successfully. Buy a developer a beer!
