                               Psi4 1.3.2 release

  ==> Input File <==

--------------------------------------------------------------------------
#psi4
#
memory 32 gb

molecule  {
0 1
  N        1.1308535    -0.0387439    -0.0333506
  N        1.6997840    -1.0566340    -0.4179730
  C       -0.4063900     0.0163860    -0.0081010
  C       -1.1124080     1.1967220    -0.2540550
  C       -1.0729400    -1.1865160     0.2388070
  C        1.8312940     1.0508850     0.4071570
  C       -2.5072630     1.1720280    -0.2304200
  C       -2.4668310    -1.1992430     0.2370020
  C        3.1277520     0.5983640     0.2378140
  C       -3.1875810    -0.0227020     0.0140150
  C        2.9917500    -0.7051290    -0.2688550
  H       -0.5788940     2.1134690    -0.4901430
  H       -0.4926250    -2.0861370     0.4161180
  H        1.4325560     1.9713960     0.8093900
  H       -3.0617120     2.0872770    -0.4220560
  H       -2.9921950    -2.1322260     0.4251330
  H        4.0379080     1.1354570     0.4652770
  H       -4.2743140    -0.0387150     0.0221240
  H        3.7631710    -1.4121260    -0.5458550
units angstrom
no_reorient  #important for SAPT in psi4, default
symmetry c1  #important for SAPT in psi4, default
}

set PROPERTIES_ORIGIN ["COM"]
properties('MP2/aug-cc-pvtz', properties = ['dipole'])
--------------------------------------------------------------------------

    Molecular point group: c1
  Charge       = 0
  Multiplicity = 1
  Basis Set: AUG-CC-PVTZ
    Blend: AUG-CC-PVTZ
  Basis Set: (AUG-CC-PVTZ AUX)
    Blend: AUG-CC-PVTZ-JKFIT

    Orbital Energies [Eh]
    ---------------------

    Doubly Occupied:

       1A    -15.661586     2A    -15.589294     3A    -11.298329
       4A    -11.268003     5A    -11.254069     6A    -11.251609
       7A    -11.249289     8A    -11.246180     9A    -11.245933
      10A    -11.243281    11A    -11.224684    12A     -1.438220
      13A     -1.171723    14A     -1.096743    15A     -1.077057
      16A     -1.028596    17A     -1.000846    18A     -0.849916
      19A     -0.844363    20A     -0.809942    21A     -0.772739
      22A     -0.747490    23A     -0.690786    24A     -0.656644
      25A     -0.638671    26A     -0.626865    27A     -0.606768
      28A     -0.600130    29A     -0.575114    30A     -0.557437
      31A     -0.517908    32A     -0.515535    33A     -0.510351
      34A     -0.466189    35A     -0.381414    36A     -0.353256
      37A     -0.349154    38A     -0.316491

  @DF-RHF Final Energy:  -454.46082634461703

   => Energetics <=

    Nuclear Repulsion Energy =            546.9542496314974187
    One-Electron Energy =               -1699.3649397218230206
    Two-Electron Energy =                 697.9498637457086261
    Total Energy =                       -454.4608263446170895
  Basis Set: (AUG-CC-PVTZ AUX)
    Blend: AUG-CC-PVTZ-RI
    Molecular point group: c1

    Geometry (in Angstrom), charge = 0, multiplicity = 1:

       Center              X                  Y                   Z               Mass
    ------------   -----------------  -----------------  -----------------  -----------------
         N            1.104316394647    -0.020433875553    -0.025338863544    14.003074004430
         N            1.673246894647    -1.038323975553    -0.409961263544    14.003074004430
         C           -0.432927105353     0.034696024447    -0.000089263544    12.000000000000
         C           -1.138945105353     1.215032024447    -0.246043263544    12.000000000000
         C           -1.099477105353    -1.168205975553     0.246818736456    12.000000000000
         C            1.804756894647     1.069195024447     0.415168736456    12.000000000000
         C           -2.533800105353     1.190338024447    -0.222408263544    12.000000000000
         C           -2.493368105353    -1.180932975553     0.245013736456    12.000000000000
         C            3.101214894647     0.616674024447     0.245825736456    12.000000000000
         C           -3.214118105353    -0.004391975553     0.022026736456    12.000000000000
         C            2.965212894647    -0.686818975553    -0.260843263544    12.000000000000
         H           -0.605431105353     2.131779024447    -0.482131263544     1.007825032230
         H           -0.519162105353    -2.067826975553     0.424129736456     1.007825032230
         H            1.406018894647     1.989706024447     0.817401736456     1.007825032230
         H           -3.088249105353     2.105587024447    -0.414044263544     1.007825032230
         H           -3.018732105353    -2.113915975553     0.433144736456     1.007825032230
         H            4.011370894647     1.153767024447     0.473288736456     1.007825032230
         H           -4.300851105353    -0.020404975553     0.030135736456     1.007825032230
         H            3.736633894647    -1.393815975553    -0.537843263544     1.007825032230

  Basis Set: AUG-CC-PVTZ
    Blend: AUG-CC-PVTZ
  Basis Set: (AUG-CC-PVTZ AUX)
    Blend: AUG-CC-PVTZ-JKFIT
	 Reference Energy          =    -454.4608263446170326 [Eh]
	 Singles Energy            =      -0.0000000000000000 [Eh]
	 Same-Spin Energy          =      -0.5104954866215107 [Eh]
	 Opposite-Spin Energy      =      -1.5474134318434163 [Eh]
	 Correlation Energy        =      -2.0579089184649271 [Eh]
	 Total Energy              =    -456.5187352630819646 [Eh]

	 ================> DF-SCS-MP2 Energies <==================
	-----------------------------------------------------------
	 SCS Same-Spin Scale       =       0.3333333333333333 [-]
	 SCS Opposite-Spin Scale   =       1.2000000000000000 [-]
	 SCS Same-Spin Energy      =      -0.1701651622071702 [Eh]
	 SCS Opposite-Spin Energy  =      -1.8568961182120995 [Eh]
	 SCS Correlation Energy    =      -2.0270612804192698 [Eh]
	 SCS Total Energy          =    -456.4878876250363078 [Eh]
	-----------------------------------------------------------

  Dipole Moment: [D]
     X:    -1.3386      Y:     1.6635      Z:     0.7238     Total:     2.2545

*** Psi4 exiting successfully. Buy a developer a beer!
