                               Psi4 1.3.2 release

  ==> Input File <==

--------------------------------------------------------------------------
#psi4
#
memory 32 gb

molecule  {
0 1
  N        1.0119030     0.0333230     0.0008060
  N        1.6997840    -1.0566340    -0.4179730
  C       -0.4063900     0.0163860    -0.0081010
  C       -1.1124080     1.1967220    -0.2540550
  C       -1.0729400    -1.1865160     0.2388070
  C        1.8888803     1.1738205     0.4575917
  C       -2.5072630     1.1720280    -0.2304200
  C       -2.4668310    -1.1992430     0.2370020
  C        3.1277520     0.5983640     0.2378140
  C       -3.1875810    -0.0227020     0.0140150
  C        2.9917500    -0.7051290    -0.2688550
  H       -0.5788940     2.1134690    -0.4901430
  H       -0.4926250    -2.0861370     0.4161180
  H        1.4325560     1.9713960     0.8093900
  H       -3.0617120     2.0872770    -0.4220560
  H       -2.9921950    -2.1322260     0.4251330
  H        4.0379080     1.1354570     0.4652770
  H       -4.2743140    -0.0387150     0.0221240
  H        3.7631710    -1.4121260    -0.5458550
units angstrom
no_reorient  #important for SAPT in psi4, default
symmetry c1  #important for SAPT in psi4, default
}

set PROPERTIES_ORIGIN ["COM"]
properties('MP2/aug-cc-pvtz', properties = ['dipole'])
--------------------------------------------------------------------------

    Molecular point group: c1
  Charge       = 0
  Multiplicity = 1
  Basis Set: AUG-CC-PVTZ
    Blend: AUG-CC-PVTZ
  Basis Set: (AUG-CC-PVTZ AUX)
    Blend: AUG-CC-PVTZ-JKFIT

    Orbital Energies [Eh]
    ---------------------

    Doubly Occupied:

       1A    -15.647051     2A    -15.606554     3A    -11.288112
       4A    -11.287516     5A    -11.261493     6A    -11.245439
       7A    -11.243360     8A    -11.242687     9A    -11.241922
      10A    -11.237075    11A    -11.236818    12A     -1.362284
      13A     -1.171599    14A     -1.101434    15A     -1.062511
      16A     -1.021495    17A     -0.990851    18A     -0.860322
      19A     -0.844474    20A     -0.806513    21A     -0.775224
      22A     -0.739091    23A     -0.685688    24A     -0.648785
      25A     -0.637661    26A     -0.613271    27A     -0.601133
      28A     -0.594328    29A     -0.581904    30A     -0.563444
      31A     -0.514301    32A     -0.507308    33A     -0.504399
      34A     -0.466692    35A     -0.393956    36A     -0.354148
      37A     -0.344107    38A     -0.304768

  @DF-RHF Final Energy:  -454.45769629907454

   => Energetics <=

    Nuclear Repulsion Energy =            543.3750010343196664
    One-Electron Energy =               -1692.4859582297906400
    Two-Electron Energy =                 694.6532608963964321
    Total Energy =                       -454.4576962990745415
  Basis Set: (AUG-CC-PVTZ AUX)
    Blend: AUG-CC-PVTZ-RI
    Molecular point group: c1

    Geometry (in Angstrom), charge = 0, multiplicity = 1:

       Center              X                  Y                   Z               Mass
    ------------   -----------------  -----------------  -----------------  -----------------
         N            0.992130977749     0.034388589663     0.001296925659    14.003074004430
         N            1.680011977749    -1.055568410337    -0.417482074341    14.003074004430
         C           -0.426162022251     0.017451589663    -0.007610074341    12.000000000000
         C           -1.132180022251     1.197787589663    -0.253564074341    12.000000000000
         C           -1.092712022251    -1.185450410337     0.239297925659    12.000000000000
         C            1.869108277749     1.174886089663     0.458082625659    12.000000000000
         C           -2.527035022251     1.173093589663    -0.229929074341    12.000000000000
         C           -2.486603022251    -1.198177410337     0.237492925659    12.000000000000
         C            3.107979977749     0.599429589663     0.238304925659    12.000000000000
         C           -3.207353022251    -0.021636410337     0.014505925659    12.000000000000
         C            2.971977977749    -0.704063410337    -0.268364074341    12.000000000000
         H           -0.598666022251     2.114534589663    -0.489652074341     1.007825032230
         H           -0.512397022251    -2.085071410337     0.416608925659     1.007825032230
         H            1.412783977749     1.972461589663     0.809880925659     1.007825032230
         H           -3.081484022251     2.088342589663    -0.421565074341     1.007825032230
         H           -3.011967022251    -2.131160410337     0.425623925659     1.007825032230
         H            4.018135977749     1.136522589663     0.465767925659     1.007825032230
         H           -4.294086022251    -0.037649410337     0.022614925659     1.007825032230
         H            3.743398977749    -1.411060410337    -0.545364074341     1.007825032230

  Basis Set: AUG-CC-PVTZ
    Blend: AUG-CC-PVTZ
  Basis Set: (AUG-CC-PVTZ AUX)
    Blend: AUG-CC-PVTZ-JKFIT
	 Reference Energy          =    -454.4576962990745415 [Eh]
	 Singles Energy            =      -0.0000000000000000 [Eh]
	 Same-Spin Energy          =      -0.5112918525207997 [Eh]
	 Opposite-Spin Energy      =      -1.5528320302822152 [Eh]
	 Correlation Energy        =      -2.0641238828030151 [Eh]
	 Total Energy              =    -456.5218201818775583 [Eh]

	 ================> DF-SCS-MP2 Energies <==================
	-----------------------------------------------------------
	 SCS Same-Spin Scale       =       0.3333333333333333 [-]
	 SCS Opposite-Spin Scale   =       1.2000000000000000 [-]
	 SCS Same-Spin Energy      =      -0.1704306175069332 [Eh]
	 SCS Opposite-Spin Energy  =      -1.8633984363386582 [Eh]
	 SCS Correlation Energy    =      -2.0338290538455914 [Eh]
	 SCS Total Energy          =    -456.4915253529201209 [Eh]
	-----------------------------------------------------------

  Dipole Moment: [D]
     X:    -0.5772      Y:     1.6192      Z:     0.7377     Total:     1.8706

*** Psi4 exiting successfully. Buy a developer a beer!
