                               Psi4 1.3.2 release

  ==> Input File <==

--------------------------------------------------------------------------
#psi4
#
memory 32 gb

molecule  {
0 1
  N        1.0119030     0.0333230     0.0008060
  N        1.6933186    -1.0356236    -0.4096292
  C       -0.4063900     0.0163860    -0.0081010
  C       -1.1124080     1.1967220    -0.2540550
  C       -1.0729400    -1.1865160     0.2388070
  C        1.8312940     1.0508850     0.4071570
  C       -2.5072630     1.1720280    -0.2304200
  C       -2.4668310    -1.1992430     0.2370020
  C        3.1277520     0.5983640     0.2378140
  C       -3.1875810    -0.0227020     0.0140150
  C        2.9917500    -0.7051290    -0.2688550
  H       -0.5788940     2.1134690    -0.4901430
  H       -0.4926250    -2.0861370     0.4161180
  H        1.4325560     1.9713960     0.8093900
  H       -3.0617120     2.0872770    -0.4220560
  H       -2.9921950    -2.1322260     0.4251330
  H        4.0379080     1.1354570     0.4652770
  H       -4.2743140    -0.0387150     0.0221240
  H        3.7631710    -1.4121260    -0.5458550
units angstrom
no_reorient  #important for SAPT in psi4, default
symmetry c1  #important for SAPT in psi4, default
}

set PROPERTIES_ORIGIN ["COM"]
properties('MP2/aug-cc-pvtz', properties = ['dipole'])
--------------------------------------------------------------------------

    Molecular point group: c1
  Charge       = 0
  Multiplicity = 1
  Basis Set: AUG-CC-PVTZ
    Blend: AUG-CC-PVTZ
  Basis Set: (AUG-CC-PVTZ AUX)
    Blend: AUG-CC-PVTZ-JKFIT

    Orbital Energies [Eh]
    ---------------------

    Doubly Occupied:

       1A    -15.653231     2A    -15.588521     3A    -11.292191
       4A    -11.279530     5A    -11.257689     6A    -11.248671
       7A    -11.247317     8A    -11.246419     9A    -11.241721
      10A    -11.241514    11A    -11.227802    12A     -1.391421
      13A     -1.176156    14A     -1.109869    15A     -1.064422
      16A     -1.024834    17A     -0.999502    18A     -0.861563
      19A     -0.848939    20A     -0.799695    21A     -0.776863
      22A     -0.742493    23A     -0.687395    24A     -0.650803
      25A     -0.641354    26A     -0.617582    27A     -0.598172
      28A     -0.596536    29A     -0.589330    30A     -0.563395
      31A     -0.520959    32A     -0.511486    33A     -0.507244
      34A     -0.459703    35A     -0.394329    36A     -0.349142
      37A     -0.346167    38A     -0.313671

  @DF-RHF Final Energy:  -454.48888868017985

   => Energetics <=

    Nuclear Repulsion Energy =            547.0064990362844810
    One-Electron Energy =               -1699.6555180819877933
    Two-Electron Energy =                 698.1601303655235142
    Total Energy =                       -454.4888886801799117
  Basis Set: (AUG-CC-PVTZ AUX)
    Blend: AUG-CC-PVTZ-RI
    Molecular point group: c1

    Geometry (in Angstrom), charge = 0, multiplicity = 1:

       Center              X                  Y                   Z               Mass
    ------------   -----------------  -----------------  -----------------  -----------------
         N            0.997555964667     0.042586174692     0.004686818033    14.003074004430
         N            1.678971564667    -1.026360425308    -0.405748381967    14.003074004430
         C           -0.420737035333     0.025649174692    -0.004220181967    12.000000000000
         C           -1.126755035333     1.205985174692    -0.250174181967    12.000000000000
         C           -1.087287035333    -1.177252825308     0.242687818033    12.000000000000
         C            1.816946964667     1.060148174692     0.411037818033    12.000000000000
         C           -2.521610035333     1.181291174692    -0.226539181967    12.000000000000
         C           -2.481178035333    -1.189979825308     0.240882818033    12.000000000000
         C            3.113404964667     0.607627174692     0.241694818033    12.000000000000
         C           -3.201928035333    -0.013438825308     0.017895818033    12.000000000000
         C            2.977402964667    -0.695865825308    -0.264974181967    12.000000000000
         H           -0.593241035333     2.122732174692    -0.486262181967     1.007825032230
         H           -0.506972035333    -2.076873825308     0.419998818033     1.007825032230
         H            1.418208964667     1.980659174692     0.813270818033     1.007825032230
         H           -3.076059035333     2.096540174692    -0.418175181967     1.007825032230
         H           -3.006542035333    -2.122962825308     0.429013818033     1.007825032230
         H            4.023560964667     1.144720174692     0.469157818033     1.007825032230
         H           -4.288661035333    -0.029451825308     0.026004818033     1.007825032230
         H            3.748823964667    -1.402862825308    -0.541974181967     1.007825032230

  Basis Set: AUG-CC-PVTZ
    Blend: AUG-CC-PVTZ
  Basis Set: (AUG-CC-PVTZ AUX)
    Blend: AUG-CC-PVTZ-JKFIT
	 Reference Energy          =    -454.4888886801798549 [Eh]
	 Singles Energy            =      -0.0000000000000000 [Eh]
	 Same-Spin Energy          =      -0.5096372592368433 [Eh]
	 Opposite-Spin Energy      =      -1.5472292177384555 [Eh]
	 Correlation Energy        =      -2.0568664769752987 [Eh]
	 Total Energy              =    -456.5457551571551562 [Eh]

	 ================> DF-SCS-MP2 Energies <==================
	-----------------------------------------------------------
	 SCS Same-Spin Scale       =       0.3333333333333333 [-]
	 SCS Opposite-Spin Scale   =       1.2000000000000000 [-]
	 SCS Same-Spin Energy      =      -0.1698790864122811 [Eh]
	 SCS Opposite-Spin Energy  =      -1.8566750612861465 [Eh]
	 SCS Correlation Energy    =      -2.0265541476984277 [Eh]
	 SCS Total Energy          =    -456.5154428278783030 [Eh]
	-----------------------------------------------------------

  Dipole Moment: [D]
     X:    -0.9235      Y:     1.6085      Z:     0.7264     Total:     1.9919

*** Psi4 exiting successfully. Buy a developer a beer!
