                               Psi4 1.3.2 release

  ==> Input File <==

--------------------------------------------------------------------------
#psi4
#
memory 32 gb

molecule  {
0 1
  N        1.0119030     0.0333230     0.0008060
  N        1.6997840    -1.0566340    -0.4179730
  C       -0.3240145     0.0671743    -0.0201630
  C       -1.1124080     1.1967220    -0.2540550
  C       -1.0729400    -1.1865160     0.2388070
  C        1.8312940     1.0508850     0.4071570
  C       -2.5072630     1.1720280    -0.2304200
  C       -2.4668310    -1.1992430     0.2370020
  C        3.1277520     0.5983640     0.2378140
  C       -3.1875810    -0.0227020     0.0140150
  C        2.9917500    -0.7051290    -0.2688550
  H       -0.5788940     2.1134690    -0.4901430
  H       -0.4926250    -2.0861370     0.4161180
  H        1.4325560     1.9713960     0.8093900
  H       -3.0617120     2.0872770    -0.4220560
  H       -2.9921950    -2.1322260     0.4251330
  H        4.0379080     1.1354570     0.4652770
  H       -4.2743140    -0.0387150     0.0221240
  H        3.7631710    -1.4121260    -0.5458550
units angstrom
no_reorient  #important for SAPT in psi4, default
symmetry c1  #important for SAPT in psi4, default
}

set PROPERTIES_ORIGIN ["COM"]
properties('MP2/aug-cc-pvtz', properties = ['dipole'])
--------------------------------------------------------------------------

    Molecular point group: c1
  Charge       = 0
  Multiplicity = 1
  Basis Set: AUG-CC-PVTZ
    Blend: AUG-CC-PVTZ
  Basis Set: (AUG-CC-PVTZ AUX)
    Blend: AUG-CC-PVTZ-JKFIT

    Orbital Energies [Eh]
    ---------------------

    Doubly Occupied:

       1A    -15.655793     2A    -15.596206     3A    -11.293257
       4A    -11.287190     5A    -11.266344     6A    -11.245593
       7A    -11.245468     8A    -11.243685     9A    -11.242100
      10A    -11.237885    11A    -11.233521    12A     -1.397971
      13A     -1.177046    14A     -1.119042    15A     -1.069854
      16A     -1.018385    17A     -0.990940    18A     -0.873843
      19A     -0.846341    20A     -0.799411    21A     -0.778436
      22A     -0.745580    23A     -0.685829    24A     -0.653131
      25A     -0.642900    26A     -0.618930    27A     -0.602281
      28A     -0.593052    29A     -0.584734    30A     -0.568048
      31A     -0.523648    32A     -0.502741    33A     -0.493816
      34A     -0.466024    35A     -0.402399    36A     -0.354741
      37A     -0.343511    38A     -0.301880

  @DF-RHF Final Energy:  -454.47546999915630

   => Energetics <=

    Nuclear Repulsion Energy =            546.6081779103773215
    One-Electron Energy =               -1698.7641835552954035
    Two-Electron Energy =                 697.6805356457616654
    Total Energy =                       -454.4754699991563029
  Basis Set: (AUG-CC-PVTZ AUX)
    Blend: AUG-CC-PVTZ-RI
    Molecular point group: c1

    Geometry (in Angstrom), charge = 0, multiplicity = 1:

       Center              X                  Y                   Z               Mass
    ------------   -----------------  -----------------  -----------------  -----------------
         N            0.990066196847     0.040397987332     0.006502498755    14.003074004430
         N            1.677947196847    -1.049559012668    -0.412276501245    14.003074004430
         C           -0.345851303153     0.074249287332    -0.014466501245    12.000000000000
         C           -1.134244803153     1.203796987332    -0.248358501245    12.000000000000
         C           -1.094776803153    -1.179441012668     0.244503498755    12.000000000000
         C            1.809457196847     1.057959987332     0.412853498755    12.000000000000
         C           -2.529099803153     1.179102987332    -0.224723501245    12.000000000000
         C           -2.488667803153    -1.192168012668     0.242698498755    12.000000000000
         C            3.105915196847     0.605438987332     0.243510498755    12.000000000000
         C           -3.209417803153    -0.015627012668     0.019711498755    12.000000000000
         C            2.969913196847    -0.698054012668    -0.263158501245    12.000000000000
         H           -0.600730803153     2.120543987332    -0.484446501245     1.007825032230
         H           -0.514461803153    -2.079062012668     0.421814498755     1.007825032230
         H            1.410719196847     1.978470987332     0.815086498755     1.007825032230
         H           -3.083548803153     2.094351987332    -0.416359501245     1.007825032230
         H           -3.014031803153    -2.125151012668     0.430829498755     1.007825032230
         H            4.016071196847     1.142531987332     0.470973498755     1.007825032230
         H           -4.296150803153    -0.031640012668     0.027820498755     1.007825032230
         H            3.741334196847    -1.405051012668    -0.540158501245     1.007825032230

  Basis Set: AUG-CC-PVTZ
    Blend: AUG-CC-PVTZ
  Basis Set: (AUG-CC-PVTZ AUX)
    Blend: AUG-CC-PVTZ-JKFIT
	 Reference Energy          =    -454.4754699991563029 [Eh]
	 Singles Energy            =      -0.0000000000000000 [Eh]
	 Same-Spin Energy          =      -0.5103041124242049 [Eh]
	 Opposite-Spin Energy      =      -1.5491892947382369 [Eh]
	 Correlation Energy        =      -2.0594934071624418 [Eh]
	 Total Energy              =    -456.5349634063187523 [Eh]

	 ================> DF-SCS-MP2 Energies <==================
	-----------------------------------------------------------
	 SCS Same-Spin Scale       =       0.3333333333333333 [-]
	 SCS Opposite-Spin Scale   =       1.2000000000000000 [-]
	 SCS Same-Spin Energy      =      -0.1701013708080683 [Eh]
	 SCS Opposite-Spin Energy  =      -1.8590271536858842 [Eh]
	 SCS Correlation Energy    =      -2.0291285244939523 [Eh]
	 SCS Total Energy          =    -456.5045985236502588 [Eh]
	-----------------------------------------------------------

  Dipole Moment: [D]
     X:    -0.4006      Y:     1.6399      Z:     0.7326     Total:     1.8403

*** Psi4 exiting successfully. Buy a developer a beer!
