                               Psi4 1.3.2 release

  ==> Input File <==

--------------------------------------------------------------------------
#psi4
#
memory 32 gb

molecule  {
0 1
  N        1.0119030     0.0333230     0.0008060
  N        1.6997840    -1.0566340    -0.4179730
  C       -0.4061902     0.0623841     0.0102116
  C       -1.1124080     1.1967220    -0.2540550
  C       -1.0729400    -1.1865160     0.2388070
  C        1.8312940     1.0508850     0.4071570
  C       -2.5072630     1.1720280    -0.2304200
  C       -2.4668310    -1.1992430     0.2370020
  C        3.1277520     0.5983640     0.2378140
  C       -3.1875810    -0.0227020     0.0140150
  C        2.9917500    -0.7051290    -0.2688550
  H       -0.5788940     2.1134690    -0.4901430
  H       -0.4926250    -2.0861370     0.4161180
  H        1.4325560     1.9713960     0.8093900
  H       -3.0617120     2.0872770    -0.4220560
  H       -2.9921950    -2.1322260     0.4251330
  H        4.0379080     1.1354570     0.4652770
  H       -4.2743140    -0.0387150     0.0221240
  H        3.7631710    -1.4121260    -0.5458550
units angstrom
no_reorient  #important for SAPT in psi4, default
symmetry c1  #important for SAPT in psi4, default
}

set PROPERTIES_ORIGIN ["COM"]
properties('MP2/aug-cc-pvtz', properties = ['dipole'])
--------------------------------------------------------------------------

    Molecular point group: c1
  Charge       = 0
  Multiplicity = 1
  Basis Set: AUG-CC-PVTZ
    Blend: AUG-CC-PVTZ
  Basis Set: (AUG-CC-PVTZ AUX)
    Blend: AUG-CC-PVTZ-JKFIT

    Orbital Energies [Eh]
    ---------------------

    Doubly Occupied:

       1A    -15.651932     2A    -15.591677     3A    -11.291692
       4A    -11.281648     5A    -11.260144     6A    -11.247997
       7A    -11.245630     8A    -11.244364     9A    -11.243625
      10A    -11.241157    11A    -11.227759    12A     -1.382282
      13A     -1.176409    14A     -1.111157    15A     -1.062727
      16A     -1.025665    17A     -0.997493    18A     -0.860143
      19A     -0.848644    20A     -0.797119    21A     -0.777884
      22A     -0.742267    23A     -0.687133    24A     -0.648687
      25A     -0.639983    26A     -0.614865    27A     -0.600095
      28A     -0.593181    29A     -0.587930    30A     -0.563712
      31A     -0.521134    32A     -0.511293    33A     -0.505359
      34A     -0.462564    35A     -0.395589    36A     -0.349684
      37A     -0.346689    38A     -0.312636

  @DF-RHF Final Energy:  -454.48568311616327

   => Energetics <=

    Nuclear Repulsion Energy =            546.3411228787485925
    One-Electron Energy =               -1698.3537152511742079
    Two-Electron Energy =                 697.5269092562623428
    Total Energy =                       -454.4856831161632726
  Basis Set: (AUG-CC-PVTZ AUX)
    Blend: AUG-CC-PVTZ-RI
    Molecular point group: c1

    Geometry (in Angstrom), charge = 0, multiplicity = 1:

       Center              X                  Y                   Z               Mass
    ------------   -----------------  -----------------  -----------------  -----------------
         N            0.996910904057     0.040796980178     0.003972489962    14.003074004430
         N            1.684791904057    -1.049160019822    -0.414806510038    14.003074004430
         C           -0.421182295943     0.069858080178     0.013378089962    12.000000000000
         C           -1.127400095943     1.204195980178    -0.250888510038    12.000000000000
         C           -1.087932095943    -1.179042019822     0.241973489962    12.000000000000
         C            1.816301904057     1.058358980178     0.410323489962    12.000000000000
         C           -2.522255095943     1.179501980178    -0.227253510038    12.000000000000
         C           -2.481823095943    -1.191769019822     0.240168489962    12.000000000000
         C            3.112759904057     0.605837980178     0.240980489962    12.000000000000
         C           -3.202573095943    -0.015228019822     0.017181489962    12.000000000000
         C            2.976757904057    -0.697655019822    -0.265688510038    12.000000000000
         H           -0.593886095943     2.120942980178    -0.486976510038     1.007825032230
         H           -0.507617095943    -2.078663019822     0.419284489962     1.007825032230
         H            1.417563904057     1.978869980178     0.812556489962     1.007825032230
         H           -3.076704095943     2.094750980178    -0.418889510038     1.007825032230
         H           -3.007187095943    -2.124752019822     0.428299489962     1.007825032230
         H            4.022915904057     1.142930980178     0.468443489962     1.007825032230
         H           -4.289306095943    -0.031241019822     0.025290489962     1.007825032230
         H            3.748178904057    -1.404652019822    -0.542688510038     1.007825032230

  Basis Set: AUG-CC-PVTZ
    Blend: AUG-CC-PVTZ
  Basis Set: (AUG-CC-PVTZ AUX)
    Blend: AUG-CC-PVTZ-JKFIT
	 Reference Energy          =    -454.4856831161632726 [Eh]
	 Singles Energy            =      -0.0000000000000000 [Eh]
	 Same-Spin Energy          =      -0.5095770707854692 [Eh]
	 Opposite-Spin Energy      =      -1.5479245696140249 [Eh]
	 Correlation Energy        =      -2.0575016403994941 [Eh]
	 Total Energy              =    -456.5431847565627663 [Eh]

	 ================> DF-SCS-MP2 Energies <==================
	-----------------------------------------------------------
	 SCS Same-Spin Scale       =       0.3333333333333333 [-]
	 SCS Opposite-Spin Scale   =       1.2000000000000000 [-]
	 SCS Same-Spin Energy      =      -0.1698590235951564 [Eh]
	 SCS Opposite-Spin Energy  =      -1.8575094835368298 [Eh]
	 SCS Correlation Energy    =      -2.0273685071319862 [Eh]
	 SCS Total Energy          =    -456.5130516232952687 [Eh]
	-----------------------------------------------------------

  Dipole Moment: [D]
     X:    -0.8831      Y:     1.6451      Z:     0.7310     Total:     2.0051

*** Psi4 exiting successfully. Buy a developer a beer!
