                               Psi4 1.3.2 release

  ==> Input File <==

--------------------------------------------------------------------------
#psi4
#
memory 32 gb

molecule  {
0 1
  N        1.0119030     0.0333230     0.0008060
  N        1.6997840    -1.0566340    -0.4179730
  C       -0.4063900     0.0163860    -0.0081010
  C       -1.1124080     1.1967220    -0.2540550
  C       -1.0729400    -1.1865160     0.2388070
  C        1.8312940     1.0508850     0.4071570
  C       -2.5072630     1.1720280    -0.2304200
  C       -2.4668310    -1.1992430     0.2370020
  C        3.1277520     0.5983640     0.2378140
  C       -3.1875810    -0.0227020     0.0140150
  C        2.9917500    -0.7051290    -0.2688550
  H       -0.5788940     2.1134690    -0.4901430
  H       -0.4926250    -2.0861370     0.4161180
  H        1.4325560     1.9713960     0.8093900
  H       -3.0617120     2.0872770    -0.4220560
  H       -2.9921950    -2.1322260     0.4251330
  H        4.2062972     1.2348253     0.5073602
  H       -4.2743140    -0.0387150     0.0221240
  H        3.7631710    -1.4121260    -0.5458550
units angstrom
no_reorient  #important for SAPT in psi4, default
symmetry c1  #important for SAPT in psi4, default
}

set PROPERTIES_ORIGIN ["COM"]
properties('MP2/aug-cc-pvtz', properties = ['dipole'])
--------------------------------------------------------------------------

    Molecular point group: c1
  Charge       = 0
  Multiplicity = 1
  Basis Set: AUG-CC-PVTZ
    Blend: AUG-CC-PVTZ
  Basis Set: (AUG-CC-PVTZ AUX)
    Blend: AUG-CC-PVTZ-JKFIT

    Orbital Energies [Eh]
    ---------------------

    Doubly Occupied:

       1A    -15.653052     2A    -15.592228     3A    -11.292377
       4A    -11.284339     5A    -11.261624     6A    -11.248743
       7A    -11.248647     8A    -11.247217     9A    -11.246416
      10A    -11.241558    11A    -11.241345    12A     -1.383862
      13A     -1.176187    14A     -1.111182    15A     -1.062662
      16A     -1.024808    17A     -0.997256    18A     -0.858653
      19A     -0.847557    20A     -0.790568    21A     -0.778422
      22A     -0.738625    23A     -0.684745    24A     -0.649446
      25A     -0.638468    26A     -0.611696    27A     -0.597729
      28A     -0.593789    29A     -0.570461    30A     -0.551984
      31A     -0.519992    32A     -0.511236    33A     -0.506616
      34A     -0.462419    35A     -0.395952    36A     -0.350980
      37A     -0.346879    38A     -0.313733

  @DF-RHF Final Energy:  -454.46509295268260

   => Energetics <=

    Nuclear Repulsion Energy =            545.4402847209880747
    One-Electron Energy =               -1696.5438501050955438
    Two-Electron Energy =                 696.6384724314248160
    Total Energy =                       -454.4650929526826530
  Basis Set: (AUG-CC-PVTZ AUX)
    Blend: AUG-CC-PVTZ-RI
    Molecular point group: c1

    Geometry (in Angstrom), charge = 0, multiplicity = 1:

       Center              X                  Y                   Z               Mass
    ------------   -----------------  -----------------  -----------------  -----------------
         N            0.995749588692     0.043933200527     0.005203421026    14.003074004430
         N            1.683630588692    -1.046023799473    -0.413575578974    14.003074004430
         C           -0.422543411308     0.026996200527    -0.003703578974    12.000000000000
         C           -1.128561411308     1.207332200527    -0.249657578974    12.000000000000
         C           -1.089093411308    -1.175905799473     0.243204421026    12.000000000000
         C            1.815140588692     1.061495200527     0.411554421026    12.000000000000
         C           -2.523416411308     1.182638200527    -0.226022578974    12.000000000000
         C           -2.482984411308    -1.188632799473     0.241399421026    12.000000000000
         C            3.111598588692     0.608974200527     0.242211421026    12.000000000000
         C           -3.203734411308    -0.012091799473     0.018412421026    12.000000000000
         C            2.975596588692    -0.694518799473    -0.264457578974    12.000000000000
         H           -0.595047411308     2.124079200527    -0.485745578974     1.007825032230
         H           -0.508778411308    -2.075526799473     0.420515421026     1.007825032230
         H            1.416402588692     1.982006200527     0.813787421026     1.007825032230
         H           -3.077865411308     2.097887200527    -0.417658578974     1.007825032230
         H           -3.008348411308    -2.121615799473     0.429530421026     1.007825032230
         H            4.190143788692     1.245435500527     0.511757621026     1.007825032230
         H           -4.290467411308    -0.028104799473     0.026521421026     1.007825032230
         H            3.747017588692    -1.401515799473    -0.541457578974     1.007825032230

  Basis Set: AUG-CC-PVTZ
    Blend: AUG-CC-PVTZ
  Basis Set: (AUG-CC-PVTZ AUX)
    Blend: AUG-CC-PVTZ-JKFIT
	 Reference Energy          =    -454.4650929526825962 [Eh]
	 Singles Energy            =      -0.0000000000000000 [Eh]
	 Same-Spin Energy          =      -0.5100977635352619 [Eh]
	 Opposite-Spin Energy      =      -1.5499014287914501 [Eh]
	 Correlation Energy        =      -2.0599991923267122 [Eh]
	 Total Energy              =    -456.5250921450092960 [Eh]

	 ================> DF-SCS-MP2 Energies <==================
	-----------------------------------------------------------
	 SCS Same-Spin Scale       =       0.3333333333333333 [-]
	 SCS Opposite-Spin Scale   =       1.2000000000000000 [-]
	 SCS Same-Spin Energy      =      -0.1700325878450873 [Eh]
	 SCS Opposite-Spin Energy  =      -1.8598817145497399 [Eh]
	 SCS Correlation Energy    =      -2.0299143023948272 [Eh]
	 SCS Total Energy          =    -456.4950072550774394 [Eh]
	-----------------------------------------------------------

  Dipole Moment: [D]
     X:    -0.9289      Y:     1.6155      Z:     0.7294     Total:     2.0012

*** Psi4 exiting successfully. Buy a developer a beer!
