                               Psi4 1.3.2 release

  ==> Input File <==

--------------------------------------------------------------------------
#psi4
#
memory 32 gb

molecule  {
0 1
  N        1.0119030     0.0333230     0.0008060
  N        1.5982666    -0.8957783    -0.3561696
  C       -0.4063900     0.0163860    -0.0081010
  C       -1.1124080     1.1967220    -0.2540550
  C       -1.0729400    -1.1865160     0.2388070
  C        1.8312940     1.0508850     0.4071570
  C       -2.5072630     1.1720280    -0.2304200
  C       -2.4668310    -1.1992430     0.2370020
  C        3.1277520     0.5983640     0.2378140
  C       -3.1875810    -0.0227020     0.0140150
  C        2.9917500    -0.7051290    -0.2688550
  H       -0.5788940     2.1134690    -0.4901430
  H       -0.4926250    -2.0861370     0.4161180
  H        1.4325560     1.9713960     0.8093900
  H       -3.0617120     2.0872770    -0.4220560
  H       -2.9921950    -2.1322260     0.4251330
  H        4.0379080     1.1354570     0.4652770
  H       -4.2743140    -0.0387150     0.0221240
  H        3.7631710    -1.4121260    -0.5458550
units angstrom
no_reorient  #important for SAPT in psi4, default
symmetry c1  #important for SAPT in psi4, default
}

set PROPERTIES_ORIGIN ["COM"]
properties('MP2/aug-cc-pvtz', properties = ['dipole'])
--------------------------------------------------------------------------

    Molecular point group: c1
  Charge       = 0
  Multiplicity = 1
  Basis Set: AUG-CC-PVTZ
    Blend: AUG-CC-PVTZ
  Basis Set: (AUG-CC-PVTZ AUX)
    Blend: AUG-CC-PVTZ-JKFIT

    Orbital Energies [Eh]
    ---------------------

    Doubly Occupied:

       1A    -15.667592     2A    -15.579906     3A    -11.293604
       4A    -11.253020     5A    -11.252530     6A    -11.251174
       7A    -11.250246     8A    -11.247978     9A    -11.247150
      10A    -11.246996    11A    -11.229656    12A     -1.483138
      13A     -1.179268    14A     -1.102965    15A     -1.076991
      16A     -1.028696    17A     -1.002770    18A     -0.872303
      19A     -0.854271    20A     -0.814843    21A     -0.775168
      22A     -0.737852    23A     -0.691740    24A     -0.678484
      25A     -0.651286    26A     -0.631270    27A     -0.614659
      28A     -0.601645    29A     -0.591303    30A     -0.553261
      31A     -0.527322    32A     -0.516284    33A     -0.510244
      34A     -0.437405    35A     -0.392192    36A     -0.351397
      37A     -0.343859    38A     -0.304871

  @DF-RHF Final Energy:  -454.44623186822878

   => Energetics <=

    Nuclear Repulsion Energy =            551.8074363433125882
    One-Electron Energy =               -1708.8166570662594950
    Two-Electron Energy =                 702.5629888547180144
    Total Energy =                       -454.4462318682287787
  Basis Set: (AUG-CC-PVTZ AUX)
    Blend: AUG-CC-PVTZ-RI
    Molecular point group: c1

    Geometry (in Angstrom), charge = 0, multiplicity = 1:

       Center              X                  Y                   Z               Mass
    ------------   -----------------  -----------------  -----------------  -----------------
         N            1.006794749666     0.028993607888    -0.000509303569    14.003074004430
         N            1.593158349666    -0.900107692112    -0.357484903569    14.003074004430
         C           -0.411498250334     0.012056607888    -0.009416303569    12.000000000000
         C           -1.117516250334     1.192392607888    -0.255370303569    12.000000000000
         C           -1.078048250334    -1.190845392112     0.237491696431    12.000000000000
         C            1.826185749666     1.046555607888     0.405841696431    12.000000000000
         C           -2.512371250334     1.167698607888    -0.231735303569    12.000000000000
         C           -2.471939250334    -1.203572392112     0.235686696431    12.000000000000
         C            3.122643749666     0.594034607888     0.236498696431    12.000000000000
         C           -3.192689250334    -0.027031392112     0.012699696431    12.000000000000
         C            2.986641749666    -0.709458392112    -0.270170303569    12.000000000000
         H           -0.584002250334     2.109139607888    -0.491458303569     1.007825032230
         H           -0.497733250334    -2.090466392112     0.414802696431     1.007825032230
         H            1.427447749666     1.967066607888     0.808074696431     1.007825032230
         H           -3.066820250334     2.082947607888    -0.423371303569     1.007825032230
         H           -2.997303250334    -2.136555392112     0.423817696431     1.007825032230
         H            4.032799749666     1.131127607888     0.463961696431     1.007825032230
         H           -4.279422250334    -0.043044392112     0.020808696431     1.007825032230
         H            3.758062749666    -1.416455392112    -0.547170303569     1.007825032230

  Basis Set: AUG-CC-PVTZ
    Blend: AUG-CC-PVTZ
  Basis Set: (AUG-CC-PVTZ AUX)
    Blend: AUG-CC-PVTZ-JKFIT
	 Reference Energy          =    -454.4462318682287787 [Eh]
	 Singles Energy            =      -0.0000000000000000 [Eh]
	 Same-Spin Energy          =      -0.5102832443253793 [Eh]
	 Opposite-Spin Energy      =      -1.5445856326414558 [Eh]
	 Correlation Energy        =      -2.0548688769668351 [Eh]
	 Total Energy              =    -456.5011007451956289 [Eh]

	 ================> DF-SCS-MP2 Energies <==================
	-----------------------------------------------------------
	 SCS Same-Spin Scale       =       0.3333333333333333 [-]
	 SCS Opposite-Spin Scale   =       1.2000000000000000 [-]
	 SCS Same-Spin Energy      =      -0.1700944147751264 [Eh]
	 SCS Opposite-Spin Energy  =      -1.8535027591697468 [Eh]
	 SCS Correlation Energy    =      -2.0235971739448733 [Eh]
	 SCS Total Energy          =    -456.4698290421736715 [Eh]
	-----------------------------------------------------------

  Dipole Moment: [D]
     X:    -1.1754      Y:     1.3608      Z:     0.6210     Total:     1.9024

*** Psi4 exiting successfully. Buy a developer a beer!
