                               Psi4 1.3.2 release

  ==> Input File <==

--------------------------------------------------------------------------
#psi4
#
memory 32 gb

molecule  {
0 1
  N        1.0119030     0.0333230     0.0008060
  N        1.6997840    -1.0566340    -0.4179730
  C       -0.4063900     0.0163860    -0.0081010
  C       -1.0618768     1.1122429    -0.2364516
  C       -1.0729400    -1.1865160     0.2388070
  C        1.8312940     1.0508850     0.4071570
  C       -2.5072630     1.1720280    -0.2304200
  C       -2.4668310    -1.1992430     0.2370020
  C        3.1277520     0.5983640     0.2378140
  C       -3.1875810    -0.0227020     0.0140150
  C        2.9917500    -0.7051290    -0.2688550
  H       -0.5788940     2.1134690    -0.4901430
  H       -0.4926250    -2.0861370     0.4161180
  H        1.4325560     1.9713960     0.8093900
  H       -3.0617120     2.0872770    -0.4220560
  H       -2.9921950    -2.1322260     0.4251330
  H        4.0379080     1.1354570     0.4652770
  H       -4.2743140    -0.0387150     0.0221240
  H        3.7631710    -1.4121260    -0.5458550
units angstrom
no_reorient  #important for SAPT in psi4, default
symmetry c1  #important for SAPT in psi4, default
}

set PROPERTIES_ORIGIN ["COM"]
properties('MP2/aug-cc-pvtz', properties = ['dipole'])
--------------------------------------------------------------------------

    Molecular point group: c1
  Charge       = 0
  Multiplicity = 1
  Basis Set: AUG-CC-PVTZ
    Blend: AUG-CC-PVTZ
  Basis Set: (AUG-CC-PVTZ AUX)
    Blend: AUG-CC-PVTZ-JKFIT

    Orbital Energies [Eh]
    ---------------------

    Doubly Occupied:

       1A    -15.649725     2A    -15.590004     3A    -11.281441
       4A    -11.280006     5A    -11.258543     6A    -11.252746
       7A    -11.245301     8A    -11.244394     9A    -11.242286
      10A    -11.241940    11A    -11.226975    12A     -1.381975
      13A     -1.184672    14A     -1.109623    15A     -1.062704
      16A     -1.020404    17A     -1.005749    18A     -0.855836
      19A     -0.854633    20A     -0.796084    21A     -0.778716
      22A     -0.743184    23A     -0.682590    24A     -0.653597
      25A     -0.637729    26A     -0.616690    27A     -0.599964
      28A     -0.590454    29A     -0.584731    30A     -0.561688
      31A     -0.521492    32A     -0.515989    33A     -0.499278
      34A     -0.462341    35A     -0.397643    36A     -0.348355
      37A     -0.341565    38A     -0.320456

  @DF-RHF Final Energy:  -454.47492795230244

   => Energetics <=

    Nuclear Repulsion Energy =            547.9595179339701190
    One-Electron Energy =               -1701.5858830231104548
    Two-Electron Energy =                 699.1514371368378988
    Total Energy =                       -454.4749279523024370
  Basis Set: (AUG-CC-PVTZ AUX)
    Blend: AUG-CC-PVTZ-RI
    Molecular point group: c1

    Geometry (in Angstrom), charge = 0, multiplicity = 1:

       Center              X                  Y                   Z               Mass
    ------------   -----------------  -----------------  -----------------  -----------------
         N            0.992718622197     0.051664891636     0.004031561760    14.003074004430
         N            1.680599622197    -1.038292108364    -0.414747438240    14.003074004430
         C           -0.425574377803     0.034727891636    -0.004875438240    12.000000000000
         C           -1.081061177803     1.130584791636    -0.233226038240    12.000000000000
         C           -1.092124377803    -1.168174108364     0.242032561760    12.000000000000
         C            1.812109622197     1.069226891636     0.410382561760    12.000000000000
         C           -2.526447377803     1.190369891636    -0.227194438240    12.000000000000
         C           -2.486015377803    -1.180901108364     0.240227561760    12.000000000000
         C            3.108567622197     0.616705891636     0.241039561760    12.000000000000
         C           -3.206765377803    -0.004360108364     0.017240561760    12.000000000000
         C            2.972565622197    -0.686787108364    -0.265629438240    12.000000000000
         H           -0.598078377803     2.131810891636    -0.486917438240     1.007825032230
         H           -0.511809377803    -2.067795108364     0.419343561760     1.007825032230
         H            1.413371622197     1.989737891636     0.812615561760     1.007825032230
         H           -3.080896377803     2.105618891636    -0.418830438240     1.007825032230
         H           -3.011379377803    -2.113884108364     0.428358561760     1.007825032230
         H            4.018723622197     1.153798891636     0.468502561760     1.007825032230
         H           -4.293498377803    -0.020373108364     0.025349561760     1.007825032230
         H            3.743986622197    -1.393784108364    -0.542629438240     1.007825032230

  Basis Set: AUG-CC-PVTZ
    Blend: AUG-CC-PVTZ
  Basis Set: (AUG-CC-PVTZ AUX)
    Blend: AUG-CC-PVTZ-JKFIT
	 Reference Energy          =    -454.4749279523024370 [Eh]
	 Singles Energy            =      -0.0000000000000000 [Eh]
	 Same-Spin Energy          =      -0.5094694879044253 [Eh]
	 Opposite-Spin Energy      =      -1.5481946370942294 [Eh]
	 Correlation Energy        =      -2.0576641249986549 [Eh]
	 Total Energy              =    -456.5325920773011035 [Eh]

	 ================> DF-SCS-MP2 Energies <==================
	-----------------------------------------------------------
	 SCS Same-Spin Scale       =       0.3333333333333333 [-]
	 SCS Opposite-Spin Scale   =       1.2000000000000000 [-]
	 SCS Same-Spin Energy      =      -0.1698231626348084 [Eh]
	 SCS Opposite-Spin Energy  =      -1.8578335645130752 [Eh]
	 SCS Correlation Energy    =      -2.0276567271478836 [Eh]
	 SCS Total Energy          =    -456.5025846794503082 [Eh]
	-----------------------------------------------------------

  Dipole Moment: [D]
     X:    -0.9913      Y:     1.6592      Z:     0.7389     Total:     2.0692

*** Psi4 exiting successfully. Buy a developer a beer!
