                               Psi4 1.3.2 release

  ==> Input File <==

--------------------------------------------------------------------------
#psi4
#
memory 32 gb

molecule  {
0 1
  N        1.0119030     0.0333230     0.0008060
  N        1.6997840    -1.0566340    -0.4179730
  C       -0.4063900     0.0163860    -0.0081010
  C       -1.1124080     1.1967220    -0.2540550
  C       -1.0729400    -1.1865160     0.2388070
  C        1.8152228     1.0084575     0.3906086
  C       -2.5072630     1.1720280    -0.2304200
  C       -2.4668310    -1.1992430     0.2370020
  C        3.1277520     0.5983640     0.2378140
  C       -3.1875810    -0.0227020     0.0140150
  C        2.9917500    -0.7051290    -0.2688550
  H       -0.5788940     2.1134690    -0.4901430
  H       -0.4926250    -2.0861370     0.4161180
  H        1.4325560     1.9713960     0.8093900
  H       -3.0617120     2.0872770    -0.4220560
  H       -2.9921950    -2.1322260     0.4251330
  H        4.0379080     1.1354570     0.4652770
  H       -4.2743140    -0.0387150     0.0221240
  H        3.7631710    -1.4121260    -0.5458550
units angstrom
no_reorient  #important for SAPT in psi4, default
symmetry c1  #important for SAPT in psi4, default
}

set PROPERTIES_ORIGIN ["COM"]
properties('MP2/aug-cc-pvtz', properties = ['dipole'])
--------------------------------------------------------------------------

    Molecular point group: c1
  Charge       = 0
  Multiplicity = 1
  Basis Set: AUG-CC-PVTZ
    Blend: AUG-CC-PVTZ
  Basis Set: (AUG-CC-PVTZ AUX)
    Blend: AUG-CC-PVTZ-JKFIT

    Orbital Energies [Eh]
    ---------------------

    Doubly Occupied:

       1A    -15.652497     2A    -15.585338     3A    -11.293216
       4A    -11.281177     5A    -11.259110     6A    -11.249317
       7A    -11.248086     8A    -11.246915     9A    -11.242544
      10A    -11.242317    11A    -11.224046    12A     -1.391918
      13A     -1.177049    14A     -1.114283    15A     -1.065017
      16A     -1.025540    17A     -1.000832    18A     -0.863054
      19A     -0.849255    20A     -0.799539    21A     -0.775555
      22A     -0.741003    23A     -0.687274    24A     -0.651996
      25A     -0.640879    26A     -0.619168    27A     -0.598880
      28A     -0.598076    29A     -0.587752    30A     -0.553563
      31A     -0.522142    32A     -0.512038    33A     -0.507920
      34A     -0.460564    35A     -0.396111    36A     -0.349183
      37A     -0.346642    38A     -0.315448

  @DF-RHF Final Energy:  -454.48726574519168

   => Energetics <=

    Nuclear Repulsion Energy =            547.4302933679520038
    One-Electron Energy =               -1700.4846307986854299
    Two-Electron Energy =                 698.5670716855419187
    Total Energy =                       -454.4872657451916211
  Basis Set: (AUG-CC-PVTZ AUX)
    Blend: AUG-CC-PVTZ-RI
    Molecular point group: c1

    Geometry (in Angstrom), charge = 0, multiplicity = 1:

       Center              X                  Y                   Z               Mass
    ------------   -----------------  -----------------  -----------------  -----------------
         N            0.998266173693     0.048162263856     0.006876187016    14.003074004430
         N            1.686147173693    -1.041794736144    -0.411902812984    14.003074004430
         C           -0.420026826307     0.031225263856    -0.002030812984    12.000000000000
         C           -1.126044826307     1.211561263856    -0.247984812984    12.000000000000
         C           -1.086576826307    -1.171676736144     0.244877187016    12.000000000000
         C            1.801585973693     1.023296763856     0.396678787016    12.000000000000
         C           -2.520899826307     1.186867263856    -0.224349812984    12.000000000000
         C           -2.480467826307    -1.184403736144     0.243072187016    12.000000000000
         C            3.114115173693     0.613203263856     0.243884187016    12.000000000000
         C           -3.201217826307    -0.007862736144     0.020085187016    12.000000000000
         C            2.978113173693    -0.690289736144    -0.262784812984    12.000000000000
         H           -0.592530826307     2.128308263856    -0.484072812984     1.007825032230
         H           -0.506261826307    -2.071297736144     0.422188187016     1.007825032230
         H            1.418919173693     1.986235263856     0.815460187016     1.007825032230
         H           -3.075348826307     2.102116263856    -0.415985812984     1.007825032230
         H           -3.005831826307    -2.117386736144     0.431203187016     1.007825032230
         H            4.024271173693     1.150296263856     0.471347187016     1.007825032230
         H           -4.287950826307    -0.023875736144     0.028194187016     1.007825032230
         H            3.749534173693    -1.397286736144    -0.539784812984     1.007825032230

  Basis Set: AUG-CC-PVTZ
    Blend: AUG-CC-PVTZ
  Basis Set: (AUG-CC-PVTZ AUX)
    Blend: AUG-CC-PVTZ-JKFIT
	 Reference Energy          =    -454.4872657451916780 [Eh]
	 Singles Energy            =      -0.0000000000000000 [Eh]
	 Same-Spin Energy          =      -0.5092626965182065 [Eh]
	 Opposite-Spin Energy      =      -1.5466801612859655 [Eh]
	 Correlation Energy        =      -2.0559428578041721 [Eh]
	 Total Energy              =    -456.5432086029958327 [Eh]

	 ================> DF-SCS-MP2 Energies <==================
	-----------------------------------------------------------
	 SCS Same-Spin Scale       =       0.3333333333333333 [-]
	 SCS Opposite-Spin Scale   =       1.2000000000000000 [-]
	 SCS Same-Spin Energy      =      -0.1697542321727355 [Eh]
	 SCS Opposite-Spin Energy  =      -1.8560161935431585 [Eh]
	 SCS Correlation Energy    =      -2.0257704257158942 [Eh]
	 SCS Total Energy          =    -456.5130361709075828 [Eh]
	-----------------------------------------------------------

  Dipole Moment: [D]
     X:    -0.9968      Y:     1.6420      Z:     0.7378     Total:     2.0577

*** Psi4 exiting successfully. Buy a developer a beer!
