                               Psi4 1.3.2 release

  ==> Input File <==

--------------------------------------------------------------------------
#psi4
#
memory 32 gb

molecule  {
0 1
  N        1.0119030     0.0333230     0.0008060
  N        1.6997840    -1.0566340    -0.4179730
  C       -0.2064082     0.0187741    -0.0068451
  C       -1.1124080     1.1967220    -0.2540550
  C       -1.0729400    -1.1865160     0.2388070
  C        1.8312940     1.0508850     0.4071570
  C       -2.5072630     1.1720280    -0.2304200
  C       -2.4668310    -1.1992430     0.2370020
  C        3.1277520     0.5983640     0.2378140
  C       -3.1875810    -0.0227020     0.0140150
  C        2.9917500    -0.7051290    -0.2688550
  H       -0.5788940     2.1134690    -0.4901430
  H       -0.4926250    -2.0861370     0.4161180
  H        1.4325560     1.9713960     0.8093900
  H       -3.0617120     2.0872770    -0.4220560
  H       -2.9921950    -2.1322260     0.4251330
  H        4.0379080     1.1354570     0.4652770
  H       -4.2743140    -0.0387150     0.0221240
  H        3.7631710    -1.4121260    -0.5458550
units angstrom
no_reorient  #important for SAPT in psi4, default
symmetry c1  #important for SAPT in psi4, default
}

set PROPERTIES_ORIGIN ["COM"]
properties('MP2/aug-cc-pvtz', properties = ['dipole'])
--------------------------------------------------------------------------

    Molecular point group: c1
  Charge       = 0
  Multiplicity = 1
  Basis Set: AUG-CC-PVTZ
    Blend: AUG-CC-PVTZ
  Basis Set: (AUG-CC-PVTZ AUX)
    Blend: AUG-CC-PVTZ-JKFIT

    Orbital Energies [Eh]
    ---------------------

    Doubly Occupied:

       1A    -15.659822     2A    -15.602663     3A    -11.296996
       4A    -11.296800     5A    -11.276820     6A    -11.247409
       7A    -11.243908     8A    -11.241525     9A    -11.241091
      10A    -11.238775    11A    -11.230474    12A     -1.429228
      13A     -1.195312    14A     -1.118979    15A     -1.083147
      16A     -1.007046    17A     -0.980667    18A     -0.895456
      19A     -0.849215    20A     -0.798255    21A     -0.778531
      22A     -0.750018    23A     -0.680841    24A     -0.669442
      25A     -0.653174    26A     -0.627314    27A     -0.601092
      28A     -0.594117    29A     -0.576164    30A     -0.571044
      31A     -0.522309    32A     -0.492329    33A     -0.485613
      34A     -0.462966    35A     -0.411323    36A     -0.363984
      37A     -0.337474    38A     -0.283044

  @DF-RHF Final Energy:  -454.42471051442050

   => Energetics <=

    Nuclear Repulsion Energy =            547.3390183524162467
    One-Electron Energy =               -1699.9387232570159085
    Two-Electron Energy =                 698.1749943901789948
    Total Energy =                       -454.4247105144205534
  Basis Set: (AUG-CC-PVTZ AUX)
    Blend: AUG-CC-PVTZ-RI
    Molecular point group: c1

    Geometry (in Angstrom), charge = 0, multiplicity = 1:

       Center              X                  Y                   Z               Mass
    ------------   -----------------  -----------------  -----------------  -----------------
         N            0.980270348566     0.044429412654     0.005393203354    14.003074004430
         N            1.668151348566    -1.045527587346    -0.413385796646    14.003074004430
         C           -0.238040851434     0.029880512654    -0.002257896646    12.000000000000
         C           -1.144040651434     1.207828412654    -0.249467796646    12.000000000000
         C           -1.104572651434    -1.175409587346     0.243394203354    12.000000000000
         C            1.799661348566     1.061991412654     0.411744203354    12.000000000000
         C           -2.538895651434     1.183134412654    -0.225832796646    12.000000000000
         C           -2.498463651434    -1.188136587346     0.241589203354    12.000000000000
         C            3.096119348566     0.609470412654     0.242401203354    12.000000000000
         C           -3.219213651434    -0.011595587346     0.018602203354    12.000000000000
         C            2.960117348566    -0.694022587346    -0.264267796646    12.000000000000
         H           -0.610526651434     2.124575412654    -0.485555796646     1.007825032230
         H           -0.524257651434    -2.075030587346     0.420705203354     1.007825032230
         H            1.400923348566     1.982502412654     0.813977203354     1.007825032230
         H           -3.093344651434     2.098383412654    -0.417468796646     1.007825032230
         H           -3.023827651434    -2.121119587346     0.429720203354     1.007825032230
         H            4.006275348566     1.146563412654     0.469864203354     1.007825032230
         H           -4.305946651434    -0.027608587346     0.026711203354     1.007825032230
         H            3.731538348566    -1.401019587346    -0.541267796646     1.007825032230

  Basis Set: AUG-CC-PVTZ
    Blend: AUG-CC-PVTZ
  Basis Set: (AUG-CC-PVTZ AUX)
    Blend: AUG-CC-PVTZ-JKFIT
	 Reference Energy          =    -454.4247105144204966 [Eh]
	 Singles Energy            =      -0.0000000000000000 [Eh]
	 Same-Spin Energy          =      -0.5126831693077001 [Eh]
	 Opposite-Spin Energy      =      -1.5528549185429841 [Eh]
	 Correlation Energy        =      -2.0655380878506842 [Eh]
	 Total Energy              =    -456.4902486022712083 [Eh]

	 ================> DF-SCS-MP2 Energies <==================
	-----------------------------------------------------------
	 SCS Same-Spin Scale       =       0.3333333333333333 [-]
	 SCS Opposite-Spin Scale   =       1.2000000000000000 [-]
	 SCS Same-Spin Energy      =      -0.1708943897692334 [Eh]
	 SCS Opposite-Spin Energy  =      -1.8634259022515809 [Eh]
	 SCS Correlation Energy    =      -2.0343202920208143 [Eh]
	 SCS Total Energy          =    -456.4590308064413193 [Eh]
	-----------------------------------------------------------

  Dipole Moment: [D]
     X:     0.3025      Y:     1.6268      Z:     0.7484     Total:     1.8161

*** Psi4 exiting successfully. Buy a developer a beer!
