                               Psi4 1.3.2 release

  ==> Input File <==

--------------------------------------------------------------------------
#psi4
#
memory 32 gb

molecule  {
0 1
  N        1.0119030     0.0333230     0.0008060
  N        1.5739644    -1.1176901    -0.4417077
  C       -0.4063900     0.0163860    -0.0081010
  C       -1.1124080     1.1967220    -0.2540550
  C       -1.0729400    -1.1865160     0.2388070
  C        1.8312940     1.0508850     0.4071570
  C       -2.5072630     1.1720280    -0.2304200
  C       -2.4668310    -1.1992430     0.2370020
  C        3.1277520     0.5983640     0.2378140
  C       -3.1875810    -0.0227020     0.0140150
  C        2.9917500    -0.7051290    -0.2688550
  H       -0.5788940     2.1134690    -0.4901430
  H       -0.4926250    -2.0861370     0.4161180
  H        1.4325560     1.9713960     0.8093900
  H       -3.0617120     2.0872770    -0.4220560
  H       -2.9921950    -2.1322260     0.4251330
  H        4.0379080     1.1354570     0.4652770
  H       -4.2743140    -0.0387150     0.0221240
  H        3.7631710    -1.4121260    -0.5458550
units angstrom
no_reorient  #important for SAPT in psi4, default
symmetry c1  #important for SAPT in psi4, default
}

set PROPERTIES_ORIGIN ["COM"]
properties('MP2/aug-cc-pvtz', properties = ['dipole'])
--------------------------------------------------------------------------

    Molecular point group: c1
  Charge       = 0
  Multiplicity = 1
  Basis Set: AUG-CC-PVTZ
    Blend: AUG-CC-PVTZ
  Basis Set: (AUG-CC-PVTZ AUX)
    Blend: AUG-CC-PVTZ-JKFIT

    Orbital Energies [Eh]
    ---------------------

    Doubly Occupied:

       1A    -15.661383     2A    -15.604772     3A    -11.288862
       4A    -11.286046     5A    -11.273476     6A    -11.247369
       7A    -11.246030     8A    -11.245080     9A    -11.240731
      10A    -11.240158    11A    -11.236546    12A     -1.374844
      13A     -1.167690    14A     -1.090505    15A     -1.074209
      16A     -1.023287    17A     -0.994254    18A     -0.860909
      19A     -0.845136    20A     -0.793288    21A     -0.776829
      22A     -0.742872    23A     -0.685983    24A     -0.647607
      25A     -0.634915    26A     -0.613158    27A     -0.596440
      28A     -0.593173    29A     -0.580278    30A     -0.559040
      31A     -0.518711    32A     -0.508405    33A     -0.504694
      34A     -0.473608    35A     -0.389987    36A     -0.347136
      37A     -0.341875    38A     -0.310415

  @DF-RHF Final Energy:  -454.45632977118453

   => Energetics <=

    Nuclear Repulsion Energy =            545.0100126907955200
    One-Electron Energy =               -1695.6932852777431435
    Two-Electron Energy =                 696.2269428157630955
    Total Energy =                       -454.4563297711845280
  Basis Set: (AUG-CC-PVTZ AUX)
    Blend: AUG-CC-PVTZ-RI
    Molecular point group: c1

    Geometry (in Angstrom), charge = 0, multiplicity = 1:

       Center              X                  Y                   Z               Mass
    ------------   -----------------  -----------------  -----------------  -----------------
         N            1.009156854627     0.050562805895     0.007804757315    14.003074004430
         N            1.571218254627    -1.100450294105    -0.434708942685    14.003074004430
         C           -0.409136145373     0.033625805895    -0.001102242685    12.000000000000
         C           -1.115154145373     1.213961805895    -0.247056242685    12.000000000000
         C           -1.075686145373    -1.169276194105     0.245805757315    12.000000000000
         C            1.828547854627     1.068124805895     0.414155757315    12.000000000000
         C           -2.510009145373     1.189267805895    -0.223421242685    12.000000000000
         C           -2.469577145373    -1.182003194105     0.244000757315    12.000000000000
         C            3.125005854627     0.615603805895     0.244812757315    12.000000000000
         C           -3.190327145373    -0.005462194105     0.021013757315    12.000000000000
         C            2.989003854627    -0.687889194105    -0.261856242685    12.000000000000
         H           -0.581640145373     2.130708805895    -0.483144242685     1.007825032230
         H           -0.495371145373    -2.068897194105     0.423116757315     1.007825032230
         H            1.429809854627     1.988635805895     0.816388757315     1.007825032230
         H           -3.064458145373     2.104516805895    -0.415057242685     1.007825032230
         H           -2.994941145373    -2.114986194105     0.432131757315     1.007825032230
         H            4.035161854627     1.152696805895     0.472275757315     1.007825032230
         H           -4.277060145373    -0.021475194105     0.029122757315     1.007825032230
         H            3.760424854627    -1.394886194105    -0.538856242685     1.007825032230

  Basis Set: AUG-CC-PVTZ
    Blend: AUG-CC-PVTZ
  Basis Set: (AUG-CC-PVTZ AUX)
    Blend: AUG-CC-PVTZ-JKFIT
	 Reference Energy          =    -454.4563297711845280 [Eh]
	 Singles Energy            =      -0.0000000000000000 [Eh]
	 Same-Spin Energy          =      -0.5143072653258939 [Eh]
	 Opposite-Spin Energy      =      -1.5576264264917581 [Eh]
	 Correlation Energy        =      -2.0719336918176521 [Eh]
	 Total Energy              =    -456.5282634630021903 [Eh]

	 ================> DF-SCS-MP2 Energies <==================
	-----------------------------------------------------------
	 SCS Same-Spin Scale       =       0.3333333333333333 [-]
	 SCS Opposite-Spin Scale   =       1.2000000000000000 [-]
	 SCS Same-Spin Energy      =      -0.1714357551086313 [Eh]
	 SCS Opposite-Spin Energy  =      -1.8691517117901095 [Eh]
	 SCS Correlation Energy    =      -2.0405874668987409 [Eh]
	 SCS Total Energy          =    -456.4969172380832561 [Eh]
	-----------------------------------------------------------

  Dipole Moment: [D]
     X:    -0.7769      Y:     1.7994      Z:     0.8061     Total:     2.1192

*** Psi4 exiting successfully. Buy a developer a beer!
