                               Psi4 1.3.2 release

  ==> Input File <==

--------------------------------------------------------------------------
#psi4
#
memory 32 gb

molecule  {
0 1
  N        0.9375136     0.0876152     0.0260756
  N        1.6997840    -1.0566340    -0.4179730
  C       -0.4063900     0.0163860    -0.0081010
  C       -1.1124080     1.1967220    -0.2540550
  C       -1.0729400    -1.1865160     0.2388070
  C        1.8312940     1.0508850     0.4071570
  C       -2.5072630     1.1720280    -0.2304200
  C       -2.4668310    -1.1992430     0.2370020
  C        3.1277520     0.5983640     0.2378140
  C       -3.1875810    -0.0227020     0.0140150
  C        2.9917500    -0.7051290    -0.2688550
  H       -0.5788940     2.1134690    -0.4901430
  H       -0.4926250    -2.0861370     0.4161180
  H        1.4325560     1.9713960     0.8093900
  H       -3.0617120     2.0872770    -0.4220560
  H       -2.9921950    -2.1322260     0.4251330
  H        4.0379080     1.1354570     0.4652770
  H       -4.2743140    -0.0387150     0.0221240
  H        3.7631710    -1.4121260    -0.5458550
units angstrom
no_reorient  #important for SAPT in psi4, default
symmetry c1  #important for SAPT in psi4, default
}

set PROPERTIES_ORIGIN ["COM"]
properties('MP2/aug-cc-pvtz', properties = ['dipole'])
--------------------------------------------------------------------------

    Molecular point group: c1
  Charge       = 0
  Multiplicity = 1
  Basis Set: AUG-CC-PVTZ
    Blend: AUG-CC-PVTZ
  Basis Set: (AUG-CC-PVTZ AUX)
    Blend: AUG-CC-PVTZ-JKFIT

    Orbital Energies [Eh]
    ---------------------

    Doubly Occupied:

       1A    -15.646682     2A    -15.593591     3A    -11.292881
       4A    -11.286019     5A    -11.270644     6A    -11.244993
       7A    -11.243634     8A    -11.241417     9A    -11.237212
      10A    -11.236754    11A    -11.231416    12A     -1.361632
      13A     -1.181089    14A     -1.119078    15A     -1.058468
      16A     -1.021535    17A     -0.994677    18A     -0.872904
      19A     -0.847905    20A     -0.789883    21A     -0.778993
      22A     -0.740677    23A     -0.683795    24A     -0.650282
      25A     -0.642303    26A     -0.612643    27A     -0.602952
      28A     -0.594618    29A     -0.575620    30A     -0.568075
      31A     -0.520317    32A     -0.506951    33A     -0.504393
      34A     -0.454723    35A     -0.405775    36A     -0.350673
      37A     -0.344248    38A     -0.305432

  @DF-RHF Final Energy:  -454.47421917401857

   => Energetics <=

    Nuclear Repulsion Energy =            546.2072479302355532
    One-Electron Energy =               -1698.1331636661268476
    Two-Electron Energy =                 697.4516965618727227
    Total Energy =                       -454.4742191740185717
  Basis Set: (AUG-CC-PVTZ AUX)
    Blend: AUG-CC-PVTZ-RI
    Molecular point group: c1

    Geometry (in Angstrom), charge = 0, multiplicity = 1:

       Center              X                  Y                   Z               Mass
    ------------   -----------------  -----------------  -----------------  -----------------
         N            0.929768584953     0.093643478061     0.028311278245    14.003074004430
         N            1.692038984953    -1.050605721939    -0.415737321755    14.003074004430
         C           -0.414135015047     0.022414278061    -0.005865321755    12.000000000000
         C           -1.120153015047     1.202750278061    -0.251819321755    12.000000000000
         C           -1.080685015047    -1.180487721939     0.241042678245    12.000000000000
         C            1.823548984953     1.056913278061     0.409392678245    12.000000000000
         C           -2.515008015047     1.178056278061    -0.228184321755    12.000000000000
         C           -2.474576015047    -1.193214721939     0.239237678245    12.000000000000
         C            3.120006984953     0.604392278061     0.240049678245    12.000000000000
         C           -3.195326015047    -0.016673721939     0.016250678245    12.000000000000
         C            2.984004984953    -0.699100721939    -0.266619321755    12.000000000000
         H           -0.586639015047     2.119497278061    -0.487907321755     1.007825032230
         H           -0.500370015047    -2.080108721939     0.418353678245     1.007825032230
         H            1.424810984953     1.977424278061     0.811625678245     1.007825032230
         H           -3.069457015047     2.093305278061    -0.419820321755     1.007825032230
         H           -2.999940015047    -2.126197721939     0.427368678245     1.007825032230
         H            4.030162984953     1.141485278061     0.467512678245     1.007825032230
         H           -4.282059015047    -0.032686721939     0.024359678245     1.007825032230
         H            3.755425984953    -1.406097721939    -0.543619321755     1.007825032230

  Basis Set: AUG-CC-PVTZ
    Blend: AUG-CC-PVTZ
  Basis Set: (AUG-CC-PVTZ AUX)
    Blend: AUG-CC-PVTZ-JKFIT
	 Reference Energy          =    -454.4742191740185717 [Eh]
	 Singles Energy            =      -0.0000000000000000 [Eh]
	 Same-Spin Energy          =      -0.5101657290316759 [Eh]
	 Opposite-Spin Energy      =      -1.5503689382148376 [Eh]
	 Correlation Energy        =      -2.0605346672465137 [Eh]
	 Total Energy              =    -456.5347538412650579 [Eh]

	 ================> DF-SCS-MP2 Energies <==================
	-----------------------------------------------------------
	 SCS Same-Spin Scale       =       0.3333333333333333 [-]
	 SCS Opposite-Spin Scale   =       1.2000000000000000 [-]
	 SCS Same-Spin Energy      =      -0.1700552430105586 [Eh]
	 SCS Opposite-Spin Energy  =      -1.8604427258578049 [Eh]
	 SCS Correlation Energy    =      -2.0304979688683638 [Eh]
	 SCS Total Energy          =    -456.5047171428869319 [Eh]
	-----------------------------------------------------------

  Dipole Moment: [D]
     X:    -0.5287      Y:     1.5824      Z:     0.7331     Total:     1.8224

*** Psi4 exiting successfully. Buy a developer a beer!
