                               Psi4 1.3.2 release

  ==> Input File <==

--------------------------------------------------------------------------
#psi4
#
memory 32 gb

molecule  {
0 1
  N        1.0119030     0.0333230     0.0008060
  N        1.6997840    -1.0566340    -0.4179730
  C       -0.4063900     0.0163860    -0.0081010
  C       -1.1124080     1.1967220    -0.2540550
  C       -1.0729400    -1.1865160     0.2388070
  C        1.8312940     1.0508850     0.4071570
  C       -2.5072630     1.1720280    -0.2304200
  C       -2.4668310    -1.1992430     0.2370020
  C        3.1277520     0.5983640     0.2378140
  C       -3.1875810    -0.0227020     0.0140150
  C        2.9820708    -0.7978977    -0.3049143
  H       -0.5788940     2.1134690    -0.4901430
  H       -0.4926250    -2.0861370     0.4161180
  H        1.4325560     1.9713960     0.8093900
  H       -3.0617120     2.0872770    -0.4220560
  H       -2.9921950    -2.1322260     0.4251330
  H        4.0379080     1.1354570     0.4652770
  H       -4.2743140    -0.0387150     0.0221240
  H        3.7631710    -1.4121260    -0.5458550
units angstrom
no_reorient  #important for SAPT in psi4, default
symmetry c1  #important for SAPT in psi4, default
}

set PROPERTIES_ORIGIN ["COM"]
properties('MP2/aug-cc-pvtz', properties = ['dipole'])
--------------------------------------------------------------------------

    Molecular point group: c1
  Charge       = 0
  Multiplicity = 1
  Basis Set: AUG-CC-PVTZ
    Blend: AUG-CC-PVTZ
  Basis Set: (AUG-CC-PVTZ AUX)
    Blend: AUG-CC-PVTZ-JKFIT

    Orbital Energies [Eh]
    ---------------------

    Doubly Occupied:

       1A    -15.647086     2A    -15.594345     3A    -11.291463
       4A    -11.282166     5A    -11.264380     6A    -11.247446
       7A    -11.245613     8A    -11.245235     9A    -11.239729
      10A    -11.239571    11A    -11.234132    12A     -1.381604
      13A     -1.176025    14A     -1.115686    15A     -1.056598
      16A     -1.023695    17A     -0.993561    18A     -0.857295
      19A     -0.849764    20A     -0.803661    21A     -0.776832
      22A     -0.739726    23A     -0.686627    24A     -0.654462
      25A     -0.643354    26A     -0.619059    27A     -0.602360
      28A     -0.594863    29A     -0.584244    30A     -0.564882
      31A     -0.519504    32A     -0.510176    33A     -0.505608
      34A     -0.451239    35A     -0.393283    36A     -0.355038
      37A     -0.346089    38A     -0.307769

  @DF-RHF Final Energy:  -454.48037264735393

   => Energetics <=

    Nuclear Repulsion Energy =            545.4989793040631412
    One-Electron Energy =               -1696.6703691264935969
    Two-Electron Energy =                 696.6910171750765812
    Total Energy =                       -454.4803726473538745
  Basis Set: (AUG-CC-PVTZ AUX)
    Blend: AUG-CC-PVTZ-RI
    Molecular point group: c1

    Geometry (in Angstrom), charge = 0, multiplicity = 1:

       Center              X                  Y                   Z               Mass
    ------------   -----------------  -----------------  -----------------  -----------------
         N            0.997733761210     0.052355361993     0.008501319481    14.003074004430
         N            1.685614761210    -1.037601638007    -0.410277680519    14.003074004430
         C           -0.420559238790     0.035418361993    -0.000405680519    12.000000000000
         C           -1.126577238790     1.215754361993    -0.246359680519    12.000000000000
         C           -1.087109238790    -1.167483638007     0.246502319481    12.000000000000
         C            1.817124761210     1.069917361993     0.414852319481    12.000000000000
         C           -2.521432238790     1.191060361993    -0.222724680519    12.000000000000
         C           -2.481000238790    -1.180210638007     0.244697319481    12.000000000000
         C            3.113582761210     0.617396361993     0.245509319481    12.000000000000
         C           -3.201750238790    -0.003669638007     0.021710319481    12.000000000000
         C            2.967901561210    -0.778865338007    -0.297218980519    12.000000000000
         H           -0.593063238790     2.132501361993    -0.482447680519     1.007825032230
         H           -0.506794238790    -2.067104638007     0.423813319481     1.007825032230
         H            1.418386761210     1.990428361993     0.817085319481     1.007825032230
         H           -3.075881238790     2.106309361993    -0.414360680519     1.007825032230
         H           -3.006364238790    -2.113193638007     0.432828319481     1.007825032230
         H            4.023738761210     1.154489361993     0.472972319481     1.007825032230
         H           -4.288483238790    -0.019682638007     0.029819319481     1.007825032230
         H            3.749001761210    -1.393093638007    -0.538159680519     1.007825032230

  Basis Set: AUG-CC-PVTZ
    Blend: AUG-CC-PVTZ
  Basis Set: (AUG-CC-PVTZ AUX)
    Blend: AUG-CC-PVTZ-JKFIT
	 Reference Energy          =    -454.4803726473539314 [Eh]
	 Singles Energy            =      -0.0000000000000000 [Eh]
	 Same-Spin Energy          =      -0.5079395987794532 [Eh]
	 Opposite-Spin Energy      =      -1.5462551766427097 [Eh]
	 Correlation Energy        =      -2.0541947754221628 [Eh]
	 Total Energy              =    -456.5345674227760924 [Eh]

	 ================> DF-SCS-MP2 Energies <==================
	-----------------------------------------------------------
	 SCS Same-Spin Scale       =       0.3333333333333333 [-]
	 SCS Opposite-Spin Scale   =       1.2000000000000000 [-]
	 SCS Same-Spin Energy      =      -0.1693131995931511 [Eh]
	 SCS Opposite-Spin Energy  =      -1.8555062119712515 [Eh]
	 SCS Correlation Energy    =      -2.0248194115644025 [Eh]
	 SCS Total Energy          =    -456.5051920589183396 [Eh]
	-----------------------------------------------------------

  Dipole Moment: [D]
     X:    -0.7680      Y:     1.4977      Z:     0.6816     Total:     1.8159

*** Psi4 exiting successfully. Buy a developer a beer!
