                               Psi4 1.4a3.dev225

  ==> Input File <==

--------------------------------------------------------------------------
#psi4
#
memory 32 gb

molecule  {
0 1
  N        1.0119030     0.0333230     0.0008060
  N        1.6997840    -1.0566340    -0.4179730
  C       -0.4063900     0.0163860    -0.0081010
  C       -1.1376736     1.2389616    -0.2628567
  C       -1.0729400    -1.1865160     0.2388070
  C        1.8312940     1.0508850     0.4071570
  C       -2.5072630     1.1720280    -0.2304200
  C       -2.4668310    -1.1992430     0.2370020
  C        3.1277520     0.5983640     0.2378140
  C       -3.1875810    -0.0227020     0.0140150
  C        2.9917500    -0.7051290    -0.2688550
  H       -0.5788940     2.1134690    -0.4901430
  H       -0.4926250    -2.0861370     0.4161180
  H        1.4325560     1.9713960     0.8093900
  H       -3.0617120     2.0872770    -0.4220560
  H       -2.9921950    -2.1322260     0.4251330
  H        4.0379080     1.1354570     0.4652770
  H       -4.2743140    -0.0387150     0.0221240
  H        3.7631710    -1.4121260    -0.5458550
units angstrom
no_reorient  #important for SAPT in psi4, default
symmetry c1  #important for SAPT in psi4, default
}

set PROPERTIES_ORIGIN ["COM"]
properties('MP2/aug-cc-pvtz', properties = ['dipole'])
--------------------------------------------------------------------------

    Molecular point group: c1
  Charge       = 0
  Multiplicity = 1
  Basis Set: AUG-CC-PVTZ
    Blend: AUG-CC-PVTZ
  Basis Set: (AUG-CC-PVTZ AUX)
    Blend: AUG-CC-PVTZ-JKFIT

    Orbital Energies [Eh]
    ---------------------

    Doubly Occupied:

       1A    -15.652738     2A    -15.591065     3A    -11.296378
       4A    -11.283033     5A    -11.260122     6A    -11.248168
       7A    -11.246490     8A    -11.245447     9A    -11.240500
      10A    -11.240307    11A    -11.228552    12A     -1.382677
      13A     -1.172108    14A     -1.110803    15A     -1.064621
      16A     -1.027629    17A     -0.994262    18A     -0.863051
      19A     -0.845179    20A     -0.798140    21A     -0.776461
      22A     -0.741964    23A     -0.690174    24A     -0.647379
      25A     -0.640891    26A     -0.614924    27A     -0.601399
      28A     -0.592310    29A     -0.588466    30A     -0.564529
      31A     -0.524248    32A     -0.509135    33A     -0.502331
      34A     -0.463051    35A     -0.394361    36A     -0.351445
      37A     -0.348510    38A     -0.309267

  @DF-RHF Final Energy:  -454.48472933520674

   => Energetics <=

    Nuclear Repulsion Energy =            545.6246658771170814
    One-Electron Energy =               -1696.9145636460868900
    Two-Electron Energy =                 696.8051684337629013
    Total Energy =                       -454.4847293352067936
  Basis Set: (AUG-CC-PVTZ AUX)
    Blend: AUG-CC-PVTZ-RI
    Molecular point group: c1

    Geometry (in Angstrom), charge = 0, multiplicity = 1:

       Center              X                  Y                   Z               Mass
    ------------   -----------------  -----------------  -----------------  -----------------
         N            0.999032008069     0.041110039052     0.006230936737    14.003074004430
         N            1.686913008069    -1.048846960948    -0.412548063263    14.003074004430
         C           -0.419260991931     0.024173039052    -0.002676063263    12.000000000000
         C           -1.150544591931     1.246748639052    -0.257431763263    12.000000000000
         C           -1.085810991931    -1.178728960948     0.244231936737    12.000000000000
         C            1.818423008069     1.058672039052     0.412581936737    12.000000000000
         C           -2.520133991931     1.179815039052    -0.224995063263    12.000000000000
         C           -2.479701991931    -1.191455960948     0.242426936737    12.000000000000
         C            3.114881008069     0.606151039052     0.243238936737    12.000000000000
         C           -3.200451991931    -0.014914960948     0.019439936737    12.000000000000
         C            2.978879008069    -0.697341960948    -0.263430063263    12.000000000000
         H           -0.591764991931     2.121256039052    -0.484718063263     1.007825032230
         H           -0.505495991931    -2.078349960948     0.421542936737     1.007825032230
         H            1.419685008069     1.979183039052     0.814814936737     1.007825032230
         H           -3.074582991931     2.095064039052    -0.416631063263     1.007825032230
         H           -3.005065991931    -2.124438960948     0.430557936737     1.007825032230
         H            4.025037008069     1.143244039052     0.470701936737     1.007825032230
         H           -4.287184991931    -0.030927960948     0.027548936737     1.007825032230
         H            3.750300008069    -1.404338960948    -0.540430063263     1.007825032230

  Basis Set: AUG-CC-PVTZ
    Blend: AUG-CC-PVTZ
  Basis Set: (AUG-CC-PVTZ AUX)
    Blend: AUG-CC-PVTZ-JKFIT
	 Reference Energy          =    -454.4847293352067368 [Eh]
	 Singles Energy            =      -0.0000000000000000 [Eh]
	 Same-Spin Energy          =      -0.5096562800640071 [Eh]
	 Opposite-Spin Energy      =      -1.5481667987109211 [Eh]
	 Correlation Energy        =      -2.0578230787749283 [Eh]
	 Total Energy              =    -456.5425524139816389 [Eh]

	 ================> DF-SCS-MP2 Energies <==================
	-----------------------------------------------------------
	 SCS Same-Spin Scale       =       0.3333333333333333 [-]
	 SCS Opposite-Spin Scale   =       1.2000000000000000 [-]
	 SCS Same-Spin Energy      =      -0.1698854266880024 [Eh]
	 SCS Opposite-Spin Energy  =      -1.8578001584531052 [Eh]
	 SCS Correlation Energy    =      -2.0276855851411075 [Eh]
	 SCS Total Energy          =    -456.5124149203478510 [Eh]
	-----------------------------------------------------------

  Dipole Moment: [D]
     X:    -0.8458      Y:     1.6290      Z:     0.7380     Total:     1.9783

*** Psi4 exiting successfully. Buy a developer a beer!
