                               Psi4 1.3.2 release

  ==> Input File <==

--------------------------------------------------------------------------
#psi4
#
memory 32 gb

molecule  {
0 1
  N        1.0094822    -0.0636744     0.0204917
  N        1.6997840    -1.0566340    -0.4179730
  C       -0.4063900     0.0163860    -0.0081010
  C       -1.1124080     1.1967220    -0.2540550
  C       -1.0729400    -1.1865160     0.2388070
  C        1.8312940     1.0508850     0.4071570
  C       -2.5072630     1.1720280    -0.2304200
  C       -2.4668310    -1.1992430     0.2370020
  C        3.1277520     0.5983640     0.2378140
  C       -3.1875810    -0.0227020     0.0140150
  C        2.9917500    -0.7051290    -0.2688550
  H       -0.5788940     2.1134690    -0.4901430
  H       -0.4926250    -2.0861370     0.4161180
  H        1.4325560     1.9713960     0.8093900
  H       -3.0617120     2.0872770    -0.4220560
  H       -2.9921950    -2.1322260     0.4251330
  H        4.0379080     1.1354570     0.4652770
  H       -4.2743140    -0.0387150     0.0221240
  H        3.7631710    -1.4121260    -0.5458550
units angstrom
no_reorient  #important for SAPT in psi4, default
symmetry c1  #important for SAPT in psi4, default
}

set PROPERTIES_ORIGIN ["COM"]
properties('MP2/aug-cc-pvtz', properties = ['dipole'])
--------------------------------------------------------------------------

    Molecular point group: c1
  Charge       = 0
  Multiplicity = 1
  Basis Set: AUG-CC-PVTZ
    Blend: AUG-CC-PVTZ
  Basis Set: (AUG-CC-PVTZ AUX)
    Blend: AUG-CC-PVTZ-JKFIT

    Orbital Energies [Eh]
    ---------------------

    Doubly Occupied:

       1A    -15.655696     2A    -15.594340     3A    -11.291764
       4A    -11.279592     5A    -11.253750     6A    -11.249811
       7A    -11.248558     8A    -11.245753     9A    -11.241442
      10A    -11.239939    11A    -11.233224    12A     -1.401858
      13A     -1.176711    14A     -1.105390    15A     -1.064014
      16A     -1.024953    17A     -0.997199    18A     -0.861202
      19A     -0.848874    20A     -0.800013    21A     -0.776743
      22A     -0.740183    23A     -0.687275    24A     -0.651560
      25A     -0.643144    26A     -0.619293    27A     -0.604894
      28A     -0.597802    29A     -0.582942    30A     -0.561981
      31A     -0.520128    32A     -0.511686    33A     -0.507358
      34A     -0.459785    35A     -0.393864    36A     -0.350336
      37A     -0.346577    38A     -0.309272

  @DF-RHF Final Energy:  -454.47847374209061

   => Energetics <=

    Nuclear Repulsion Energy =            546.5919525421913931
    One-Electron Energy =               -1698.7830406957939431
    Two-Electron Energy =                 697.7126144115119359
    Total Energy =                       -454.4784737420906140
  Basis Set: (AUG-CC-PVTZ AUX)
    Blend: AUG-CC-PVTZ-RI
    Molecular point group: c1

    Geometry (in Angstrom), charge = 0, multiplicity = 1:

       Center              X                  Y                   Z               Mass
    ------------   -----------------  -----------------  -----------------  -----------------
         N            0.994742041011    -0.042941201612     0.023270117499    14.003074004430
         N            1.685043841011    -1.035900801612    -0.415194582501    14.003074004430
         C           -0.421130158989     0.037119198388    -0.005322582501    12.000000000000
         C           -1.127148158989     1.217455198388    -0.251276582501    12.000000000000
         C           -1.087680158989    -1.165782801612     0.241585417499    12.000000000000
         C            1.816553841011     1.071618198388     0.409935417499    12.000000000000
         C           -2.522003158989     1.192761198388    -0.227641582501    12.000000000000
         C           -2.481571158989    -1.178509801612     0.239780417499    12.000000000000
         C            3.113011841011     0.619097198388     0.240592417499    12.000000000000
         C           -3.202321158989    -0.001968801612     0.016793417499    12.000000000000
         C            2.977009841011    -0.684395801612    -0.266076582501    12.000000000000
         H           -0.593634158989     2.134202198388    -0.487364582501     1.007825032230
         H           -0.507365158989    -2.065403801612     0.418896417499     1.007825032230
         H            1.417815841011     1.992129198388     0.812168417499     1.007825032230
         H           -3.076452158989     2.108010198388    -0.419277582501     1.007825032230
         H           -3.006935158989    -2.111492801612     0.427911417499     1.007825032230
         H            4.023167841011     1.156190198388     0.468055417499     1.007825032230
         H           -4.289054158989    -0.017981801612     0.024902417499     1.007825032230
         H            3.748430841011    -1.391392801612    -0.543076582501     1.007825032230

  Basis Set: AUG-CC-PVTZ
    Blend: AUG-CC-PVTZ
  Basis Set: (AUG-CC-PVTZ AUX)
    Blend: AUG-CC-PVTZ-JKFIT
	 Reference Energy          =    -454.4784737420906140 [Eh]
	 Singles Energy            =      -0.0000000000000000 [Eh]
	 Same-Spin Energy          =      -0.5104047019538338 [Eh]
	 Opposite-Spin Energy      =      -1.5484745516236385 [Eh]
	 Correlation Energy        =      -2.0588792535774720 [Eh]
	 Total Energy              =    -456.5373529956680727 [Eh]

	 ================> DF-SCS-MP2 Energies <==================
	-----------------------------------------------------------
	 SCS Same-Spin Scale       =       0.3333333333333333 [-]
	 SCS Opposite-Spin Scale   =       1.2000000000000000 [-]
	 SCS Same-Spin Energy      =      -0.1701349006512779 [Eh]
	 SCS Opposite-Spin Energy  =      -1.8581694619483660 [Eh]
	 SCS Correlation Energy    =      -2.0283043625996440 [Eh]
	 SCS Total Energy          =    -456.5067781046902837 [Eh]
	-----------------------------------------------------------

  Dipole Moment: [D]
     X:    -0.8954      Y:     1.6598      Z:     0.7271     Total:     2.0212

*** Psi4 exiting successfully. Buy a developer a beer!
