                               Psi4 1.3.2 release

  ==> Input File <==

--------------------------------------------------------------------------
#psi4
#
memory 32 gb

molecule  {
0 1
  N        1.0119030     0.0333230     0.0008060
  N        1.6997840    -1.0566340    -0.4179730
  C       -0.4016076    -0.0754923    -0.0446713
  C       -1.1124080     1.1967220    -0.2540550
  C       -1.0729400    -1.1865160     0.2388070
  C        1.8312940     1.0508850     0.4071570
  C       -2.5072630     1.1720280    -0.2304200
  C       -2.4668310    -1.1992430     0.2370020
  C        3.1277520     0.5983640     0.2378140
  C       -3.1875810    -0.0227020     0.0140150
  C        2.9917500    -0.7051290    -0.2688550
  H       -0.5788940     2.1134690    -0.4901430
  H       -0.4926250    -2.0861370     0.4161180
  H        1.4325560     1.9713960     0.8093900
  H       -3.0617120     2.0872770    -0.4220560
  H       -2.9921950    -2.1322260     0.4251330
  H        4.0379080     1.1354570     0.4652770
  H       -4.2743140    -0.0387150     0.0221240
  H        3.7631710    -1.4121260    -0.5458550
units angstrom
no_reorient  #important for SAPT in psi4, default
symmetry c1  #important for SAPT in psi4, default
}

set PROPERTIES_ORIGIN ["COM"]
properties('MP2/aug-cc-pvtz', properties = ['dipole'])
--------------------------------------------------------------------------

    Molecular point group: c1
  Charge       = 0
  Multiplicity = 1
  Basis Set: AUG-CC-PVTZ
    Blend: AUG-CC-PVTZ
  Basis Set: (AUG-CC-PVTZ AUX)
    Blend: AUG-CC-PVTZ-JKFIT

    Orbital Energies [Eh]
    ---------------------

    Doubly Occupied:

       1A    -15.651770     2A    -15.589078     3A    -11.291149
       4A    -11.284449     5A    -11.258671     6A    -11.253162
       7A    -11.247494     8A    -11.247066     9A    -11.241123
      10A    -11.233090    11A    -11.228694    12A     -1.383002
      13A     -1.174772    14A     -1.108697    15A     -1.066719
      16A     -1.026423    17A     -0.996319    18A     -0.862147
      19A     -0.846266    20A     -0.799509    21A     -0.775135
      22A     -0.743005    23A     -0.687842    24A     -0.648748
      25A     -0.639226    26A     -0.616657    27A     -0.600309
      28A     -0.592378    29A     -0.584468    30A     -0.563771
      31A     -0.523600    32A     -0.510636    33A     -0.499525
      34A     -0.463420    35A     -0.395369    36A     -0.350546
      37A     -0.346634    38A     -0.312665

  @DF-RHF Final Energy:  -454.47740206350204

   => Energetics <=

    Nuclear Repulsion Energy =            546.4003497712869830
    One-Electron Energy =               -1698.4684345153752929
    Two-Electron Energy =                 697.5906826805862693
    Total Energy =                       -454.4774020635020406
  Basis Set: (AUG-CC-PVTZ AUX)
    Blend: AUG-CC-PVTZ-RI
    Molecular point group: c1

    Geometry (in Angstrom), charge = 0, multiplicity = 1:

       Center              X                  Y                   Z               Mass
    ------------   -----------------  -----------------  -----------------  -----------------
         N            0.996529202955     0.052281197400     0.008543882494    14.003074004430
         N            1.684410202955    -1.037675802600    -0.410235117506    14.003074004430
         C           -0.416981397045    -0.056534102600    -0.036933417506    12.000000000000
         C           -1.127781797045     1.215680197400    -0.246317117506    12.000000000000
         C           -1.088313797045    -1.167557802600     0.246544882494    12.000000000000
         C            1.815920202955     1.069843197400     0.414894882494    12.000000000000
         C           -2.522636797045     1.190986197400    -0.222682117506    12.000000000000
         C           -2.482204797045    -1.180284802600     0.244739882494    12.000000000000
         C            3.112378202955     0.617322197400     0.245551882494    12.000000000000
         C           -3.202954797045    -0.003743802600     0.021752882494    12.000000000000
         C            2.976376202955    -0.686170802600    -0.261117117506    12.000000000000
         H           -0.594267797045     2.132427197400    -0.482405117506     1.007825032230
         H           -0.507998797045    -2.067178802600     0.423855882494     1.007825032230
         H            1.417182202955     1.990354197400     0.817127882494     1.007825032230
         H           -3.077085797045     2.106235197400    -0.414318117506     1.007825032230
         H           -3.007568797045    -2.113267802600     0.432870882494     1.007825032230
         H            4.022534202955     1.154415197400     0.473014882494     1.007825032230
         H           -4.289687797045    -0.019756802600     0.029861882494     1.007825032230
         H            3.747797202955    -1.393167802600    -0.538117117506     1.007825032230

  Basis Set: AUG-CC-PVTZ
    Blend: AUG-CC-PVTZ
  Basis Set: (AUG-CC-PVTZ AUX)
    Blend: AUG-CC-PVTZ-JKFIT
	 Reference Energy          =    -454.4774020635020406 [Eh]
	 Singles Energy            =      -0.0000000000000000 [Eh]
	 Same-Spin Energy          =      -0.5096533639876518 [Eh]
	 Opposite-Spin Energy      =      -1.5487122533031372 [Eh]
	 Correlation Energy        =      -2.0583656172907889 [Eh]
	 Total Energy              =    -456.5357676807928442 [Eh]

	 ================> DF-SCS-MP2 Energies <==================
	-----------------------------------------------------------
	 SCS Same-Spin Scale       =       0.3333333333333333 [-]
	 SCS Opposite-Spin Scale   =       1.2000000000000000 [-]
	 SCS Same-Spin Energy      =      -0.1698844546625506 [Eh]
	 SCS Opposite-Spin Energy  =      -1.8584547039637647 [Eh]
	 SCS Correlation Energy    =      -2.0283391586263151 [Eh]
	 SCS Total Energy          =    -456.5057412221283357 [Eh]
	-----------------------------------------------------------

  Dipole Moment: [D]
     X:    -0.8834      Y:     1.6221      Z:     0.7532     Total:     1.9948

*** Psi4 exiting successfully. Buy a developer a beer!
