                               Psi4 1.3.2 release

  ==> Input File <==

--------------------------------------------------------------------------
#psi4
#
memory 32 gb

molecule  {
0 1
  N        1.0119030     0.0333230     0.0008060
  N        1.6997840    -1.0566340    -0.4179730
  C       -0.4063900     0.0163860    -0.0081010
  C       -1.1124080     1.1967220    -0.2540550
  C       -1.0729400    -1.1865160     0.2388070
  C        1.8007508     0.9655303     0.3738740
  C       -2.5072630     1.1720280    -0.2304200
  C       -2.4668310    -1.1992430     0.2370020
  C        3.1277520     0.5983640     0.2378140
  C       -3.1875810    -0.0227020     0.0140150
  C        2.9917500    -0.7051290    -0.2688550
  H       -0.5788940     2.1134690    -0.4901430
  H       -0.4926250    -2.0861370     0.4161180
  H        1.4325560     1.9713960     0.8093900
  H       -3.0617120     2.0872770    -0.4220560
  H       -2.9921950    -2.1322260     0.4251330
  H        4.0379080     1.1354570     0.4652770
  H       -4.2743140    -0.0387150     0.0221240
  H        3.7631710    -1.4121260    -0.5458550
units angstrom
no_reorient  #important for SAPT in psi4, default
symmetry c1  #important for SAPT in psi4, default
}

set PROPERTIES_ORIGIN ["COM"]
properties('MP2/aug-cc-pvtz', properties = ['dipole'])
--------------------------------------------------------------------------

    Molecular point group: c1
  Charge       = 0
  Multiplicity = 1
  Basis Set: AUG-CC-PVTZ
    Blend: AUG-CC-PVTZ
  Basis Set: (AUG-CC-PVTZ AUX)
    Blend: AUG-CC-PVTZ-JKFIT

    Orbital Energies [Eh]
    ---------------------

    Doubly Occupied:

       1A    -15.652742     2A    -15.579999     3A    -11.294750
       4A    -11.280038     5A    -11.258705     6A    -11.250583
       7A    -11.249318     8A    -11.247885     9A    -11.244137
      10A    -11.243799    11A    -11.220374    12A     -1.403045
      13A     -1.178711    14A     -1.118732    15A     -1.066292
      16A     -1.026705    17A     -1.003480    18A     -0.866313
      19A     -0.850593    20A     -0.803050    21A     -0.773884
      22A     -0.737800    23A     -0.687777    24A     -0.656071
      25A     -0.642378    26A     -0.623094    27A     -0.603989
      28A     -0.599273    29A     -0.586902    30A     -0.540332
      31A     -0.523878    32A     -0.513278    33A     -0.508868
      34A     -0.457860    35A     -0.397648    36A     -0.349422
      37A     -0.346541    38A     -0.317500

  @DF-RHF Final Energy:  -454.47962470225480

   => Energetics <=

    Nuclear Repulsion Energy =            548.5338922545681726
    One-Electron Energy =               -1702.6155425062286213
    Two-Electron Energy =                 699.6020255494056528
    Total Energy =                       -454.4796247022547959
  Basis Set: (AUG-CC-PVTZ AUX)
    Blend: AUG-CC-PVTZ-RI
    Molecular point group: c1

    Geometry (in Angstrom), charge = 0, multiplicity = 1:

       Center              X                  Y                   Z               Mass
    ------------   -----------------  -----------------  -----------------  -----------------
         N            0.999471598201     0.051737823484     0.008270071550    14.003074004430
         N            1.687352598201    -1.038219176516    -0.410508928450    14.003074004430
         C           -0.418821401799     0.034800823484    -0.000636928450    12.000000000000
         C           -1.124839401799     1.215136823484    -0.246590928450    12.000000000000
         C           -1.085371401799    -1.168101176516     0.246271071550    12.000000000000
         C            1.788319398201     0.983945123484     0.381338071550    12.000000000000
         C           -2.519694401799     1.190442823484    -0.222955928450    12.000000000000
         C           -2.479262401799    -1.180828176516     0.244466071550    12.000000000000
         C            3.115320598201     0.616778823484     0.245278071550    12.000000000000
         C           -3.200012401799    -0.004287176516     0.021479071550    12.000000000000
         C            2.979318598201    -0.686714176516    -0.261390928450    12.000000000000
         H           -0.591325401799     2.131883823484    -0.482678928450     1.007825032230
         H           -0.505056401799    -2.067722176516     0.423582071550     1.007825032230
         H            1.420124598201     1.989810823484     0.816854071550     1.007825032230
         H           -3.074143401799     2.105691823484    -0.414591928450     1.007825032230
         H           -3.004626401799    -2.113811176516     0.432597071550     1.007825032230
         H            4.025476598201     1.153871823484     0.472741071550     1.007825032230
         H           -4.286745401799    -0.020300176516     0.029588071550     1.007825032230
         H            3.750739598201    -1.393711176516    -0.538390928450     1.007825032230

  Basis Set: AUG-CC-PVTZ
    Blend: AUG-CC-PVTZ
  Basis Set: (AUG-CC-PVTZ AUX)
    Blend: AUG-CC-PVTZ-JKFIT
	 Reference Energy          =    -454.4796247022547959 [Eh]
	 Singles Energy            =      -0.0000000000000000 [Eh]
	 Same-Spin Energy          =      -0.5089216905682118 [Eh]
	 Opposite-Spin Energy      =      -1.5456972091964869 [Eh]
	 Correlation Energy        =      -2.0546188997646988 [Eh]
	 Total Energy              =    -456.5342436020195009 [Eh]

	 ================> DF-SCS-MP2 Energies <==================
	-----------------------------------------------------------
	 SCS Same-Spin Scale       =       0.3333333333333333 [-]
	 SCS Opposite-Spin Scale   =       1.2000000000000000 [-]
	 SCS Same-Spin Energy      =      -0.1696405635227373 [Eh]
	 SCS Opposite-Spin Energy  =      -1.8548366510357841 [Eh]
	 SCS Correlation Energy    =      -2.0244772145585213 [Eh]
	 SCS Total Energy          =    -456.5041019168133403 [Eh]
	-----------------------------------------------------------

  Dipole Moment: [D]
     X:    -1.1129      Y:     1.6408      Z:     0.7346     Total:     2.1143

*** Psi4 exiting successfully. Buy a developer a beer!
