                               Psi4 1.3.2 release

  ==> Input File <==

--------------------------------------------------------------------------
#psi4
#
memory 32 gb

molecule  {
0 1
  N        1.0119030     0.0333230     0.0008060
  N        1.6872488    -1.0145125    -0.4012425
  C       -0.4063900     0.0163860    -0.0081010
  C       -1.1124080     1.1967220    -0.2540550
  C       -1.0729400    -1.1865160     0.2388070
  C        1.8312940     1.0508850     0.4071570
  C       -2.5072630     1.1720280    -0.2304200
  C       -2.4668310    -1.1992430     0.2370020
  C        3.1277520     0.5983640     0.2378140
  C       -3.1875810    -0.0227020     0.0140150
  C        2.9917500    -0.7051290    -0.2688550
  H       -0.5788940     2.1134690    -0.4901430
  H       -0.4926250    -2.0861370     0.4161180
  H        1.4325560     1.9713960     0.8093900
  H       -3.0617120     2.0872770    -0.4220560
  H       -2.9921950    -2.1322260     0.4251330
  H        4.0379080     1.1354570     0.4652770
  H       -4.2743140    -0.0387150     0.0221240
  H        3.7631710    -1.4121260    -0.5458550
units angstrom
no_reorient  #important for SAPT in psi4, default
symmetry c1  #important for SAPT in psi4, default
}

set PROPERTIES_ORIGIN ["COM"]
properties('MP2/aug-cc-pvtz', properties = ['dipole'])
--------------------------------------------------------------------------

    Molecular point group: c1
  Charge       = 0
  Multiplicity = 1
  Basis Set: AUG-CC-PVTZ
    Blend: AUG-CC-PVTZ
  Basis Set: (AUG-CC-PVTZ AUX)
    Blend: AUG-CC-PVTZ-JKFIT

    Orbital Energies [Eh]
    ---------------------

    Doubly Occupied:

       1A    -15.654578     2A    -15.586319     3A    -11.292626
       4A    -11.276404     5A    -11.255731     6A    -11.249142
       7A    -11.247879     8A    -11.246871     9A    -11.242436
      10A    -11.242153    11A    -11.227529    12A     -1.400955
      13A     -1.176816    14A     -1.109499    15A     -1.064901
      16A     -1.025232    17A     -1.000827    18A     -0.862532
      19A     -0.849935    20A     -0.802099    21A     -0.776203
      22A     -0.742273    23A     -0.688019    24A     -0.652771
      25A     -0.643063    26A     -0.619721    27A     -0.600191
      28A     -0.597857    29A     -0.589508    30A     -0.562843
      31A     -0.521653    32A     -0.512171    33A     -0.507558
      34A     -0.456249    35A     -0.393785    36A     -0.348904
      37A     -0.345602    38A     -0.314181

  @DF-RHF Final Energy:  -454.48870616301792

   => Energetics <=

    Nuclear Repulsion Energy =            547.6583353964484786
    One-Electron Energy =               -1700.9200488920509997
    Two-Electron Energy =                 698.7730073325847115
    Total Energy =                       -454.4887061630179232
  Basis Set: (AUG-CC-PVTZ AUX)
    Blend: AUG-CC-PVTZ-RI
    Molecular point group: c1

    Geometry (in Angstrom), charge = 0, multiplicity = 1:

       Center              X                  Y                   Z               Mass
    ------------   -----------------  -----------------  -----------------  -----------------
         N            0.998145932024     0.040534235606     0.003871654563    14.003074004430
         N            1.673491732024    -1.007301264394    -0.398176845437    14.003074004430
         C           -0.420147067976     0.023597235606    -0.005035345437    12.000000000000
         C           -1.126165067976     1.203933235606    -0.250989345437    12.000000000000
         C           -1.086697067976    -1.179304764394     0.241872654563    12.000000000000
         C            1.817536932024     1.058096235606     0.410222654563    12.000000000000
         C           -2.521020067976     1.179239235606    -0.227354345437    12.000000000000
         C           -2.480588067976    -1.192031764394     0.240067654563    12.000000000000
         C            3.113994932024     0.605575235606     0.240879654563    12.000000000000
         C           -3.201338067976    -0.015490764394     0.017080654563    12.000000000000
         C            2.977992932024    -0.697917764394    -0.265789345437    12.000000000000
         H           -0.592651067976     2.120680235606    -0.487077345437     1.007825032230
         H           -0.506382067976    -2.078925764394     0.419183654563     1.007825032230
         H            1.418798932024     1.978607235606     0.812455654563     1.007825032230
         H           -3.075469067976     2.094488235606    -0.418990345437     1.007825032230
         H           -3.005952067976    -2.125014764394     0.428198654563     1.007825032230
         H            4.024150932024     1.142668235606     0.468342654563     1.007825032230
         H           -4.288071067976    -0.031503764394     0.025189654563     1.007825032230
         H            3.749413932024    -1.404914764394    -0.542789345437     1.007825032230

  Basis Set: AUG-CC-PVTZ
    Blend: AUG-CC-PVTZ
  Basis Set: (AUG-CC-PVTZ AUX)
    Blend: AUG-CC-PVTZ-JKFIT
	 Reference Energy          =    -454.4887061630179232 [Eh]
	 Singles Energy            =      -0.0000000000000000 [Eh]
	 Same-Spin Energy          =      -0.5096057919932964 [Eh]
	 Opposite-Spin Energy      =      -1.5465644516875559 [Eh]
	 Correlation Energy        =      -2.0561702436808522 [Eh]
	 Total Energy              =    -456.5448764066987906 [Eh]

	 ================> DF-SCS-MP2 Energies <==================
	-----------------------------------------------------------
	 SCS Same-Spin Scale       =       0.3333333333333333 [-]
	 SCS Opposite-Spin Scale   =       1.2000000000000000 [-]
	 SCS Same-Spin Energy      =      -0.1698685973310988 [Eh]
	 SCS Opposite-Spin Energy  =      -1.8558773420250669 [Eh]
	 SCS Correlation Energy    =      -2.0257459393561659 [Eh]
	 SCS Total Energy          =    -456.5144521023740936 [Eh]
	-----------------------------------------------------------

  Dipole Moment: [D]
     X:    -0.9628      Y:     1.5759      Z:     0.7126     Total:     1.9794

*** Psi4 exiting successfully. Buy a developer a beer!
