                               Psi4 1.3.2 release

  ==> Input File <==

--------------------------------------------------------------------------
#psi4
#
memory 32 gb

molecule  {
0 1
  N        1.0119030     0.0333230     0.0008060
  N        1.6997840    -1.0566340    -0.4179730
  C       -0.4063900     0.0163860    -0.0081010
  C       -1.1124080     1.1967220    -0.2540550
  C       -1.0729400    -1.1865160     0.2388070
  C        1.9510710     1.1996303     0.4665566
  C       -2.5072630     1.1720280    -0.2304200
  C       -2.4668310    -1.1992430     0.2370020
  C        3.1277520     0.5983640     0.2378140
  C       -3.1875810    -0.0227020     0.0140150
  C        2.9917500    -0.7051290    -0.2688550
  H       -0.5788940     2.1134690    -0.4901430
  H       -0.4926250    -2.0861370     0.4161180
  H        1.4325560     1.9713960     0.8093900
  H       -3.0617120     2.0872770    -0.4220560
  H       -2.9921950    -2.1322260     0.4251330
  H        4.0379080     1.1354570     0.4652770
  H       -4.2743140    -0.0387150     0.0221240
  H        3.7631710    -1.4121260    -0.5458550
units angstrom
no_reorient  #important for SAPT in psi4, default
symmetry c1  #important for SAPT in psi4, default
}

set PROPERTIES_ORIGIN ["COM"]
properties('MP2/aug-cc-pvtz', properties = ['dipole'])
--------------------------------------------------------------------------

    Molecular point group: c1
  Charge       = 0
  Multiplicity = 1
  Basis Set: AUG-CC-PVTZ
    Blend: AUG-CC-PVTZ
  Basis Set: (AUG-CC-PVTZ AUX)
    Blend: AUG-CC-PVTZ-JKFIT

    Orbital Energies [Eh]
    ---------------------

    Doubly Occupied:

       1A    -15.639866     2A    -15.611562     3A    -11.289284
       4A    -11.285857     5A    -11.261423     6A    -11.244007
       7A    -11.242890     8A    -11.242008     9A    -11.240575
      10A    -11.235094    11A    -11.234807    12A     -1.356618
      13A     -1.169859    14A     -1.098186    15A     -1.069686
      16A     -1.020188    17A     -0.987555    18A     -0.858980
      19A     -0.843194    20A     -0.805417    21A     -0.775116
      22A     -0.734603    23A     -0.685182    24A     -0.652738
      25A     -0.636578    26A     -0.614486    27A     -0.599975
      28A     -0.593018    29A     -0.579262    30A     -0.558502
      31A     -0.511280    32A     -0.506036    33A     -0.503136
      34A     -0.464901    35A     -0.397687    36A     -0.359656
      37A     -0.342792    38A     -0.300165

  @DF-RHF Final Energy:  -454.44509021611827

   => Energetics <=

    Nuclear Repulsion Energy =            542.5796726678123605
    One-Electron Energy =               -1690.9451921189240693
    Two-Electron Energy =                 693.9204292349933212
    Total Energy =                       -454.4450902161182739
  Basis Set: (AUG-CC-PVTZ AUX)
    Blend: AUG-CC-PVTZ-RI
    Molecular point group: c1

    Geometry (in Angstrom), charge = 0, multiplicity = 1:

       Center              X                  Y                   Z               Mass
    ------------   -----------------  -----------------  -----------------  -----------------
         N            0.986950892484     0.032238799346     0.000550207156    14.003074004430
         N            1.674831892484    -1.057718200654    -0.418228792844    14.003074004430
         C           -0.431342107516     0.015301799346    -0.008356792844    12.000000000000
         C           -1.137360107516     1.195637799346    -0.254310792844    12.000000000000
         C           -1.097892107516    -1.187600200654     0.238551207156    12.000000000000
         C            1.926118892484     1.198546099346     0.466300807156    12.000000000000
         C           -2.532215107516     1.170943799346    -0.230675792844    12.000000000000
         C           -2.491783107516    -1.200327200654     0.236746207156    12.000000000000
         C            3.102799892484     0.597279799346     0.237558207156    12.000000000000
         C           -3.212533107516    -0.023786200654     0.013759207156    12.000000000000
         C            2.966797892484    -0.706213200654    -0.269110792844    12.000000000000
         H           -0.603846107516     2.112384799346    -0.490398792844     1.007825032230
         H           -0.517577107516    -2.087221200654     0.415862207156     1.007825032230
         H            1.407603892484     1.970311799346     0.809134207156     1.007825032230
         H           -3.086664107516     2.086192799346    -0.422311792844     1.007825032230
         H           -3.017147107516    -2.133310200654     0.424877207156     1.007825032230
         H            4.012955892484     1.134372799346     0.465021207156     1.007825032230
         H           -4.299266107516    -0.039799200654     0.021868207156     1.007825032230
         H            3.738218892484    -1.413210200654    -0.546110792844     1.007825032230

  Basis Set: AUG-CC-PVTZ
    Blend: AUG-CC-PVTZ
  Basis Set: (AUG-CC-PVTZ AUX)
    Blend: AUG-CC-PVTZ-JKFIT
	 Reference Energy          =    -454.4450902161182739 [Eh]
	 Singles Energy            =      -0.0000000000000000 [Eh]
	 Same-Spin Energy          =      -0.5113769522681231 [Eh]
	 Opposite-Spin Energy      =      -1.5536255077963275 [Eh]
	 Correlation Energy        =      -2.0650024600644503 [Eh]
	 Total Energy              =    -456.5100926761827509 [Eh]

	 ================> DF-SCS-MP2 Energies <==================
	-----------------------------------------------------------
	 SCS Same-Spin Scale       =       0.3333333333333333 [-]
	 SCS Opposite-Spin Scale   =       1.2000000000000000 [-]
	 SCS Same-Spin Energy      =      -0.1704589840893743 [Eh]
	 SCS Opposite-Spin Energy  =      -1.8643506093555928 [Eh]
	 SCS Correlation Energy    =      -2.0348095934449670 [Eh]
	 SCS Total Energy          =    -456.4798998095632214 [Eh]
	-----------------------------------------------------------

  Dipole Moment: [D]
     X:    -0.3917      Y:     1.6702      Z:     0.7610     Total:     1.8767

*** Psi4 exiting successfully. Buy a developer a beer!
