                               Psi4 1.3.2 release

  ==> Input File <==

--------------------------------------------------------------------------
#psi4
#
memory 32 gb

molecule  {
0 1
  N        1.0119030     0.0333230     0.0008060
  N        1.8180594    -0.9841262    -0.3883874
  C       -0.4063900     0.0163860    -0.0081010
  C       -1.1124080     1.1967220    -0.2540550
  C       -1.0729400    -1.1865160     0.2388070
  C        1.8312940     1.0508850     0.4071570
  C       -2.5072630     1.1720280    -0.2304200
  C       -2.4668310    -1.1992430     0.2370020
  C        3.1277520     0.5983640     0.2378140
  C       -3.1875810    -0.0227020     0.0140150
  C        2.9917500    -0.7051290    -0.2688550
  H       -0.5788940     2.1134690    -0.4901430
  H       -0.4926250    -2.0861370     0.4161180
  H        1.4325560     1.9713960     0.8093900
  H       -3.0617120     2.0872770    -0.4220560
  H       -2.9921950    -2.1322260     0.4251330
  H        4.0379080     1.1354570     0.4652770
  H       -4.2743140    -0.0387150     0.0221240
  H        3.7631710    -1.4121260    -0.5458550
units angstrom
no_reorient  #important for SAPT in psi4, default
symmetry c1  #important for SAPT in psi4, default
}

set PROPERTIES_ORIGIN ["COM"]
properties('MP2/aug-cc-pvtz', properties = ['dipole'])
--------------------------------------------------------------------------

    Molecular point group: c1
  Charge       = 0
  Multiplicity = 1
  Basis Set: AUG-CC-PVTZ
    Blend: AUG-CC-PVTZ
  Basis Set: (AUG-CC-PVTZ AUX)
    Blend: AUG-CC-PVTZ-JKFIT

    Orbital Energies [Eh]
    ---------------------

    Doubly Occupied:

       1A    -15.643654     2A    -15.572216     3A    -11.295156
       4A    -11.278388     5A    -11.249100     6A    -11.247457
       7A    -11.246858     8A    -11.242383     9A    -11.241747
      10A    -11.241153    11A    -11.219671    12A     -1.397562
      13A     -1.191262    14A     -1.131237    15A     -1.053774
      16A     -1.025654    17A     -1.000939    18A     -0.860645
      19A     -0.852206    20A     -0.806842    21A     -0.774148
      22A     -0.739543    23A     -0.688877    24A     -0.653571
      25A     -0.648493    26A     -0.619969    27A     -0.606156
      28A     -0.597715    29A     -0.587110    30A     -0.569421
      31A     -0.521540    32A     -0.514915    33A     -0.507672
      34A     -0.436560    35A     -0.410268    36A     -0.352826
      37A     -0.347766    38A     -0.312087

  @DF-RHF Final Energy:  -454.47706762106122

   => Energetics <=

    Nuclear Repulsion Energy =            548.3016981032792501
    One-Electron Energy =               -1702.1844433567648593
    Two-Electron Energy =                 699.4056776324243856
    Total Energy =                       -454.4770676210612237
  Basis Set: (AUG-CC-PVTZ AUX)
    Blend: AUG-CC-PVTZ-RI
    Molecular point group: c1

    Geometry (in Angstrom), charge = 0, multiplicity = 1:

       Center              X                  Y                   Z               Mass
    ------------   -----------------  -----------------  -----------------  -----------------
         N            0.985431512454     0.037580773368     0.002622175278    14.003074004430
         N            1.791587912454    -0.979868426632    -0.386571224722    14.003074004430
         C           -0.432861487546     0.020643773368    -0.006284824722    12.000000000000
         C           -1.138879487546     1.200979773368    -0.252238824722    12.000000000000
         C           -1.099411487546    -1.182258226632     0.240623175278    12.000000000000
         C            1.804822512454     1.055142773368     0.408973175278    12.000000000000
         C           -2.533734487546     1.176285773368    -0.228603824722    12.000000000000
         C           -2.493302487546    -1.194985226632     0.238818175278    12.000000000000
         C            3.101280512454     0.602621773368     0.239630175278    12.000000000000
         C           -3.214052487546    -0.018444226632     0.015831175278    12.000000000000
         C            2.965278512454    -0.700871226632    -0.267038824722    12.000000000000
         H           -0.605365487546     2.117726773368    -0.488326824722     1.007825032230
         H           -0.519096487546    -2.081879226632     0.417934175278     1.007825032230
         H            1.406084512454     1.975653773368     0.811206175278     1.007825032230
         H           -3.088183487546     2.091534773368    -0.420239824722     1.007825032230
         H           -3.018666487546    -2.127968226632     0.426949175278     1.007825032230
         H            4.011436512454     1.139714773368     0.467093175278     1.007825032230
         H           -4.300785487546    -0.034457226632     0.023940175278     1.007825032230
         H            3.736699512454    -1.407868226632    -0.544038824722     1.007825032230

  Basis Set: AUG-CC-PVTZ
    Blend: AUG-CC-PVTZ
  Basis Set: (AUG-CC-PVTZ AUX)
    Blend: AUG-CC-PVTZ-JKFIT
	 Reference Energy          =    -454.4770676210612237 [Eh]
	 Singles Energy            =      -0.0000000000000000 [Eh]
	 Same-Spin Energy          =      -0.5060466408100210 [Eh]
	 Opposite-Spin Energy      =      -1.5408483565234401 [Eh]
	 Correlation Energy        =      -2.0468949973334611 [Eh]
	 Total Energy              =    -456.5239626183947053 [Eh]

	 ================> DF-SCS-MP2 Energies <==================
	-----------------------------------------------------------
	 SCS Same-Spin Scale       =       0.3333333333333333 [-]
	 SCS Opposite-Spin Scale   =       1.2000000000000000 [-]
	 SCS Same-Spin Energy      =      -0.1686822136033403 [Eh]
	 SCS Opposite-Spin Energy  =      -1.8490180278281281 [Eh]
	 SCS Correlation Energy    =      -2.0177002414314682 [Eh]
	 SCS Total Energy          =    -456.4947678624926652 [Eh]
	-----------------------------------------------------------

  Dipole Moment: [D]
     X:    -0.9901      Y:     1.3883      Z:     0.6335     Total:     1.8190

*** Psi4 exiting successfully. Buy a developer a beer!
