                               Psi4 1.3.2 release

  ==> Input File <==

--------------------------------------------------------------------------
#psi4
#
memory 32 gb

molecule  {
0 1
  N        1.0119030     0.0333230     0.0008060
  N        1.6997840    -1.0566340    -0.4179730
  C       -0.4063900     0.0163860    -0.0081010
  C       -1.1124080     1.1967220    -0.2540550
  C       -1.0729400    -1.1865160     0.2388070
  C        1.8312940     1.0508850     0.4071570
  C       -2.5072630     1.1720280    -0.2304200
  C       -2.4668310    -1.1992430     0.2370020
  C        3.1277520     0.5983640     0.2378140
  C       -3.1875810    -0.0227020     0.0140150
  C        3.0896153    -0.7115227    -0.2691836
  H       -0.5788940     2.1134690    -0.4901430
  H       -0.4926250    -2.0861370     0.4161180
  H        1.4325560     1.9713960     0.8093900
  H       -3.0617120     2.0872770    -0.4220560
  H       -2.9921950    -2.1322260     0.4251330
  H        4.0379080     1.1354570     0.4652770
  H       -4.2743140    -0.0387150     0.0221240
  H        3.7631710    -1.4121260    -0.5458550
units angstrom
no_reorient  #important for SAPT in psi4, default
symmetry c1  #important for SAPT in psi4, default
}

set PROPERTIES_ORIGIN ["COM"]
properties('MP2/aug-cc-pvtz', properties = ['dipole'])
--------------------------------------------------------------------------

    Molecular point group: c1
  Charge       = 0
  Multiplicity = 1
  Basis Set: AUG-CC-PVTZ
    Blend: AUG-CC-PVTZ
  Basis Set: (AUG-CC-PVTZ AUX)
    Blend: AUG-CC-PVTZ-JKFIT

    Orbital Energies [Eh]
    ---------------------

    Doubly Occupied:

       1A    -15.659219     2A    -15.595610     3A    -11.293146
       4A    -11.280014     5A    -11.262282     6A    -11.249542
       7A    -11.248334     8A    -11.246878     9A    -11.242725
      10A    -11.242533    11A    -11.232119    12A     -1.372437
      13A     -1.172060    14A     -1.100605    15A     -1.058878
      16A     -1.024908    17A     -1.000400    18A     -0.866179
      19A     -0.848699    20A     -0.801440    21A     -0.777740
      22A     -0.739854    23A     -0.688563    24A     -0.649426
      25A     -0.640575    26A     -0.612887    27A     -0.602216
      28A     -0.596200    29A     -0.580767    30A     -0.578182
      31A     -0.521780    32A     -0.510639    33A     -0.506869
      34A     -0.452307    35A     -0.392162    36A     -0.348218
      37A     -0.338649    38A     -0.314252

  @DF-RHF Final Energy:  -454.46865758558641

   => Energetics <=

    Nuclear Repulsion Energy =            544.3168242883374432
    One-Electron Energy =               -1694.2723747729876322
    Two-Electron Energy =                 695.4868928990638324
    Total Energy =                       -454.4686575855864703
  Basis Set: (AUG-CC-PVTZ AUX)
    Blend: AUG-CC-PVTZ-RI
    Molecular point group: c1

    Geometry (in Angstrom), charge = 0, multiplicity = 1:

       Center              X                  Y                   Z               Mass
    ------------   -----------------  -----------------  -----------------  -----------------
         N            0.988775996146     0.045160880105     0.005525182011    14.003074004430
         N            1.676656996146    -1.044796119895    -0.413253817989    14.003074004430
         C           -0.429517003854     0.028223880105    -0.003381817989    12.000000000000
         C           -1.135535003854     1.208559880105    -0.249335817989    12.000000000000
         C           -1.096067003854    -1.174678119895     0.243526182011    12.000000000000
         C            1.808166996146     1.062722880105     0.411876182011    12.000000000000
         C           -2.530390003854     1.183865880105    -0.225700817989    12.000000000000
         C           -2.489958003854    -1.187405119895     0.241721182011    12.000000000000
         C            3.104624996146     0.610201880105     0.242533182011    12.000000000000
         C           -3.210708003854    -0.010864119895     0.018734182011    12.000000000000
         C            3.066488296146    -0.699684819895    -0.264464417989    12.000000000000
         H           -0.602021003854     2.125306880105    -0.485423817989     1.007825032230
         H           -0.515752003854    -2.074299119895     0.420837182011     1.007825032230
         H            1.409428996146     1.983233880105     0.814109182011     1.007825032230
         H           -3.084839003854     2.099114880105    -0.417336817989     1.007825032230
         H           -3.015322003854    -2.120388119895     0.429852182011     1.007825032230
         H            4.014780996146     1.147294880105     0.469996182011     1.007825032230
         H           -4.297441003854    -0.026877119895     0.026843182011     1.007825032230
         H            3.740043996146    -1.400288119895    -0.541135817989     1.007825032230

  Basis Set: AUG-CC-PVTZ
    Blend: AUG-CC-PVTZ
  Basis Set: (AUG-CC-PVTZ AUX)
    Blend: AUG-CC-PVTZ-JKFIT
	 Reference Energy          =    -454.4686575855864135 [Eh]
	 Singles Energy            =      -0.0000000000000000 [Eh]
	 Same-Spin Energy          =      -0.5121019516735286 [Eh]
	 Opposite-Spin Energy      =      -1.5529826519341188 [Eh]
	 Correlation Energy        =      -2.0650846036076471 [Eh]
	 Total Energy              =    -456.5337421891940721 [Eh]

	 ================> DF-SCS-MP2 Energies <==================
	-----------------------------------------------------------
	 SCS Same-Spin Scale       =       0.3333333333333333 [-]
	 SCS Opposite-Spin Scale   =       1.2000000000000000 [-]
	 SCS Same-Spin Energy      =      -0.1707006505578428 [Eh]
	 SCS Opposite-Spin Energy  =      -1.8635791823209424 [Eh]
	 SCS Correlation Energy    =      -2.0342798328787852 [Eh]
	 SCS Total Energy          =    -456.5029374184651942 [Eh]
	-----------------------------------------------------------

  Dipole Moment: [D]
     X:    -1.0019      Y:     1.6399      Z:     0.7402     Total:     2.0594

*** Psi4 exiting successfully. Buy a developer a beer!
