                               Psi4 1.4a3.dev225

  ==> Input File <==

--------------------------------------------------------------------------
#psi4
#
memory 32 gb

molecule  {
0 1
  N        1.0119030     0.0333230     0.0008060
  N        1.6997840    -1.0566340    -0.4179730
  C       -0.4563854     0.0157890    -0.0084150
  C       -1.1124080     1.1967220    -0.2540550
  C       -1.0729400    -1.1865160     0.2388070
  C        1.8312940     1.0508850     0.4071570
  C       -2.5072630     1.1720280    -0.2304200
  C       -2.4668310    -1.1992430     0.2370020
  C        3.1277520     0.5983640     0.2378140
  C       -3.1875810    -0.0227020     0.0140150
  C        2.9917500    -0.7051290    -0.2688550
  H       -0.5788940     2.1134690    -0.4901430
  H       -0.4926250    -2.0861370     0.4161180
  H        1.4325560     1.9713960     0.8093900
  H       -3.0617120     2.0872770    -0.4220560
  H       -2.9921950    -2.1322260     0.4251330
  H        4.0379080     1.1354570     0.4652770
  H       -4.2743140    -0.0387150     0.0221240
  H        3.7631710    -1.4121260    -0.5458550
units angstrom
no_reorient  #important for SAPT in psi4, default
symmetry c1  #important for SAPT in psi4, default
}

set PROPERTIES_ORIGIN ["COM"]
properties('MP2/aug-cc-pvtz', properties = ['dipole'])
--------------------------------------------------------------------------

    Molecular point group: c1
  Charge       = 0
  Multiplicity = 1
  Basis Set: AUG-CC-PVTZ
    Blend: AUG-CC-PVTZ
  Basis Set: (AUG-CC-PVTZ AUX)
    Blend: AUG-CC-PVTZ-JKFIT

    Orbital Energies [Eh]
    ---------------------

    Doubly Occupied:

       1A    -15.648778     2A    -15.587969     3A    -11.291416
       4A    -11.279236     5A    -11.256133     6A    -11.249840
       7A    -11.247824     8A    -11.246624     9A    -11.242614
      10A    -11.240716    11A    -11.224806    12A     -1.374368
      13A     -1.179215    14A     -1.103763    15A     -1.060216
      16A     -1.029407    17A     -1.001432    18A     -0.854701
      19A     -0.849757    20A     -0.795253    21A     -0.776509
      22A     -0.740902    23A     -0.686939    24A     -0.649462
      25A     -0.639373    26A     -0.614371    27A     -0.600412
      28A     -0.589918    29A     -0.586875    30A     -0.560967
      31A     -0.518071    32A     -0.515244    33A     -0.513467
      34A     -0.460186    35A     -0.391151    36A     -0.350022
      37A     -0.345578    38A     -0.318402

  @DF-RHF Final Energy:  -454.48535557253899

   => Energetics <=

    Nuclear Repulsion Energy =            546.2781763161635809
    One-Electron Energy =               -1698.2832251542315589
    Two-Electron Energy =                 697.5196932655289856
    Total Energy =                       -454.4853555725389924
  Basis Set: (AUG-CC-PVTZ AUX)
    Blend: AUG-CC-PVTZ-RI
    Molecular point group: c1

    Geometry (in Angstrom), charge = 0, multiplicity = 1:

       Center              X                  Y                   Z               Mass
    ------------   -----------------  -----------------  -----------------  -----------------
         N            1.001091841333     0.044678052283     0.005523965925    14.003074004430
         N            1.688972841333    -1.045278947717    -0.413255034075    14.003074004430
         C           -0.467196558667     0.027144052283    -0.003697034075    12.000000000000
         C           -1.123219158667     1.208077052283    -0.249337034075    12.000000000000
         C           -1.083751158667    -1.175160947717     0.243524965925    12.000000000000
         C            1.820482841333     1.062240052283     0.411874965925    12.000000000000
         C           -2.518074158667     1.183383052283    -0.225702034075    12.000000000000
         C           -2.477642158667    -1.187887947717     0.241719965925    12.000000000000
         C            3.116940841333     0.609719052283     0.242531965925    12.000000000000
         C           -3.198392158667    -0.011346947717     0.018732965925    12.000000000000
         C            2.980938841333    -0.693773947717    -0.264137034075    12.000000000000
         H           -0.589705158667     2.124824052283    -0.485425034075     1.007825032230
         H           -0.503436158667    -2.074781947717     0.420835965925     1.007825032230
         H            1.421744841333     1.982751052283     0.814107965925     1.007825032230
         H           -3.072523158667     2.098632052283    -0.417338034075     1.007825032230
         H           -3.003006158667    -2.120870947717     0.429850965925     1.007825032230
         H            4.027096841333     1.146812052283     0.469994965925     1.007825032230
         H           -4.285125158667    -0.027359947717     0.026841965925     1.007825032230
         H            3.752359841333    -1.400770947717    -0.541137034075     1.007825032230

  Basis Set: AUG-CC-PVTZ
    Blend: AUG-CC-PVTZ
  Basis Set: (AUG-CC-PVTZ AUX)
    Blend: AUG-CC-PVTZ-JKFIT
	 Reference Energy          =    -454.4853555725389924 [Eh]
	 Singles Energy            =      -0.0000000000000000 [Eh]
	 Same-Spin Energy          =      -0.5095624134503971 [Eh]
	 Opposite-Spin Energy      =      -1.5477611650100924 [Eh]
	 Correlation Energy        =      -2.0573235784604895 [Eh]
	 Total Energy              =    -456.5426791509995041 [Eh]

	 ================> DF-SCS-MP2 Energies <==================
	-----------------------------------------------------------
	 SCS Same-Spin Scale       =       0.3333333333333333 [-]
	 SCS Opposite-Spin Scale   =       1.2000000000000000 [-]
	 SCS Same-Spin Energy      =      -0.1698541378167990 [Eh]
	 SCS Opposite-Spin Energy  =      -1.8573133980121108 [Eh]
	 SCS Correlation Energy    =      -2.0271675358289096 [Eh]
	 SCS Total Energy          =    -456.5125231083679296 [Eh]
	-----------------------------------------------------------

  Dipole Moment: [D]
     X:    -1.1744      Y:     1.6387      Z:     0.7361     Total:     2.1463

*** Psi4 exiting successfully. Buy a developer a beer!
