                               Psi4 1.4a3.dev225

  ==> Input File <==

--------------------------------------------------------------------------
#psi4
#
memory 32 gb

molecule  {
0 1
  N        1.0119030     0.0333230     0.0008060
  N        1.6997840    -1.0566340    -0.4179730
  C       -0.4063900     0.0163860    -0.0081010
  C       -1.1124080     1.1967220    -0.2540550
  C       -1.0729400    -1.1865160     0.2388070
  C        1.8312940     1.0508850     0.4071570
  C       -2.5072630     1.1720280    -0.2304200
  C       -2.4668310    -1.1992430     0.2370020
  C        3.1277520     0.5983640     0.2378140
  C       -3.1875810    -0.0227020     0.0140150
  C        2.9917500    -0.7051290    -0.2688550
  H       -0.5788940     2.1134690    -0.4901430
  H       -0.4926250    -2.0861370     0.4161180
  H        1.4510025     1.9288112     0.7907818
  H       -3.0617120     2.0872770    -0.4220560
  H       -2.9921950    -2.1322260     0.4251330
  H        4.0379080     1.1354570     0.4652770
  H       -4.2743140    -0.0387150     0.0221240
  H        3.7631710    -1.4121260    -0.5458550
units angstrom
no_reorient  #important for SAPT in psi4, default
symmetry c1  #important for SAPT in psi4, default
}

set PROPERTIES_ORIGIN ["COM"]
properties('MP2/aug-cc-pvtz', properties = ['dipole'])
--------------------------------------------------------------------------

    Molecular point group: c1
  Charge       = 0
  Multiplicity = 1
  Basis Set: AUG-CC-PVTZ
    Blend: AUG-CC-PVTZ
  Basis Set: (AUG-CC-PVTZ AUX)
    Blend: AUG-CC-PVTZ-JKFIT

    Orbital Energies [Eh]
    ---------------------

    Doubly Occupied:

       1A    -15.651604     2A    -15.590654     3A    -11.291798
       4A    -11.277070     5A    -11.259409     6A    -11.248319
       7A    -11.246860     8A    -11.246049     9A    -11.241091
      10A    -11.240933    11A    -11.227861    12A     -1.382319
      13A     -1.175566    14A     -1.110591    15A     -1.065360
      16A     -1.024563    17A     -0.998160    18A     -0.861541
      19A     -0.848008    20A     -0.799752    21A     -0.780265
      22A     -0.747639    23A     -0.687633    24A     -0.649291
      25A     -0.640021    26A     -0.615756    27A     -0.597365
      28A     -0.594751    29A     -0.590961    30A     -0.565690
      31A     -0.520371    32A     -0.510869    33A     -0.507055
      34A     -0.462969    35A     -0.394899    36A     -0.349812
      37A     -0.346382    38A     -0.312978

  @DF-RHF Final Energy:  -454.48725195722363

   => Energetics <=

    Nuclear Repulsion Energy =            546.6201949768684472
    One-Electron Energy =               -1698.8904721129449626
    Two-Electron Energy =                 697.7830251788527676
    Total Energy =                       -454.4872519572236342
  Basis Set: (AUG-CC-PVTZ AUX)
    Blend: AUG-CC-PVTZ-RI
    Molecular point group: c1

    Geometry (in Angstrom), charge = 0, multiplicity = 1:

       Center              X                  Y                   Z               Mass
    ------------   -----------------  -----------------  -----------------  -----------------
         N            0.996798504632     0.044926225657     0.005627984388    14.003074004430
         N            1.684679504632    -1.045030774343    -0.413151015612    14.003074004430
         C           -0.421494495368     0.027989225657    -0.003279015612    12.000000000000
         C           -1.127512495368     1.208325225657    -0.249233015612    12.000000000000
         C           -1.088044495368    -1.174912774343     0.243628984388    12.000000000000
         C            1.816189504632     1.062488225657     0.411978984388    12.000000000000
         C           -2.522367495368     1.183631225657    -0.225598015612    12.000000000000
         C           -2.481935495368    -1.187639774343     0.241823984388    12.000000000000
         C            3.112647504632     0.609967225657     0.242635984388    12.000000000000
         C           -3.202685495368    -0.011098774343     0.018836984388    12.000000000000
         C            2.976645504632    -0.693525774343    -0.264033015612    12.000000000000
         H           -0.593998495368     2.125072225657    -0.485321015612     1.007825032230
         H           -0.507729495368    -2.074533774343     0.420939984388     1.007825032230
         H            1.435898004632     1.940414425657     0.795603784388     1.007825032230
         H           -3.076816495368     2.098880225657    -0.417234015612     1.007825032230
         H           -3.007299495368    -2.120622774343     0.429954984388     1.007825032230
         H            4.022803504632     1.147060225657     0.470098984388     1.007825032230
         H           -4.289418495368    -0.027111774343     0.026945984388     1.007825032230
         H            3.748066504632    -1.400522774343    -0.541033015612     1.007825032230

  Basis Set: AUG-CC-PVTZ
    Blend: AUG-CC-PVTZ
  Basis Set: (AUG-CC-PVTZ AUX)
    Blend: AUG-CC-PVTZ-JKFIT
	 Reference Energy          =    -454.4872519572236342 [Eh]
	 Singles Energy            =      -0.0000000000000000 [Eh]
	 Same-Spin Energy          =      -0.5095478105510161 [Eh]
	 Opposite-Spin Energy      =      -1.5475628234922203 [Eh]
	 Correlation Energy        =      -2.0571106340432364 [Eh]
	 Total Energy              =    -456.5443625912668608 [Eh]

	 ================> DF-SCS-MP2 Energies <==================
	-----------------------------------------------------------
	 SCS Same-Spin Scale       =       0.3333333333333333 [-]
	 SCS Opposite-Spin Scale   =       1.2000000000000000 [-]
	 SCS Same-Spin Energy      =      -0.1698492701836720 [Eh]
	 SCS Opposite-Spin Energy  =      -1.8570753881906643 [Eh]
	 SCS Correlation Energy    =      -2.0269246583743361 [Eh]
	 SCS Total Energy          =    -456.5141766155979894 [Eh]
	-----------------------------------------------------------

  Dipole Moment: [D]
     X:    -0.8876      Y:     1.6335      Z:     0.7362     Total:     1.9995

*** Psi4 exiting successfully. Buy a developer a beer!
