                               Psi4 1.3.2 release

  ==> Input File <==

--------------------------------------------------------------------------
#psi4
#
memory 32 gb

molecule  {
0 1
  N        1.0119030     0.0333230     0.0008060
  N        1.6166581    -1.0987090    -0.4343231
  C       -0.4063900     0.0163860    -0.0081010
  C       -1.1124080     1.1967220    -0.2540550
  C       -1.0729400    -1.1865160     0.2388070
  C        1.8312940     1.0508850     0.4071570
  C       -2.5072630     1.1720280    -0.2304200
  C       -2.4668310    -1.1992430     0.2370020
  C        3.1277520     0.5983640     0.2378140
  C       -3.1875810    -0.0227020     0.0140150
  C        2.9917500    -0.7051290    -0.2688550
  H       -0.5788940     2.1134690    -0.4901430
  H       -0.4926250    -2.0861370     0.4161180
  H        1.4325560     1.9713960     0.8093900
  H       -3.0617120     2.0872770    -0.4220560
  H       -2.9921950    -2.1322260     0.4251330
  H        4.0379080     1.1354570     0.4652770
  H       -4.2743140    -0.0387150     0.0221240
  H        3.7631710    -1.4121260    -0.5458550
units angstrom
no_reorient  #important for SAPT in psi4, default
symmetry c1  #important for SAPT in psi4, default
}

set PROPERTIES_ORIGIN ["COM"]
properties('MP2/aug-cc-pvtz', properties = ['dipole'])
--------------------------------------------------------------------------

    Molecular point group: c1
  Charge       = 0
  Multiplicity = 1
  Basis Set: AUG-CC-PVTZ
    Blend: AUG-CC-PVTZ
  Basis Set: (AUG-CC-PVTZ AUX)
    Blend: AUG-CC-PVTZ-JKFIT

    Orbital Energies [Eh]
    ---------------------

    Doubly Occupied:

       1A    -15.658135     2A    -15.600618     3A    -11.289767
       4A    -11.284942     5A    -11.269317     6A    -11.247665
       7A    -11.246288     8A    -11.245396     9A    -11.240829
      10A    -11.240443    11A    -11.233750    12A     -1.376723
      13A     -1.169758    14A     -1.096248    15A     -1.071223
      16A     -1.023694    17A     -0.995565    18A     -0.860906
      19A     -0.845915    20A     -0.793305    21A     -0.778159
      22A     -0.743033    23A     -0.686167    24A     -0.647972
      25A     -0.636137    26A     -0.613679    27A     -0.596414
      28A     -0.593113    29A     -0.583611    30A     -0.560148
      31A     -0.519289    32A     -0.508910    33A     -0.505848
      34A     -0.472167    35A     -0.390640    36A     -0.347722
      37A     -0.343748    38A     -0.311720

  @DF-RHF Final Energy:  -454.47010002225733

   => Energetics <=

    Nuclear Repulsion Energy =            545.3991148745327564
    One-Electron Energy =               -1696.4804983272877053
    Two-Electron Energy =                 696.6112834304975650
    Total Energy =                       -454.4701000222572702
  Basis Set: (AUG-CC-PVTZ AUX)
    Blend: AUG-CC-PVTZ-RI
    Molecular point group: c1

    Geometry (in Angstrom), charge = 0, multiplicity = 1:

       Center              X                  Y                   Z               Mass
    ------------   -----------------  -----------------  -----------------  -----------------
         N            1.005007147992     0.048717896772     0.007086995125    14.003074004430
         N            1.609762247992    -1.083314103228    -0.428042104875    14.003074004430
         C           -0.413285852008     0.031780896772    -0.001820004875    12.000000000000
         C           -1.119303852008     1.212116896772    -0.247774004875    12.000000000000
         C           -1.079835852008    -1.171121103228     0.245087995125    12.000000000000
         C            1.824398147992     1.066279896772     0.413437995125    12.000000000000
         C           -2.514158852008     1.187422896772    -0.224139004875    12.000000000000
         C           -2.473726852008    -1.183848103228     0.243282995125    12.000000000000
         C            3.120856147992     0.613758896772     0.244094995125    12.000000000000
         C           -3.194476852008    -0.007307103228     0.020295995125    12.000000000000
         C            2.984854147992    -0.689734103228    -0.262574004875    12.000000000000
         H           -0.585789852008     2.128863896772    -0.483862004875     1.007825032230
         H           -0.499520852008    -2.070742103228     0.422398995125     1.007825032230
         H            1.425660147992     1.986790896772     0.815670995125     1.007825032230
         H           -3.068607852008     2.102671896772    -0.415775004875     1.007825032230
         H           -2.999090852008    -2.116831103228     0.431413995125     1.007825032230
         H            4.031012147992     1.150851896772     0.471557995125     1.007825032230
         H           -4.281209852008    -0.023320103228     0.028404995125     1.007825032230
         H            3.756275147992    -1.396731103228    -0.539574004875     1.007825032230

  Basis Set: AUG-CC-PVTZ
    Blend: AUG-CC-PVTZ
  Basis Set: (AUG-CC-PVTZ AUX)
    Blend: AUG-CC-PVTZ-JKFIT
	 Reference Energy          =    -454.4701000222573271 [Eh]
	 Singles Energy            =      -0.0000000000000000 [Eh]
	 Same-Spin Energy          =      -0.5126889134375286 [Eh]
	 Opposite-Spin Energy      =      -1.5541458898823244 [Eh]
	 Correlation Energy        =      -2.0668348033198529 [Eh]
	 Total Energy              =    -456.5369348255771911 [Eh]

	 ================> DF-SCS-MP2 Energies <==================
	-----------------------------------------------------------
	 SCS Same-Spin Scale       =       0.3333333333333333 [-]
	 SCS Opposite-Spin Scale   =       1.2000000000000000 [-]
	 SCS Same-Spin Energy      =      -0.1708963044791762 [Eh]
	 SCS Opposite-Spin Energy  =      -1.8649750678587891 [Eh]
	 SCS Correlation Energy    =      -2.0358713723379651 [Eh]
	 SCS Total Energy          =    -456.5059713945952922 [Eh]
	-----------------------------------------------------------

  Dipole Moment: [D]
     X:    -0.8161      Y:     1.7557      Z:     0.7878     Total:     2.0902

*** Psi4 exiting successfully. Buy a developer a beer!
