                               Psi4 1.3.2 release

  ==> Input File <==

--------------------------------------------------------------------------
#psi4
#
memory 32 gb

molecule  {
0 1
  N        1.0506181     0.0080204    -0.0110937
  N        1.6997840    -1.0566340    -0.4179730
  C       -0.4063900     0.0163860    -0.0081010
  C       -1.1124080     1.1967220    -0.2540550
  C       -1.0729400    -1.1865160     0.2388070
  C        1.8312940     1.0508850     0.4071570
  C       -2.5072630     1.1720280    -0.2304200
  C       -2.4668310    -1.1992430     0.2370020
  C        3.1277520     0.5983640     0.2378140
  C       -3.1875810    -0.0227020     0.0140150
  C        2.9917500    -0.7051290    -0.2688550
  H       -0.5788940     2.1134690    -0.4901430
  H       -0.4926250    -2.0861370     0.4161180
  H        1.4325560     1.9713960     0.8093900
  H       -3.0617120     2.0872770    -0.4220560
  H       -2.9921950    -2.1322260     0.4251330
  H        4.0379080     1.1354570     0.4652770
  H       -4.2743140    -0.0387150     0.0221240
  H        3.7631710    -1.4121260    -0.5458550
units angstrom
no_reorient  #important for SAPT in psi4, default
symmetry c1  #important for SAPT in psi4, default
}

set PROPERTIES_ORIGIN ["COM"]
properties('MP2/aug-cc-pvtz', properties = ['dipole'])
--------------------------------------------------------------------------

    Molecular point group: c1
  Charge       = 0
  Multiplicity = 1
  Basis Set: AUG-CC-PVTZ
    Blend: AUG-CC-PVTZ
  Basis Set: (AUG-CC-PVTZ AUX)
    Blend: AUG-CC-PVTZ-JKFIT

    Orbital Energies [Eh]
    ---------------------

    Doubly Occupied:

       1A    -15.654741     2A    -15.589802     3A    -11.294392
       4A    -11.277476     5A    -11.254021     6A    -11.250106
       7A    -11.248866     8A    -11.247161     9A    -11.242932
      10A    -11.242741    11A    -11.226656    12A     -1.397714
      13A     -1.173791    14A     -1.105046    15A     -1.068229
      16A     -1.025945    17A     -0.999467    18A     -0.855454
      19A     -0.847833    20A     -0.801413    21A     -0.776365
      22A     -0.743995    23A     -0.688224    24A     -0.649985
      25A     -0.639181    26A     -0.618403    27A     -0.598472
      28A     -0.596232    29A     -0.587117    30A     -0.561415
      31A     -0.519602    32A     -0.512723    33A     -0.508229
      34A     -0.465862    35A     -0.389823    36A     -0.350393
      37A     -0.347113    38A     -0.315537

  @DF-RHF Final Energy:  -454.48594471350793

   => Energetics <=

    Nuclear Repulsion Energy =            546.5092931876470175
    One-Electron Energy =               -1698.6455583311062583
    Two-Electron Energy =                 697.6503204299513072
    Total Energy =                       -454.4859447135079336
  Basis Set: (AUG-CC-PVTZ AUX)
    Blend: AUG-CC-PVTZ-RI
    Molecular point group: c1

    Geometry (in Angstrom), charge = 0, multiplicity = 1:

       Center              X                  Y                   Z               Mass
    ------------   -----------------  -----------------  -----------------  -----------------
         N            1.031879648120     0.021785067029    -0.005245271142    14.003074004430
         N            1.681045548120    -1.042869332971    -0.412124571142    14.003074004430
         C           -0.425128451880     0.030150667029    -0.002252571142    12.000000000000
         C           -1.131146451880     1.210486667029    -0.248206571142    12.000000000000
         C           -1.091678451880    -1.172751332971     0.244655428858    12.000000000000
         C            1.812555548120     1.064649667029     0.413005428858    12.000000000000
         C           -2.526001451880     1.185792667029    -0.224571571142    12.000000000000
         C           -2.485569451880    -1.185478332971     0.242850428858    12.000000000000
         C            3.109013548120     0.612128667029     0.243662428858    12.000000000000
         C           -3.206319451880    -0.008937332971     0.019863428858    12.000000000000
         C            2.973011548120    -0.691364332971    -0.263006571142    12.000000000000
         H           -0.597632451880     2.127233667029    -0.484294571142     1.007825032230
         H           -0.511363451880    -2.072372332971     0.421966428858     1.007825032230
         H            1.413817548120     1.985160667029     0.815238428858     1.007825032230
         H           -3.080450451880     2.101041667029    -0.416207571142     1.007825032230
         H           -3.010933451880    -2.118461332971     0.430981428858     1.007825032230
         H            4.019169548120     1.149221667029     0.471125428858     1.007825032230
         H           -4.293052451880    -0.024950332971     0.027972428858     1.007825032230
         H            3.744432548120    -1.398361332971    -0.540006571142     1.007825032230

  Basis Set: AUG-CC-PVTZ
    Blend: AUG-CC-PVTZ
  Basis Set: (AUG-CC-PVTZ AUX)
    Blend: AUG-CC-PVTZ-JKFIT
	 Reference Energy          =    -454.4859447135079336 [Eh]
	 Singles Energy            =      -0.0000000000000000 [Eh]
	 Same-Spin Energy          =      -0.5097664319266022 [Eh]
	 Opposite-Spin Energy      =      -1.5473300402169121 [Eh]
	 Correlation Energy        =      -2.0570964721435141 [Eh]
	 Total Energy              =    -456.5430411856514752 [Eh]

	 ================> DF-SCS-MP2 Energies <==================
	-----------------------------------------------------------
	 SCS Same-Spin Scale       =       0.3333333333333333 [-]
	 SCS Opposite-Spin Scale   =       1.2000000000000000 [-]
	 SCS Same-Spin Energy      =      -0.1699221439755341 [Eh]
	 SCS Opposite-Spin Energy  =      -1.8567960482602945 [Eh]
	 SCS Correlation Energy    =      -2.0267181922358288 [Eh]
	 SCS Total Energy          =    -456.5126629057437526 [Eh]
	-----------------------------------------------------------

  Dipole Moment: [D]
     X:    -1.0564      Y:     1.6556      Z:     0.7374     Total:     2.0978

*** Psi4 exiting successfully. Buy a developer a beer!
