                               Psi4 1.3.2 release

  ==> Input File <==

--------------------------------------------------------------------------
#psi4
#
memory 32 gb

molecule  {
0 1
  N        1.0119030     0.0333230     0.0008060
  N        1.6997840    -1.0566340    -0.4179730
  C       -0.4063900     0.0163860    -0.0081010
  C       -1.1124080     1.1967220    -0.2540550
  C       -1.0729400    -1.1865160     0.2388070
  C        1.8312940     1.0508850     0.4071570
  C       -2.5072630     1.1720280    -0.2304200
  C       -2.4668310    -1.1992430     0.2370020
  C        3.1277520     0.5983640     0.2378140
  C       -3.1875810    -0.0227020     0.0140150
  C        3.0014292    -0.6123603    -0.2327957
  H       -0.5788940     2.1134690    -0.4901430
  H       -0.4926250    -2.0861370     0.4161180
  H        1.4325560     1.9713960     0.8093900
  H       -3.0617120     2.0872770    -0.4220560
  H       -2.9921950    -2.1322260     0.4251330
  H        4.0379080     1.1354570     0.4652770
  H       -4.2743140    -0.0387150     0.0221240
  H        3.7631710    -1.4121260    -0.5458550
units angstrom
no_reorient  #important for SAPT in psi4, default
symmetry c1  #important for SAPT in psi4, default
}

set PROPERTIES_ORIGIN ["COM"]
properties('MP2/aug-cc-pvtz', properties = ['dipole'])
--------------------------------------------------------------------------

    Molecular point group: c1
  Charge       = 0
  Multiplicity = 1
  Basis Set: AUG-CC-PVTZ
    Blend: AUG-CC-PVTZ
  Basis Set: (AUG-CC-PVTZ AUX)
    Blend: AUG-CC-PVTZ-JKFIT

    Orbital Energies [Eh]
    ---------------------

    Doubly Occupied:

       1A    -15.658079     2A    -15.586855     3A    -11.292210
       4A    -11.282799     5A    -11.254414     6A    -11.249295
       7A    -11.248075     8A    -11.246906     9A    -11.242655
      10A    -11.242473    11A    -11.219625    12A     -1.383448
      13A     -1.176345    14A     -1.109260    15A     -1.071280
      16A     -1.025535    17A     -1.003002    18A     -0.868300
      19A     -0.846082    20A     -0.789759    21A     -0.779076
      22A     -0.744415    23A     -0.687923    24A     -0.649125
      25A     -0.639183    26A     -0.615601    27A     -0.599086
      28A     -0.596862    29A     -0.589302    30A     -0.543634
      31A     -0.520904    32A     -0.511450    33A     -0.507270
      34A     -0.469122    35A     -0.402852    36A     -0.348378
      37A     -0.341728    38A     -0.317191

  @DF-RHF Final Energy:  -454.46927724222496

   => Energetics <=

    Nuclear Repulsion Energy =            547.3111381882645219
    One-Electron Energy =               -1700.2418322145076672
    Two-Electron Energy =                 698.4614167840181835
    Total Energy =                       -454.4692772422249618
  Basis Set: (AUG-CC-PVTZ AUX)
    Blend: AUG-CC-PVTZ-RI
    Molecular point group: c1

    Geometry (in Angstrom), charge = 0, multiplicity = 1:

       Center              X                  Y                   Z               Mass
    ------------   -----------------  -----------------  -----------------  -----------------
         N            0.996121331014     0.036901290053     0.002494304008    14.003074004430
         N            1.684002331014    -1.053055709947    -0.416284695992    14.003074004430
         C           -0.422171668986     0.019964290053    -0.006412695992    12.000000000000
         C           -1.128189668986     1.200300290053    -0.252366695992    12.000000000000
         C           -1.088721668986    -1.182937709947     0.240495304008    12.000000000000
         C            1.815512331014     1.054463290053     0.408845304008    12.000000000000
         C           -2.523044668986     1.175606290053    -0.228731695992    12.000000000000
         C           -2.482612668986    -1.195664709947     0.238690304008    12.000000000000
         C            3.111970331014     0.601942290053     0.239502304008    12.000000000000
         C           -3.203362668986    -0.019123709947     0.015703304008    12.000000000000
         C            2.985647531014    -0.608782009947    -0.231107395992    12.000000000000
         H           -0.594675668986     2.117047290053    -0.488454695992     1.007825032230
         H           -0.508406668986    -2.082558709947     0.417806304008     1.007825032230
         H            1.416774331014     1.974974290053     0.811078304008     1.007825032230
         H           -3.077493668986     2.090855290053    -0.420367695992     1.007825032230
         H           -3.007976668986    -2.128647709947     0.426821304008     1.007825032230
         H            4.022126331014     1.139035290053     0.466965304008     1.007825032230
         H           -4.290095668986    -0.035136709947     0.023812304008     1.007825032230
         H            3.747389331014    -1.408547709947    -0.544166695992     1.007825032230

  Basis Set: AUG-CC-PVTZ
    Blend: AUG-CC-PVTZ
  Basis Set: (AUG-CC-PVTZ AUX)
    Blend: AUG-CC-PVTZ-JKFIT
	 Reference Energy          =    -454.4692772422249618 [Eh]
	 Singles Energy            =      -0.0000000000000000 [Eh]
	 Same-Spin Energy          =      -0.5117860340906416 [Eh]
	 Opposite-Spin Energy      =      -1.5510567453053923 [Eh]
	 Correlation Energy        =      -2.0628427793960338 [Eh]
	 Total Energy              =    -456.5321200216209832 [Eh]

	 ================> DF-SCS-MP2 Energies <==================
	-----------------------------------------------------------
	 SCS Same-Spin Scale       =       0.3333333333333333 [-]
	 SCS Opposite-Spin Scale   =       1.2000000000000000 [-]
	 SCS Same-Spin Energy      =      -0.1705953446968805 [Eh]
	 SCS Opposite-Spin Energy  =      -1.8612680943664706 [Eh]
	 SCS Correlation Energy    =      -2.0318634390633510 [Eh]
	 SCS Total Energy          =    -456.5011406812882910 [Eh]
	-----------------------------------------------------------

  Dipole Moment: [D]
     X:    -1.0127      Y:     1.7582      Z:     0.7878     Total:     2.1766

*** Psi4 exiting successfully. Buy a developer a beer!
