                               Psi4 1.3.2 release

  ==> Input File <==

--------------------------------------------------------------------------
#psi4
#
memory 32 gb

molecule  {
0 1
  N        1.0114283     0.0575779    -0.0041260
  N        1.6997840    -1.0566340    -0.4179730
  C       -0.4063900     0.0163860    -0.0081010
  C       -1.1124080     1.1967220    -0.2540550
  C       -1.0729400    -1.1865160     0.2388070
  C        1.8312940     1.0508850     0.4071570
  C       -2.5072630     1.1720280    -0.2304200
  C       -2.4668310    -1.1992430     0.2370020
  C        3.1277520     0.5983640     0.2378140
  C       -3.1875810    -0.0227020     0.0140150
  C        2.9917500    -0.7051290    -0.2688550
  H       -0.5788940     2.1134690    -0.4901430
  H       -0.4926250    -2.0861370     0.4161180
  H        1.4325560     1.9713960     0.8093900
  H       -3.0617120     2.0872770    -0.4220560
  H       -2.9921950    -2.1322260     0.4251330
  H        4.0379080     1.1354570     0.4652770
  H       -4.2743140    -0.0387150     0.0221240
  H        3.7631710    -1.4121260    -0.5458550
units angstrom
no_reorient  #important for SAPT in psi4, default
symmetry c1  #important for SAPT in psi4, default
}

set PROPERTIES_ORIGIN ["COM"]
properties('MP2/aug-cc-pvtz', properties = ['dipole'])
--------------------------------------------------------------------------

    Molecular point group: c1
  Charge       = 0
  Multiplicity = 1
  Basis Set: AUG-CC-PVTZ
    Blend: AUG-CC-PVTZ
  Basis Set: (AUG-CC-PVTZ AUX)
    Blend: AUG-CC-PVTZ-JKFIT

    Orbital Energies [Eh]
    ---------------------

    Doubly Occupied:

       1A    -15.650825     2A    -15.589943     3A    -11.291911
       4A    -11.283103     5A    -11.261051     6A    -11.247948
       7A    -11.246319     8A    -11.246088     9A    -11.241361
      10A    -11.240896    11A    -11.226722    12A     -1.378583
      13A     -1.175331    14A     -1.112098    15A     -1.063776
      16A     -1.024452    17A     -0.997987    18A     -0.861010
      19A     -0.847813    20A     -0.796558    21A     -0.777810
      22A     -0.743150    23A     -0.686674    24A     -0.648772
      25A     -0.639272    26A     -0.614641    27A     -0.597269
      28A     -0.594507    29A     -0.586779    30A     -0.564136
      31A     -0.520500    32A     -0.510659    33A     -0.506801
      34A     -0.462720    35A     -0.396003    36A     -0.349816
      37A     -0.346340    38A     -0.313178

  @DF-RHF Final Energy:  -454.48754414935644

   => Energetics <=

    Nuclear Repulsion Energy =            546.3010277799619416
    One-Electron Energy =               -1698.2915356985081416
    Two-Electron Energy =                 697.5029637691898188
    Total Energy =                       -454.4875441493563812
  Basis Set: (AUG-CC-PVTZ AUX)
    Blend: AUG-CC-PVTZ-RI
    Molecular point group: c1

    Geometry (in Angstrom), charge = 0, multiplicity = 1:

       Center              X                  Y                   Z               Mass
    ------------   -----------------  -----------------  -----------------  -----------------
         N            0.996498985606     0.066525718487     0.001045188166    14.003074004430
         N            1.684854685606    -1.047686181513    -0.412801811834    14.003074004430
         C           -0.421319314394     0.025333818487    -0.002929811834    12.000000000000
         C           -1.127337314394     1.205669818487    -0.248883811834    12.000000000000
         C           -1.087869314394    -1.177568181513     0.243978188166    12.000000000000
         C            1.816364685606     1.059832818487     0.412328188166    12.000000000000
         C           -2.522192314394     1.180975818487    -0.225248811834    12.000000000000
         C           -2.481760314394    -1.190295181513     0.242173188166    12.000000000000
         C            3.112822685606     0.607311818487     0.242985188166    12.000000000000
         C           -3.202510314394    -0.013754181513     0.019186188166    12.000000000000
         C            2.976820685606    -0.696181181513    -0.263683811834    12.000000000000
         H           -0.593823314394     2.122416818487    -0.484971811834     1.007825032230
         H           -0.507554314394    -2.077189181513     0.421289188166     1.007825032230
         H            1.417626685606     1.980343818487     0.814561188166     1.007825032230
         H           -3.076641314394     2.096224818487    -0.416884811834     1.007825032230
         H           -3.007124314394    -2.123278181513     0.430304188166     1.007825032230
         H            4.022978685606     1.144404818487     0.470448188166     1.007825032230
         H           -4.289243314394    -0.029767181513     0.027295188166     1.007825032230
         H            3.748241685606    -1.403178181513    -0.540683811834     1.007825032230

  Basis Set: AUG-CC-PVTZ
    Blend: AUG-CC-PVTZ
  Basis Set: (AUG-CC-PVTZ AUX)
    Blend: AUG-CC-PVTZ-JKFIT
	 Reference Energy          =    -454.4875441493564381 [Eh]
	 Singles Energy            =      -0.0000000000000000 [Eh]
	 Same-Spin Energy          =      -0.5095461885796887 [Eh]
	 Opposite-Spin Energy      =      -1.5479288560519879 [Eh]
	 Correlation Energy        =      -2.0574750446316767 [Eh]
	 Total Energy              =    -456.5450191939881392 [Eh]

	 ================> DF-SCS-MP2 Energies <==================
	-----------------------------------------------------------
	 SCS Same-Spin Scale       =       0.3333333333333333 [-]
	 SCS Opposite-Spin Scale   =       1.2000000000000000 [-]
	 SCS Same-Spin Energy      =      -0.1698487295265629 [Eh]
	 SCS Opposite-Spin Energy  =      -1.8575146272623855 [Eh]
	 SCS Correlation Energy    =      -2.0273633567889484 [Eh]
	 SCS Total Energy          =    -456.5149075061453914 [Eh]
	-----------------------------------------------------------

  Dipole Moment: [D]
     X:    -0.8853      Y:     1.6281      Z:     0.7410     Total:     1.9959

*** Psi4 exiting successfully. Buy a developer a beer!
