                               Psi4 1.4a3.dev225

  ==> Input File <==

--------------------------------------------------------------------------
#psi4
#
memory 32 gb

molecule  {
0 1
  N        1.0119030     0.0333230     0.0008060
  N        1.6997840    -1.0566340    -0.4179730
  C       -0.4063900     0.0163860    -0.0081010
  C       -1.1124080     1.1967220    -0.2540550
  C       -1.0729400    -1.1865160     0.2388070
  C        1.8312940     1.0508850     0.4071570
  C       -2.5072630     1.1720280    -0.2304200
  C       -2.4668310    -1.1992430     0.2370020
  C        3.0809000     0.6147174     0.2439338
  C       -3.1875810    -0.0227020     0.0140150
  C        2.9917500    -0.7051290    -0.2688550
  H       -0.5788940     2.1134690    -0.4901430
  H       -0.4926250    -2.0861370     0.4161180
  H        1.4325560     1.9713960     0.8093900
  H       -3.0617120     2.0872770    -0.4220560
  H       -2.9921950    -2.1322260     0.4251330
  H        4.0379080     1.1354570     0.4652770
  H       -4.2743140    -0.0387150     0.0221240
  H        3.7631710    -1.4121260    -0.5458550
units angstrom
no_reorient  #important for SAPT in psi4, default
symmetry c1  #important for SAPT in psi4, default
}

set PROPERTIES_ORIGIN ["COM"]
properties('MP2/aug-cc-pvtz', properties = ['dipole'])
--------------------------------------------------------------------------

    Molecular point group: c1
  Charge       = 0
  Multiplicity = 1
  Basis Set: AUG-CC-PVTZ
    Blend: AUG-CC-PVTZ
  Basis Set: (AUG-CC-PVTZ AUX)
    Blend: AUG-CC-PVTZ-JKFIT

    Orbital Energies [Eh]
    ---------------------

    Doubly Occupied:

       1A    -15.647395     2A    -15.593585     3A    -11.290768
       4A    -11.275928     5A    -11.260709     6A    -11.247393
       7A    -11.245597     8A    -11.245220     9A    -11.239846
      10A    -11.239701    11A    -11.226604    12A     -1.383606
      13A     -1.174895    14A     -1.109357    15A     -1.071921
      16A     -1.023861    17A     -0.996292    18A     -0.857504
      19A     -0.847985    20A     -0.795881    21A     -0.778474
      22A     -0.743072    23A     -0.685960    24A     -0.648652
      25A     -0.640029    26A     -0.614384    27A     -0.596963
      28A     -0.594715    29A     -0.578765    30A     -0.573131
      31A     -0.519113    32A     -0.510400    33A     -0.505813
      34A     -0.462392    35A     -0.394081    36A     -0.357307
      37A     -0.346007    38A     -0.310820

  @DF-RHF Final Energy:  -454.48604678477682

   => Energetics <=

    Nuclear Repulsion Energy =            547.1726924197145081
    One-Electron Energy =               -1700.0492249367146087
    Two-Electron Energy =                 698.3904857322233966
    Total Energy =                       -454.4860467847768177
  Basis Set: (AUG-CC-PVTZ AUX)
    Blend: AUG-CC-PVTZ-RI
    Molecular point group: c1

    Geometry (in Angstrom), charge = 0, multiplicity = 1:

       Center              X                  Y                   Z               Mass
    ------------   -----------------  -----------------  -----------------  -----------------
         N            1.000830016333     0.043266192997     0.004988071771    14.003074004430
         N            1.688711016333    -1.046690807003    -0.413790928229    14.003074004430
         C           -0.417462983667     0.026329192997    -0.003918928229    12.000000000000
         C           -1.123480983667     1.206665192997    -0.249872928229    12.000000000000
         C           -1.084012983667    -1.176572807003     0.242989071771    12.000000000000
         C            1.820221016333     1.060828192997     0.411339071771    12.000000000000
         C           -2.518335983667     1.181971192997    -0.226237928229    12.000000000000
         C           -2.477903983667    -1.189299807003     0.241184071771    12.000000000000
         C            3.069827016333     0.624660592997     0.248115871771    12.000000000000
         C           -3.198653983667    -0.012758807003     0.018197071771    12.000000000000
         C            2.980677016333    -0.695185807003    -0.264672928229    12.000000000000
         H           -0.589966983667     2.123412192997    -0.485960928229     1.007825032230
         H           -0.503697983667    -2.076193807003     0.420300071771     1.007825032230
         H            1.421483016333     1.981339192997     0.813572071771     1.007825032230
         H           -3.072784983667     2.097220192997    -0.417873928229     1.007825032230
         H           -3.003267983667    -2.122282807003     0.429315071771     1.007825032230
         H            4.026835016333     1.145400192997     0.469459071771     1.007825032230
         H           -4.285386983667    -0.028771807003     0.026306071771     1.007825032230
         H            3.752098016333    -1.402182807003    -0.541672928229     1.007825032230

  Basis Set: AUG-CC-PVTZ
    Blend: AUG-CC-PVTZ
  Basis Set: (AUG-CC-PVTZ AUX)
    Blend: AUG-CC-PVTZ-JKFIT
	 Reference Energy          =    -454.4860467847768177 [Eh]
	 Singles Energy            =      -0.0000000000000000 [Eh]
	 Same-Spin Energy          =      -0.5092155626682386 [Eh]
	 Opposite-Spin Energy      =      -1.5471741407013031 [Eh]
	 Correlation Energy        =      -2.0563897033695415 [Eh]
	 Total Energy              =    -456.5424364881463362 [Eh]

	 ================> DF-SCS-MP2 Energies <==================
	-----------------------------------------------------------
	 SCS Same-Spin Scale       =       0.3333333333333333 [-]
	 SCS Opposite-Spin Scale   =       1.2000000000000000 [-]
	 SCS Same-Spin Energy      =      -0.1697385208894129 [Eh]
	 SCS Opposite-Spin Energy  =      -1.8566089688415637 [Eh]
	 SCS Correlation Energy    =      -2.0263474897309766 [Eh]
	 SCS Total Energy          =    -456.5123942745078125 [Eh]
	-----------------------------------------------------------

  Dipole Moment: [D]
     X:    -0.7837      Y:     1.6318      Z:     0.7354     Total:     1.9539

*** Psi4 exiting successfully. Buy a developer a beer!
