                               Psi4 1.3.2 release

  ==> Input File <==

--------------------------------------------------------------------------
#psi4
#
memory 32 gb

molecule  {
0 1
  N        1.0119030     0.0333230     0.0008060
  N        1.6586176    -1.0781851    -0.4268299
  C       -0.4063900     0.0163860    -0.0081010
  C       -1.1124080     1.1967220    -0.2540550
  C       -1.0729400    -1.1865160     0.2388070
  C        1.8312940     1.0508850     0.4071570
  C       -2.5072630     1.1720280    -0.2304200
  C       -2.4668310    -1.1992430     0.2370020
  C        3.1277520     0.5983640     0.2378140
  C       -3.1875810    -0.0227020     0.0140150
  C        2.9917500    -0.7051290    -0.2688550
  H       -0.5788940     2.1134690    -0.4901430
  H       -0.4926250    -2.0861370     0.4161180
  H        1.4325560     1.9713960     0.8093900
  H       -3.0617120     2.0872770    -0.4220560
  H       -2.9921950    -2.1322260     0.4251330
  H        4.0379080     1.1354570     0.4652770
  H       -4.2743140    -0.0387150     0.0221240
  H        3.7631710    -1.4121260    -0.5458550
units angstrom
no_reorient  #important for SAPT in psi4, default
symmetry c1  #important for SAPT in psi4, default
}

set PROPERTIES_ORIGIN ["COM"]
properties('MP2/aug-cc-pvtz', properties = ['dipole'])
--------------------------------------------------------------------------

    Molecular point group: c1
  Charge       = 0
  Multiplicity = 1
  Basis Set: AUG-CC-PVTZ
    Blend: AUG-CC-PVTZ
  Basis Set: (AUG-CC-PVTZ AUX)
    Blend: AUG-CC-PVTZ-JKFIT

    Orbital Energies [Eh]
    ---------------------

    Doubly Occupied:

       1A    -15.654932     2A    -15.595953     3A    -11.290726
       4A    -11.283777     5A    -11.264698     6A    -11.247950
       7A    -11.246526     8A    -11.245697     9A    -11.240920
      10A    -11.240697    11A    -11.230914    12A     -1.379226
      13A     -1.172315    14A     -1.103054    15A     -1.067663
      16A     -1.024079    17A     -0.996896    18A     -0.860842
      19A     -0.846847    20A     -0.794739    21A     -0.778341
      22A     -0.742964    23A     -0.686430    24A     -0.648459
      25A     -0.637753    26A     -0.614404    27A     -0.596651
      28A     -0.593212    29A     -0.586859    30A     -0.561787
      31A     -0.519831    32A     -0.509734    33A     -0.506579
      34A     -0.468515    35A     -0.392235    36A     -0.348604
      37A     -0.345316    38A     -0.312593

  @DF-RHF Final Energy:  -454.48093787769534

   => Energetics <=

    Nuclear Repulsion Energy =            545.8496424916546630
    One-Electron Energy =               -1697.3837211394034057
    Two-Electron Energy =                 697.0531407700532327
    Total Energy =                       -454.4809378776953963
  Basis Set: (AUG-CC-PVTZ AUX)
    Blend: AUG-CC-PVTZ-RI
    Molecular point group: c1

    Geometry (in Angstrom), charge = 0, multiplicity = 1:

       Center              X                  Y                   Z               Mass
    ------------   -----------------  -----------------  -----------------  -----------------
         N            1.000928803516     0.046723031862     0.006358677322    14.003074004430
         N            1.647643403516    -1.064785068138    -0.421277222678    14.003074004430
         C           -0.417364196484     0.029786031862    -0.002548322678    12.000000000000
         C           -1.123382196484     1.210122031862    -0.248502322678    12.000000000000
         C           -1.083914196484    -1.173115968138     0.244359677322    12.000000000000
         C            1.820319803516     1.064285031862     0.412709677322    12.000000000000
         C           -2.518237196484     1.185428031862    -0.224867322678    12.000000000000
         C           -2.477805196484    -1.185842968138     0.242554677322    12.000000000000
         C            3.116777803516     0.611764031862     0.243366677322    12.000000000000
         C           -3.198555196484    -0.009301968138     0.019567677322    12.000000000000
         C            2.980775803516    -0.691728968138    -0.263302322678    12.000000000000
         H           -0.589868196484     2.126869031862    -0.484590322678     1.007825032230
         H           -0.503599196484    -2.072736968138     0.421670677322     1.007825032230
         H            1.421581803516     1.984796031862     0.814942677322     1.007825032230
         H           -3.072686196484     2.100677031862    -0.416503322678     1.007825032230
         H           -3.003169196484    -2.118825968138     0.430685677322     1.007825032230
         H            4.026933803516     1.148857031862     0.470829677322     1.007825032230
         H           -4.285288196484    -0.025314968138     0.027676677322     1.007825032230
         H            3.752196803516    -1.398725968138    -0.540302322678     1.007825032230

  Basis Set: AUG-CC-PVTZ
    Blend: AUG-CC-PVTZ
  Basis Set: (AUG-CC-PVTZ AUX)
    Blend: AUG-CC-PVTZ-JKFIT
	 Reference Energy          =    -454.4809378776953395 [Eh]
	 Singles Energy            =      -0.0000000000000000 [Eh]
	 Same-Spin Energy          =      -0.5111373014266717 [Eh]
	 Opposite-Spin Energy      =      -1.5508945941620960 [Eh]
	 Correlation Energy        =      -2.0620318955887678 [Eh]
	 Total Energy              =    -456.5429697732840850 [Eh]

	 ================> DF-SCS-MP2 Energies <==================
	-----------------------------------------------------------
	 SCS Same-Spin Scale       =       0.3333333333333333 [-]
	 SCS Opposite-Spin Scale   =       1.2000000000000000 [-]
	 SCS Same-Spin Energy      =      -0.1703791004755572 [Eh]
	 SCS Opposite-Spin Energy  =      -1.8610735129945151 [Eh]
	 SCS Correlation Energy    =      -2.0314526134700723 [Eh]
	 SCS Total Energy          =    -456.5123904911654336 [Eh]
	-----------------------------------------------------------

  Dipole Moment: [D]
     X:    -0.8523      Y:     1.7018      Z:     0.7657     Total:     2.0515

*** Psi4 exiting successfully. Buy a developer a beer!
