                               Psi4 1.3.2 release

  ==> Input File <==

--------------------------------------------------------------------------
#psi4
#
memory 32 gb

molecule  {
0 1
  N        0.8936259    -0.0392536    -0.0286035
  N        1.6997840    -1.0566340    -0.4179730
  C       -0.4063900     0.0163860    -0.0081010
  C       -1.1124080     1.1967220    -0.2540550
  C       -1.0729400    -1.1865160     0.2388070
  C        1.8312940     1.0508850     0.4071570
  C       -2.5072630     1.1720280    -0.2304200
  C       -2.4668310    -1.1992430     0.2370020
  C        3.1277520     0.5983640     0.2378140
  C       -3.1875810    -0.0227020     0.0140150
  C        2.9917500    -0.7051290    -0.2688550
  H       -0.5788940     2.1134690    -0.4901430
  H       -0.4926250    -2.0861370     0.4161180
  H        1.4325560     1.9713960     0.8093900
  H       -3.0617120     2.0872770    -0.4220560
  H       -2.9921950    -2.1322260     0.4251330
  H        4.0379080     1.1354570     0.4652770
  H       -4.2743140    -0.0387150     0.0221240
  H        3.7631710    -1.4121260    -0.5458550
units angstrom
no_reorient  #important for SAPT in psi4, default
symmetry c1  #important for SAPT in psi4, default
}

set PROPERTIES_ORIGIN ["COM"]
properties('MP2/aug-cc-pvtz', properties = ['dipole'])
--------------------------------------------------------------------------

    Molecular point group: c1
  Charge       = 0
  Multiplicity = 1
  Basis Set: AUG-CC-PVTZ
    Blend: AUG-CC-PVTZ
  Basis Set: (AUG-CC-PVTZ AUX)
    Blend: AUG-CC-PVTZ-JKFIT

    Orbital Energies [Eh]
    ---------------------

    Doubly Occupied:

       1A    -15.650557     2A    -15.601158     3A    -11.294526
       4A    -11.281740     5A    -11.267927     6A    -11.244675
       7A    -11.243524     8A    -11.241488     9A    -11.240643
      10A    -11.233832    11A    -11.232322    12A     -1.377331
      13A     -1.189505    14A     -1.117706    15A     -1.054561
      16A     -1.019900    17A     -0.990825    18A     -0.878201
      19A     -0.849810    20A     -0.792119    21A     -0.776040
      22A     -0.734166    23A     -0.683306    24A     -0.656846
      25A     -0.650014    26A     -0.618063    27A     -0.606819
      28A     -0.593625    29A     -0.576392    30A     -0.567498
      31A     -0.517712    32A     -0.506514    33A     -0.503452
      34A     -0.449457    35A     -0.407107    36A     -0.351510
      37A     -0.343124    38A     -0.297137

  @DF-RHF Final Energy:  -454.45517623590689

   => Energetics <=

    Nuclear Repulsion Energy =            546.6490017743022918
    One-Electron Energy =               -1698.9260894753801949
    Two-Electron Energy =                 697.8219114651710697
    Total Energy =                       -454.4551762359069471
  Basis Set: (AUG-CC-PVTZ AUX)
    Blend: AUG-CC-PVTZ-RI
    Molecular point group: c1

    Geometry (in Angstrom), charge = 0, multiplicity = 1:

       Center              X                  Y                   Z               Mass
    ------------   -----------------  -----------------  -----------------  -----------------
         N            0.890146645005    -0.020894034157    -0.021053168209    14.003074004430
         N            1.696304745005    -1.038274434157    -0.410422668209    14.003074004430
         C           -0.409869254995     0.034745565843    -0.000550668209    12.000000000000
         C           -1.115887254995     1.215081565843    -0.246504668209    12.000000000000
         C           -1.076419254995    -1.168156434157     0.246357331791    12.000000000000
         C            1.827814745005     1.069244565843     0.414707331791    12.000000000000
         C           -2.510742254995     1.190387565843    -0.222869668209    12.000000000000
         C           -2.470310254995    -1.180883434157     0.244552331791    12.000000000000
         C            3.124272745005     0.616723565843     0.245364331791    12.000000000000
         C           -3.191060254995    -0.004342434157     0.021565331791    12.000000000000
         C            2.988270745005    -0.686769434157    -0.261304668209    12.000000000000
         H           -0.582373254995     2.131828565843    -0.482592668209     1.007825032230
         H           -0.496104254995    -2.067777434157     0.423668331791     1.007825032230
         H            1.429076745005     1.989755565843     0.816940331791     1.007825032230
         H           -3.065191254995     2.105636565843    -0.414505668209     1.007825032230
         H           -2.995674254995    -2.113866434157     0.432683331791     1.007825032230
         H            4.034428745005     1.153816565843     0.472827331791     1.007825032230
         H           -4.277793254995    -0.020355434157     0.029674331791     1.007825032230
         H            3.759691745005    -1.393766434157    -0.538304668209     1.007825032230

  Basis Set: AUG-CC-PVTZ
    Blend: AUG-CC-PVTZ
  Basis Set: (AUG-CC-PVTZ AUX)
    Blend: AUG-CC-PVTZ-JKFIT
	 Reference Energy          =    -454.4551762359068903 [Eh]
	 Singles Energy            =      -0.0000000000000000 [Eh]
	 Same-Spin Energy          =      -0.5114689254718492 [Eh]
	 Opposite-Spin Energy      =      -1.5521392997439933 [Eh]
	 Correlation Energy        =      -2.0636082252158428 [Eh]
	 Total Energy              =    -456.5187844611227206 [Eh]

	 ================> DF-SCS-MP2 Energies <==================
	-----------------------------------------------------------
	 SCS Same-Spin Scale       =       0.3333333333333333 [-]
	 SCS Opposite-Spin Scale   =       1.2000000000000000 [-]
	 SCS Same-Spin Energy      =      -0.1704896418239497 [Eh]
	 SCS Opposite-Spin Energy  =      -1.8625671596927920 [Eh]
	 SCS Correlation Energy    =      -2.0330568015167416 [Eh]
	 SCS Total Energy          =    -456.4882330374236403 [Eh]
	-----------------------------------------------------------

  Dipole Moment: [D]
     X:    -0.3149      Y:     1.6422      Z:     0.7302     Total:     1.8246

*** Psi4 exiting successfully. Buy a developer a beer!
