                               Psi4 1.3.2 release

  ==> Input File <==

--------------------------------------------------------------------------
#psi4
#
memory 32 gb

molecule  {
0 1
  N        1.0119030     0.0333230     0.0008060
  N        1.6997840    -1.0566340    -0.4179730
  C       -0.4063900     0.0163860    -0.0081010
  C       -1.1124080     1.1967220    -0.2540550
  C       -1.0729400    -1.1865160     0.2388070
  C        1.8312940     1.0508850     0.4071570
  C       -2.5072630     1.1720280    -0.2304200
  C       -2.4668310    -1.1992430     0.2370020
  C        3.1277520     0.5983640     0.2378140
  C       -3.1875810    -0.0227020     0.0140150
  C        2.9430361    -0.6995476    -0.2677645
  H       -0.5788940     2.1134690    -0.4901430
  H       -0.4926250    -2.0861370     0.4161180
  H        1.4325560     1.9713960     0.8093900
  H       -3.0617120     2.0872770    -0.4220560
  H       -2.9921950    -2.1322260     0.4251330
  H        4.0379080     1.1354570     0.4652770
  H       -4.2743140    -0.0387150     0.0221240
  H        3.7631710    -1.4121260    -0.5458550
units angstrom
no_reorient  #important for SAPT in psi4, default
symmetry c1  #important for SAPT in psi4, default
}

set PROPERTIES_ORIGIN ["COM"]
properties('MP2/aug-cc-pvtz', properties = ['dipole'])
--------------------------------------------------------------------------

    Molecular point group: c1
  Charge       = 0
  Multiplicity = 1
  Basis Set: AUG-CC-PVTZ
    Blend: AUG-CC-PVTZ
  Basis Set: (AUG-CC-PVTZ AUX)
    Blend: AUG-CC-PVTZ-JKFIT

    Orbital Energies [Eh]
    ---------------------

    Doubly Occupied:

       1A    -15.648491     2A    -15.587901     3A    -11.291166
       4A    -11.283933     5A    -11.258490     6A    -11.247776
       7A    -11.246008     8A    -11.245663     9A    -11.240363
      10A    -11.240182    11A    -11.226706    12A     -1.389656
      13A     -1.178319    14A     -1.115868    15A     -1.066745
      16A     -1.024276    17A     -0.997127    18A     -0.859196
      19A     -0.847393    20A     -0.798292    21A     -0.775405
      22A     -0.744331    23A     -0.686064    24A     -0.649693
      25A     -0.639112    26A     -0.618056    27A     -0.596842
      28A     -0.593287    29A     -0.592375    30A     -0.554564
      31A     -0.519676    32A     -0.511089    33A     -0.507061
      34A     -0.465485    35A     -0.397744    36A     -0.354547
      37A     -0.346431    38A     -0.312191

  @DF-RHF Final Energy:  -454.48799935343504

   => Energetics <=

    Nuclear Repulsion Energy =            547.4675018133116282
    One-Electron Energy =               -1700.5959999427545881
    Two-Electron Energy =                 698.6404987760079166
    Total Energy =                       -454.4879993534350433
  Basis Set: (AUG-CC-PVTZ AUX)
    Blend: AUG-CC-PVTZ-RI
    Molecular point group: c1

    Geometry (in Angstrom), charge = 0, multiplicity = 1:

       Center              X                  Y                   Z               Mass
    ------------   -----------------  -----------------  -----------------  -----------------
         N            1.000985100627     0.044163431306     0.005406980110    14.003074004430
         N            1.688866100627    -1.045793568694    -0.413372019890    14.003074004430
         C           -0.417307899373     0.027226431306    -0.003500019890    12.000000000000
         C           -1.123325899373     1.207562431306    -0.249454019890    12.000000000000
         C           -1.083857899373    -1.175675568694     0.243407980110    12.000000000000
         C            1.820376100627     1.061725431306     0.411757980110    12.000000000000
         C           -2.518180899373     1.182868431306    -0.225819019890    12.000000000000
         C           -2.477748899373    -1.188402568694     0.241602980110    12.000000000000
         C            3.116834100627     0.609204431306     0.242414980110    12.000000000000
         C           -3.198498899373    -0.011861568694     0.018615980110    12.000000000000
         C            2.932118200627    -0.688707168694    -0.263163519890    12.000000000000
         H           -0.589811899373     2.124309431306    -0.485542019890     1.007825032230
         H           -0.503542899373    -2.075296568694     0.420718980110     1.007825032230
         H            1.421638100627     1.982236431306     0.813990980110     1.007825032230
         H           -3.072629899373     2.098117431306    -0.417455019890     1.007825032230
         H           -3.003112899373    -2.121385568694     0.429733980110     1.007825032230
         H            4.026990100627     1.146297431306     0.469877980110     1.007825032230
         H           -4.285231899373    -0.027874568694     0.026724980110     1.007825032230
         H            3.752253100627    -1.401285568694    -0.541254019890     1.007825032230

  Basis Set: AUG-CC-PVTZ
    Blend: AUG-CC-PVTZ
  Basis Set: (AUG-CC-PVTZ AUX)
    Blend: AUG-CC-PVTZ-JKFIT
	 Reference Energy          =    -454.4879993534350433 [Eh]
	 Singles Energy            =      -0.0000000000000000 [Eh]
	 Same-Spin Energy          =      -0.5086517485865101 [Eh]
	 Opposite-Spin Energy      =      -1.5459236140781591 [Eh]
	 Correlation Energy        =      -2.0545753626646692 [Eh]
	 Total Energy              =    -456.5425747160996934 [Eh]

	 ================> DF-SCS-MP2 Energies <==================
	-----------------------------------------------------------
	 SCS Same-Spin Scale       =       0.3333333333333333 [-]
	 SCS Opposite-Spin Scale   =       1.2000000000000000 [-]
	 SCS Same-Spin Energy      =      -0.1695505828621700 [Eh]
	 SCS Opposite-Spin Energy  =      -1.8551083368937908 [Eh]
	 SCS Correlation Energy    =      -2.0246589197559608 [Eh]
	 SCS Total Energy          =    -456.5126582731909934 [Eh]
	-----------------------------------------------------------

  Dipole Moment: [D]
     X:    -0.8399      Y:     1.6473      Z:     0.7418     Total:     1.9923

*** Psi4 exiting successfully. Buy a developer a beer!
