                               Psi4 1.3.2 release

  ==> Input File <==

--------------------------------------------------------------------------
#psi4
#
memory 32 gb

molecule  {
0 1
  N        1.0119030     0.0333230     0.0008060
  N        1.6997840    -1.0566340    -0.4179730
  C       -0.4063900     0.0163860    -0.0081010
  C       -1.1124080     1.1967220    -0.2540550
  C       -1.0729400    -1.1865160     0.2388070
  C        1.8312940     1.0508850     0.4071570
  C       -2.5072630     1.1720280    -0.2304200
  C       -2.4668310    -1.1992430     0.2370020
  C        2.9403438     0.6637777     0.2622932
  C       -3.1875810    -0.0227020     0.0140150
  C        2.9917500    -0.7051290    -0.2688550
  H       -0.5788940     2.1134690    -0.4901430
  H       -0.4926250    -2.0861370     0.4161180
  H        1.4325560     1.9713960     0.8093900
  H       -3.0617120     2.0872770    -0.4220560
  H       -2.9921950    -2.1322260     0.4251330
  H        4.0379080     1.1354570     0.4652770
  H       -4.2743140    -0.0387150     0.0221240
  H        3.7631710    -1.4121260    -0.5458550
units angstrom
no_reorient  #important for SAPT in psi4, default
symmetry c1  #important for SAPT in psi4, default
}

set PROPERTIES_ORIGIN ["COM"]
properties('MP2/aug-cc-pvtz', properties = ['dipole'])
--------------------------------------------------------------------------

    Molecular point group: c1
  Charge       = 0
  Multiplicity = 1
  Basis Set: AUG-CC-PVTZ
    Blend: AUG-CC-PVTZ
  Basis Set: (AUG-CC-PVTZ AUX)
    Blend: AUG-CC-PVTZ-JKFIT

    Orbital Energies [Eh]
    ---------------------

    Doubly Occupied:

       1A    -15.634688     2A    -15.602091     3A    -11.288052
       4A    -11.265401     5A    -11.252968     6A    -11.245181
       7A    -11.243098     8A    -11.242183     9A    -11.236460
      10A    -11.236303    11A    -11.221833    12A     -1.388913
      13A     -1.173169    14A     -1.109976    15A     -1.099593
      16A     -1.021886    17A     -0.990801    18A     -0.852408
      19A     -0.844779    20A     -0.796928    21A     -0.775680
      22A     -0.745724    23A     -0.683827    24A     -0.649133
      25A     -0.641463    26A     -0.619010    27A     -0.605142
      28A     -0.593995    29A     -0.587596    30A     -0.541079
      31A     -0.514552    32A     -0.509630    33A     -0.500741
      34A     -0.457920    35A     -0.399475    36A     -0.379383
      37A     -0.343936    38A     -0.304600

  @DF-RHF Final Energy:  -454.42651918732793

   => Energetics <=

    Nuclear Repulsion Energy =            549.8376428140372809
    One-Electron Energy =               -1705.3291305905552235
    Two-Electron Energy =                 701.0649685891900162
    Total Energy =                       -454.4265191873279264
  Basis Set: (AUG-CC-PVTZ AUX)
    Blend: AUG-CC-PVTZ-RI
    Molecular point group: c1

    Geometry (in Angstrom), charge = 0, multiplicity = 1:

       Center              X                  Y                   Z               Mass
    ------------   -----------------  -----------------  -----------------  -----------------
         N            1.012537443658     0.039179785590     0.003458851849    14.003074004430
         N            1.700418443658    -1.050777214410    -0.415320148151    14.003074004430
         C           -0.405755556342     0.022242785590    -0.005448148151    12.000000000000
         C           -1.111773556342     1.202578785590    -0.251402148151    12.000000000000
         C           -1.072305556342    -1.180659214410     0.241459851849    12.000000000000
         C            1.831928443658     1.056741785590     0.409809851849    12.000000000000
         C           -2.506628556342     1.177884785590    -0.227767148151    12.000000000000
         C           -2.466196556342    -1.193386214410     0.239654851849    12.000000000000
         C            2.940978243658     0.669634485590     0.264946051849    12.000000000000
         C           -3.186946556342    -0.016845214410     0.016667851849    12.000000000000
         C            2.992384443658    -0.699272214410    -0.266202148151    12.000000000000
         H           -0.578259556342     2.119325785590    -0.487490148151     1.007825032230
         H           -0.491990556342    -2.080280214410     0.418770851849     1.007825032230
         H            1.433190443658     1.977252785590     0.812042851849     1.007825032230
         H           -3.061077556342     2.093133785590    -0.419403148151     1.007825032230
         H           -2.991560556342    -2.126369214410     0.427785851849     1.007825032230
         H            4.038542443658     1.141313785590     0.467929851849     1.007825032230
         H           -4.273679556342    -0.032858214410     0.024776851849     1.007825032230
         H            3.763805443658    -1.406269214410    -0.543202148151     1.007825032230

  Basis Set: AUG-CC-PVTZ
    Blend: AUG-CC-PVTZ
  Basis Set: (AUG-CC-PVTZ AUX)
    Blend: AUG-CC-PVTZ-JKFIT
	 Reference Energy          =    -454.4265191873279264 [Eh]
	 Singles Energy            =      -0.0000000000000000 [Eh]
	 Same-Spin Energy          =      -0.5081744010942677 [Eh]
	 Opposite-Spin Energy      =      -1.5463627505853705 [Eh]
	 Correlation Energy        =      -2.0545371516796385 [Eh]
	 Total Energy              =    -456.4810563390075799 [Eh]

	 ================> DF-SCS-MP2 Energies <==================
	-----------------------------------------------------------
	 SCS Same-Spin Scale       =       0.3333333333333333 [-]
	 SCS Opposite-Spin Scale   =       1.2000000000000000 [-]
	 SCS Same-Spin Energy      =      -0.1693914670314225 [Eh]
	 SCS Opposite-Spin Energy  =      -1.8556353007024446 [Eh]
	 SCS Correlation Energy    =      -2.0250267677338671 [Eh]
	 SCS Total Energy          =    -456.4515459550618175 [Eh]
	-----------------------------------------------------------

  Dipole Moment: [D]
     X:    -0.4590      Y:     1.5915      Z:     0.7156     Total:     1.8044

*** Psi4 exiting successfully. Buy a developer a beer!
