                               Psi4 1.3.2 release

  ==> Input File <==

--------------------------------------------------------------------------
#psi4
#
memory 32 gb

molecule  {
0 1
  N        1.0119030     0.0333230     0.0008060
  N        1.6997840    -1.0566340    -0.4179730
  C       -0.4063900     0.0163860    -0.0081010
  C       -1.1124080     1.1967220    -0.2540550
  C       -1.0729400    -1.1865160     0.2388070
  C        1.8312940     1.0508850     0.4071570
  C       -2.5072630     1.1720280    -0.2304200
  C       -2.4668310    -1.1992430     0.2370020
  C        3.0702598     0.4776275     0.1822233
  C       -3.1875810    -0.0227020     0.0140150
  C        2.9917500    -0.7051290    -0.2688550
  H       -0.5788940     2.1134690    -0.4901430
  H       -0.4926250    -2.0861370     0.4161180
  H        1.4325560     1.9713960     0.8093900
  H       -3.0617120     2.0872770    -0.4220560
  H       -2.9921950    -2.1322260     0.4251330
  H        4.0379080     1.1354570     0.4652770
  H       -4.2743140    -0.0387150     0.0221240
  H        3.7631710    -1.4121260    -0.5458550
units angstrom
no_reorient  #important for SAPT in psi4, default
symmetry c1  #important for SAPT in psi4, default
}

set PROPERTIES_ORIGIN ["COM"]
properties('MP2/aug-cc-pvtz', properties = ['dipole'])
--------------------------------------------------------------------------

    Molecular point group: c1
  Charge       = 0
  Multiplicity = 1
  Basis Set: AUG-CC-PVTZ
    Blend: AUG-CC-PVTZ
  Basis Set: (AUG-CC-PVTZ AUX)
    Blend: AUG-CC-PVTZ-JKFIT

    Orbital Energies [Eh]
    ---------------------

    Doubly Occupied:

       1A    -15.657724     2A    -15.583729     3A    -11.291814
       4A    -11.278961     5A    -11.249481     6A    -11.248273
       7A    -11.246762     8A    -11.242569     9A    -11.242175
      10A    -11.240212    11A    -11.221759    12A     -1.389587
      13A     -1.180670    14A     -1.118300    15A     -1.065321
      16A     -1.025313    17A     -1.005583    18A     -0.870450
      19A     -0.847208    20A     -0.792079    21A     -0.781369
      22A     -0.740336    23A     -0.687592    24A     -0.650774
      25A     -0.641198    26A     -0.613937    27A     -0.607358
      28A     -0.597778    29A     -0.592925    30A     -0.539915
      31A     -0.519341    32A     -0.512960    33A     -0.505389
      34A     -0.457567    35A     -0.407258    36A     -0.348200
      37A     -0.340451    38A     -0.319674

  @DF-RHF Final Energy:  -454.45430045933324

   => Energetics <=

    Nuclear Repulsion Energy =            549.0304886654852226
    One-Electron Energy =               -1703.6455940725438722
    Two-Electron Energy =                 700.1608049477255236
    Total Energy =                       -454.4543004593332398
  Basis Set: (AUG-CC-PVTZ AUX)
    Blend: AUG-CC-PVTZ-RI
    Molecular point group: c1

    Geometry (in Angstrom), charge = 0, multiplicity = 1:

       Center              X                  Y                   Z               Mass
    ------------   -----------------  -----------------  -----------------  -----------------
         N            1.001716276550     0.054684899828     0.010128159464    14.003074004430
         N            1.689597276550    -1.035272100172    -0.408650840536    14.003074004430
         C           -0.416576723450     0.037747899828     0.001221159464    12.000000000000
         C           -1.122594723450     1.218083899828    -0.244732840536    12.000000000000
         C           -1.083126723450    -1.165154100172     0.248129159464    12.000000000000
         C            1.821107276550     1.072246899828     0.416479159464    12.000000000000
         C           -2.517449723450     1.193389899828    -0.221097840536    12.000000000000
         C           -2.477017723450    -1.177881100172     0.246324159464    12.000000000000
         C            3.060073076550     0.498989399828     0.191545459464    12.000000000000
         C           -3.197767723450    -0.001340100172     0.023337159464    12.000000000000
         C            2.981563276550    -0.683767100172    -0.259532840536    12.000000000000
         H           -0.589080723450     2.134830899828    -0.480820840536     1.007825032230
         H           -0.502811723450    -2.064775100172     0.425440159464     1.007825032230
         H            1.422369276550     1.992757899828     0.818712159464     1.007825032230
         H           -3.071898723450     2.108638899828    -0.412733840536     1.007825032230
         H           -3.002381723450    -2.110864100172     0.434455159464     1.007825032230
         H            4.027721276550     1.156818899828     0.474599159464     1.007825032230
         H           -4.284500723450    -0.017353100172     0.031446159464     1.007825032230
         H            3.752984276550    -1.390764100172    -0.536532840536     1.007825032230

  Basis Set: AUG-CC-PVTZ
    Blend: AUG-CC-PVTZ
  Basis Set: (AUG-CC-PVTZ AUX)
    Blend: AUG-CC-PVTZ-JKFIT
	 Reference Energy          =    -454.4543004593332398 [Eh]
	 Singles Energy            =      -0.0000000000000000 [Eh]
	 Same-Spin Energy          =      -0.5118238315727027 [Eh]
	 Opposite-Spin Energy      =      -1.5502230807412167 [Eh]
	 Correlation Energy        =      -2.0620469123139196 [Eh]
	 Total Energy              =    -456.5163473716471572 [Eh]

	 ================> DF-SCS-MP2 Energies <==================
	-----------------------------------------------------------
	 SCS Same-Spin Scale       =       0.3333333333333333 [-]
	 SCS Opposite-Spin Scale   =       1.2000000000000000 [-]
	 SCS Same-Spin Energy      =      -0.1706079438575676 [Eh]
	 SCS Opposite-Spin Energy  =      -1.8602676968894600 [Eh]
	 SCS Correlation Energy    =      -2.0308756407470274 [Eh]
	 SCS Total Energy          =    -456.4851761000802526 [Eh]
	-----------------------------------------------------------

  Dipole Moment: [D]
     X:    -1.0307      Y:     1.6068      Z:     0.7365     Total:     2.0461

*** Psi4 exiting successfully. Buy a developer a beer!
