                               Psi4 1.3.2 release

  ==> Input File <==

--------------------------------------------------------------------------
#psi4
#
memory 32 gb

molecule  {
0 1
  N        1.0119030     0.0333230     0.0008060
  N        1.6997840    -1.0566340    -0.4179730
  C       -0.4063900     0.0163860    -0.0081010
  C       -1.1124080     1.1967220    -0.2540550
  C       -1.0729400    -1.1865160     0.2388070
  C        1.8312940     1.0508850     0.4071570
  C       -2.5072630     1.1720280    -0.2304200
  C       -2.4668310    -1.1992430     0.2370020
  C        3.1277520     0.5983640     0.2378140
  C       -3.1875810    -0.0227020     0.0140150
  C        2.9917500    -0.7051290    -0.2688550
  H       -0.5788940     2.1134690    -0.4901430
  H       -0.4926250    -2.0861370     0.4161180
  H        1.4325560     1.9713960     0.8093900
  H       -3.0617120     2.0872770    -0.4220560
  H       -2.9921950    -2.1322260     0.4251330
  H        4.0379080     1.1354570     0.4652770
  H       -4.2743140    -0.0387150     0.0221240
  H        3.8344382    -1.4774415    -0.5714455
units angstrom
no_reorient  #important for SAPT in psi4, default
symmetry c1  #important for SAPT in psi4, default
}

set PROPERTIES_ORIGIN ["COM"]
properties('MP2/aug-cc-pvtz', properties = ['dipole'])
--------------------------------------------------------------------------

    Molecular point group: c1
  Charge       = 0
  Multiplicity = 1
  Basis Set: AUG-CC-PVTZ
    Blend: AUG-CC-PVTZ
  Basis Set: (AUG-CC-PVTZ AUX)
    Blend: AUG-CC-PVTZ-JKFIT

    Orbital Energies [Eh]
    ---------------------

    Doubly Occupied:

       1A    -15.652370     2A    -15.591418     3A    -11.292029
       4A    -11.283211     5A    -11.270450     6A    -11.248414
       7A    -11.246967     8A    -11.246146     9A    -11.241227
      10A    -11.241061    11A    -11.229052    12A     -1.383092
      13A     -1.175628    14A     -1.109814    15A     -1.064651
      16A     -1.024638    17A     -0.997313    18A     -0.859476
      19A     -0.846508    20A     -0.793503    21A     -0.774223
      22A     -0.742166    23A     -0.685526    24A     -0.648641
      25A     -0.637726    26A     -0.614826    27A     -0.596699
      28A     -0.592468    29A     -0.589207    30A     -0.552080
      31A     -0.520294    32A     -0.510822    33A     -0.507191
      34A     -0.462549    35A     -0.395380    36A     -0.350358
      37A     -0.346565    38A     -0.313300

  @DF-RHF Final Energy:  -454.48054043261578

   => Energetics <=

    Nuclear Repulsion Energy =            545.8677695359151585
    One-Electron Energy =               -1697.4226425174074393
    Two-Electron Energy =                 697.0743325488764413
    Total Energy =                       -454.4805404326158396
  Basis Set: (AUG-CC-PVTZ AUX)
    Blend: AUG-CC-PVTZ-RI
    Molecular point group: c1

    Geometry (in Angstrom), charge = 0, multiplicity = 1:

       Center              X                  Y                   Z               Mass
    ------------   -----------------  -----------------  -----------------  -----------------
         N            0.996429000320     0.045085237023     0.005676828685    14.003074004430
         N            1.684310000320    -1.044871762977    -0.413102171315    14.003074004430
         C           -0.421863999680     0.028148237023    -0.003230171315    12.000000000000
         C           -1.127881999680     1.208484237023    -0.249184171315    12.000000000000
         C           -1.088413999680    -1.174753762977     0.243677828685    12.000000000000
         C            1.815820000320     1.062647237023     0.412027828685    12.000000000000
         C           -2.522736999680     1.183790237023    -0.225549171315    12.000000000000
         C           -2.482304999680    -1.187480762977     0.241872828685    12.000000000000
         C            3.112278000320     0.610126237023     0.242684828685    12.000000000000
         C           -3.203054999680    -0.010939762977     0.018885828685    12.000000000000
         C            2.976276000320    -0.693366762977    -0.263984171315    12.000000000000
         H           -0.594367999680     2.125231237023    -0.485272171315     1.007825032230
         H           -0.508098999680    -2.074374762977     0.420988828685     1.007825032230
         H            1.417082000320     1.983158237023     0.814260828685     1.007825032230
         H           -3.077185999680     2.099039237023    -0.417185171315     1.007825032230
         H           -3.007668999680    -2.120463762977     0.430003828685     1.007825032230
         H            4.022434000320     1.147219237023     0.470147828685     1.007825032230
         H           -4.289787999680    -0.026952762977     0.026994828685     1.007825032230
         H            3.818964200320    -1.465679262977    -0.566574671315     1.007825032230

  Basis Set: AUG-CC-PVTZ
    Blend: AUG-CC-PVTZ
  Basis Set: (AUG-CC-PVTZ AUX)
    Blend: AUG-CC-PVTZ-JKFIT
	 Reference Energy          =    -454.4805404326157827 [Eh]
	 Singles Energy            =      -0.0000000000000000 [Eh]
	 Same-Spin Energy          =      -0.5098741173548180 [Eh]
	 Opposite-Spin Energy      =      -1.5487409632602480 [Eh]
	 Correlation Energy        =      -2.0586150806150663 [Eh]
	 Total Energy              =    -456.5391555132308667 [Eh]

	 ================> DF-SCS-MP2 Energies <==================
	-----------------------------------------------------------
	 SCS Same-Spin Scale       =       0.3333333333333333 [-]
	 SCS Opposite-Spin Scale   =       1.2000000000000000 [-]
	 SCS Same-Spin Energy      =      -0.1699580391182727 [Eh]
	 SCS Opposite-Spin Energy  =      -1.8584891559122976 [Eh]
	 SCS Correlation Energy    =      -2.0284471950305702 [Eh]
	 SCS Total Energy          =    -456.5089876276463769 [Eh]
	-----------------------------------------------------------

  Dipole Moment: [D]
     X:    -0.9070      Y:     1.6458      Z:     0.7417     Total:     2.0202

*** Psi4 exiting successfully. Buy a developer a beer!
