                               Psi4 1.4a3.dev225

  ==> Input File <==

--------------------------------------------------------------------------
#psi4
#
memory 32 gb

molecule  {
0 1
  N        1.0119030     0.0333230     0.0008060
  N        1.6997840    -1.0566340    -0.4179730
  C       -0.4063900     0.0163860    -0.0081010
  C       -1.1124080     1.1967220    -0.2540550
  C       -1.0729400    -1.1865160     0.2388070
  C        1.8312940     1.0508850     0.4071570
  C       -2.5072630     1.1720280    -0.2304200
  C       -2.4668310    -1.1992430     0.2370020
  C        3.1277520     0.5983640     0.2378140
  C       -3.1875810    -0.0227020     0.0140150
  C        2.9965896    -0.6587446    -0.2508253
  H       -0.5788940     2.1134690    -0.4901430
  H       -0.4926250    -2.0861370     0.4161180
  H        1.4325560     1.9713960     0.8093900
  H       -3.0617120     2.0872770    -0.4220560
  H       -2.9921950    -2.1322260     0.4251330
  H        4.0379080     1.1354570     0.4652770
  H       -4.2743140    -0.0387150     0.0221240
  H        3.7631710    -1.4121260    -0.5458550
units angstrom
no_reorient  #important for SAPT in psi4, default
symmetry c1  #important for SAPT in psi4, default
}

set PROPERTIES_ORIGIN ["COM"]
properties('MP2/aug-cc-pvtz', properties = ['dipole'])
--------------------------------------------------------------------------

    Molecular point group: c1
  Charge       = 0
  Multiplicity = 1
  Basis Set: AUG-CC-PVTZ
    Blend: AUG-CC-PVTZ
  Basis Set: (AUG-CC-PVTZ AUX)
    Blend: AUG-CC-PVTZ-JKFIT

    Orbital Energies [Eh]
    ---------------------

    Doubly Occupied:

       1A    -15.654785     2A    -15.588864     3A    -11.291953
       4A    -11.282670     5A    -11.257154     6A    -11.248719
       7A    -11.247400     8A    -11.246425     9A    -11.241815
      10A    -11.241646    11A    -11.224127    12A     -1.382920
      13A     -1.175743    14A     -1.108862    15A     -1.067951
      16A     -1.024945    17A     -1.000629    18A     -0.864214
      19A     -0.846888    20A     -0.793397    21A     -0.778605
      22A     -0.743718    23A     -0.687265    24A     -0.648888
      25A     -0.639028    26A     -0.615011    27A     -0.597003
      28A     -0.595597    29A     -0.589225    30A     -0.555529
      31A     -0.520690    32A     -0.511139    33A     -0.507471
      34A     -0.466698    35A     -0.398133    36A     -0.348306
      37A     -0.344732    38A     -0.315395

  @DF-RHF Final Energy:  -454.48243408512405

   => Energetics <=

    Nuclear Repulsion Energy =            546.8242774926887932
    One-Electron Energy =               -1699.3063371017046848
    Two-Electron Energy =                 697.9996255238917229
    Total Energy =                       -454.4824340851240549
  Basis Set: (AUG-CC-PVTZ AUX)
    Blend: AUG-CC-PVTZ-RI
    Molecular point group: c1

    Geometry (in Angstrom), charge = 0, multiplicity = 1:

       Center              X                  Y                   Z               Mass
    ------------   -----------------  -----------------  -----------------  -----------------
         N            0.996524438563     0.040764803873     0.003996053712    14.003074004430
         N            1.684405438563    -1.049192196127    -0.414782946288    14.003074004430
         C           -0.421768561437     0.023827803873    -0.004910946288    12.000000000000
         C           -1.127786561437     1.204163803873    -0.250864946288    12.000000000000
         C           -1.088318561437    -1.179074196127     0.241997053712    12.000000000000
         C            1.815915438563     1.058326803873     0.410347053712    12.000000000000
         C           -2.522641561437     1.179469803873    -0.227229946288    12.000000000000
         C           -2.482209561437    -1.191801196127     0.240192053712    12.000000000000
         C            3.112373438563     0.605805803873     0.241004053712    12.000000000000
         C           -3.202959561437    -0.015260196127     0.017205053712    12.000000000000
         C            2.981211038563    -0.651302796127    -0.247635246288    12.000000000000
         H           -0.594272561437     2.120910803873    -0.486952946288     1.007825032230
         H           -0.508003561437    -2.078695196127     0.419308053712     1.007825032230
         H            1.417177438563     1.978837803873     0.812580053712     1.007825032230
         H           -3.077090561437     2.094718803873    -0.418865946288     1.007825032230
         H           -3.007573561437    -2.124784196127     0.428323053712     1.007825032230
         H            4.022529438563     1.142898803873     0.468467053712     1.007825032230
         H           -4.289692561437    -0.031273196127     0.025314053712     1.007825032230
         H            3.747792438563    -1.404684196127    -0.542664946288     1.007825032230

  Basis Set: AUG-CC-PVTZ
    Blend: AUG-CC-PVTZ
  Basis Set: (AUG-CC-PVTZ AUX)
    Blend: AUG-CC-PVTZ-JKFIT
	 Reference Energy          =    -454.4824340851240549 [Eh]
	 Singles Energy            =      -0.0000000000000000 [Eh]
	 Same-Spin Energy          =      -0.5107030061062672 [Eh]
	 Opposite-Spin Energy      =      -1.5493122248945657 [Eh]
	 Correlation Energy        =      -2.0600152310008326 [Eh]
	 Total Energy              =    -456.5424493161248733 [Eh]

	 ================> DF-SCS-MP2 Energies <==================
	-----------------------------------------------------------
	 SCS Same-Spin Scale       =       0.3333333333333333 [-]
	 SCS Opposite-Spin Scale   =       1.2000000000000000 [-]
	 SCS Same-Spin Energy      =      -0.1702343353687557 [Eh]
	 SCS Opposite-Spin Energy  =      -1.8591746698734788 [Eh]
	 SCS Correlation Energy    =      -2.0294090052422344 [Eh]
	 SCS Total Energy          =    -456.5118430903663125 [Eh]
	-----------------------------------------------------------

  Dipole Moment: [D]
     X:    -0.9489      Y:     1.7002      Z:     0.7641     Total:     2.0916

*** Psi4 exiting successfully. Buy a developer a beer!
