                               Psi4 1.3.2 release

  ==> Input File <==

--------------------------------------------------------------------------
#psi4
#
memory 32 gb

molecule  {
0 1
  N        0.9929058     0.0468285     0.0059948
  N        1.6997840    -1.0566340    -0.4179730
  C       -0.4063900     0.0163860    -0.0081010
  C       -1.1124080     1.1967220    -0.2540550
  C       -1.0729400    -1.1865160     0.2388070
  C        1.8312940     1.0508850     0.4071570
  C       -2.5072630     1.1720280    -0.2304200
  C       -2.4668310    -1.1992430     0.2370020
  C        3.1277520     0.5983640     0.2378140
  C       -3.1875810    -0.0227020     0.0140150
  C        2.9917500    -0.7051290    -0.2688550
  H       -0.5788940     2.1134690    -0.4901430
  H       -0.4926250    -2.0861370     0.4161180
  H        1.4325560     1.9713960     0.8093900
  H       -3.0617120     2.0872770    -0.4220560
  H       -2.9921950    -2.1322260     0.4251330
  H        4.0379080     1.1354570     0.4652770
  H       -4.2743140    -0.0387150     0.0221240
  H        3.7631710    -1.4121260    -0.5458550
units angstrom
no_reorient  #important for SAPT in psi4, default
symmetry c1  #important for SAPT in psi4, default
}

set PROPERTIES_ORIGIN ["COM"]
properties('MP2/aug-cc-pvtz', properties = ['dipole'])
--------------------------------------------------------------------------

    Molecular point group: c1
  Charge       = 0
  Multiplicity = 1
  Basis Set: AUG-CC-PVTZ
    Blend: AUG-CC-PVTZ
  Basis Set: (AUG-CC-PVTZ AUX)
    Blend: AUG-CC-PVTZ-JKFIT

    Orbital Energies [Eh]
    ---------------------

    Doubly Occupied:

       1A    -15.650471     2A    -15.591367     3A    -11.290334
       4A    -11.285123     5A    -11.262453     6A    -11.247383
       7A    -11.245494     8A    -11.245383     9A    -11.240083
      10A    -11.239892    11A    -11.228848    12A     -1.376058
      13A     -1.176655    14A     -1.112845    15A     -1.062203
      16A     -1.023695    17A     -0.997403    18A     -0.863634
      19A     -0.847953    20A     -0.795328    21A     -0.778073
      22A     -0.742035    23A     -0.686045    24A     -0.649066
      25A     -0.640299    26A     -0.614303    27A     -0.597495
      28A     -0.595913    29A     -0.585833    30A     -0.564858
      31A     -0.520485    32A     -0.509831    33A     -0.506332
      34A     -0.461091    35A     -0.397693    36A     -0.349843
      37A     -0.345871    38A     -0.311362

  @DF-RHF Final Energy:  -454.48676859664289

   => Energetics <=

    Nuclear Repulsion Energy =            546.3089999690628247
    One-Electron Energy =               -1698.3134718665332912
    Two-Electron Energy =                 697.5177033008275203
    Total Energy =                       -454.4867685966429462
  Basis Set: (AUG-CC-PVTZ AUX)
    Blend: AUG-CC-PVTZ-RI
    Molecular point group: c1

    Geometry (in Angstrom), charge = 0, multiplicity = 1:

       Center              X                  Y                   Z               Mass
    ------------   -----------------  -----------------  -----------------  -----------------
         N            0.979776820109     0.056821129701     0.010182275091    14.003074004430
         N            1.686655020109    -1.046641370299    -0.413785524909    14.003074004430
         C           -0.419518979891     0.026378629701    -0.003913524909    12.000000000000
         C           -1.125536979891     1.206714629701    -0.249867524909    12.000000000000
         C           -1.086068979891    -1.176523370299     0.242994475091    12.000000000000
         C            1.818165020109     1.060877629701     0.411344475091    12.000000000000
         C           -2.520391979891     1.182020629701    -0.226232524909    12.000000000000
         C           -2.479959979891    -1.189250370299     0.241189475091    12.000000000000
         C            3.114623020109     0.608356629701     0.242001475091    12.000000000000
         C           -3.200709979891    -0.012709370299     0.018202475091    12.000000000000
         C            2.978621020109    -0.695136370299    -0.264667524909    12.000000000000
         H           -0.592022979891     2.123461629701    -0.485955524909     1.007825032230
         H           -0.505753979891    -2.076144370299     0.420305475091     1.007825032230
         H            1.419427020109     1.981388629701     0.813577475091     1.007825032230
         H           -3.074840979891     2.097269629701    -0.417868524909     1.007825032230
         H           -3.005323979891    -2.122233370299     0.429320475091     1.007825032230
         H            4.024779020109     1.145449629701     0.469464475091     1.007825032230
         H           -4.287442979891    -0.028722370299     0.026311475091     1.007825032230
         H            3.750042020109    -1.402133370299    -0.541667524909     1.007825032230

  Basis Set: AUG-CC-PVTZ
    Blend: AUG-CC-PVTZ
  Basis Set: (AUG-CC-PVTZ AUX)
    Blend: AUG-CC-PVTZ-JKFIT
	 Reference Energy          =    -454.4867685966428894 [Eh]
	 Singles Energy            =      -0.0000000000000000 [Eh]
	 Same-Spin Energy          =      -0.5097055673732678 [Eh]
	 Opposite-Spin Energy      =      -1.5483588463540339 [Eh]
	 Correlation Energy        =      -2.0580644137273016 [Eh]
	 Total Energy              =    -456.5448330103702119 [Eh]

	 ================> DF-SCS-MP2 Energies <==================
	-----------------------------------------------------------
	 SCS Same-Spin Scale       =       0.3333333333333333 [-]
	 SCS Opposite-Spin Scale   =       1.2000000000000000 [-]
	 SCS Same-Spin Energy      =      -0.1699018557910892 [Eh]
	 SCS Opposite-Spin Energy  =      -1.8580306156248405 [Eh]
	 SCS Correlation Energy    =      -2.0279324714159297 [Eh]
	 SCS Total Energy          =    -456.5147010680587982 [Eh]
	-----------------------------------------------------------

  Dipole Moment: [D]
     X:    -0.7964      Y:     1.6261      Z:     0.7383     Total:     1.9554

*** Psi4 exiting successfully. Buy a developer a beer!
