                               Psi4 1.3.2 release

  ==> Input File <==

--------------------------------------------------------------------------
#psi4
#
memory 32 gb

molecule  {
0 1
  N        1.0119030     0.0333230     0.0008060
  N        1.6997840    -1.0566340    -0.4179730
  C       -0.4063900     0.0163860    -0.0081010
  C       -1.1124080     1.1967220    -0.2540550
  C       -1.0729400    -1.1865160     0.2388070
  C        1.8312940     1.0508850     0.4071570
  C       -2.5072630     1.1720280    -0.2304200
  C       -2.4668310    -1.1992430     0.2370020
  C        3.1277520     0.5983640     0.2378140
  C       -3.1875810    -0.0227020     0.0140150
  C        2.9917500    -0.7051290    -0.2688550
  H       -0.5788940     2.1134690    -0.4901430
  H       -0.4926250    -2.0861370     0.4161180
  H        1.4325560     1.9713960     0.8093900
  H       -3.0617120     2.0872770    -0.4220560
  H       -2.9921950    -2.1322260     0.4251330
  H        4.0379080     1.1354570     0.4652770
  H       -4.2743140    -0.0387150     0.0221240
  H        3.6919038    -1.3468105    -0.5202645
units angstrom
no_reorient  #important for SAPT in psi4, default
symmetry c1  #important for SAPT in psi4, default
}

set PROPERTIES_ORIGIN ["COM"]
properties('MP2/aug-cc-pvtz', properties = ['dipole'])
--------------------------------------------------------------------------

    Molecular point group: c1
  Charge       = 0
  Multiplicity = 1
  Basis Set: AUG-CC-PVTZ
    Blend: AUG-CC-PVTZ
  Basis Set: (AUG-CC-PVTZ AUX)
    Blend: AUG-CC-PVTZ-JKFIT

    Orbital Energies [Eh]
    ---------------------

    Doubly Occupied:

       1A    -15.651501     2A    -15.590400     3A    -11.291548
       4A    -11.282025     5A    -11.248146     6A    -11.248114
       7A    -11.246617     8A    -11.245889     9A    -11.240938
      10A    -11.240778    11A    -11.227349    12A     -1.382020
      13A     -1.175657    14A     -1.111478    15A     -1.063468
      16A     -1.024346    17A     -0.999745    18A     -0.864273
      19A     -0.849879    20A     -0.804156    21A     -0.780236
      22A     -0.743071    23A     -0.688582    24A     -0.650701
      25A     -0.642186    26A     -0.616596    27A     -0.599911
      28A     -0.595383    29A     -0.588395    30A     -0.571173
      31A     -0.520309    32A     -0.510788    33A     -0.506845
      34A     -0.463202    35A     -0.394776    36A     -0.349478
      37A     -0.346164    38A     -0.312868

  @DF-RHF Final Energy:  -454.48186766376546

   => Energetics <=

    Nuclear Repulsion Energy =            546.9244312750247445
    One-Electron Energy =               -1699.4746123408294807
    Two-Electron Energy =                 698.0683134020392799
    Total Energy =                       -454.4818676637654562
  Basis Set: (AUG-CC-PVTZ AUX)
    Blend: AUG-CC-PVTZ-RI
    Molecular point group: c1

    Geometry (in Angstrom), charge = 0, multiplicity = 1:

       Center              X                  Y                   Z               Mass
    ------------   -----------------  -----------------  -----------------  -----------------
         N            0.997426091903     0.044171415023     0.005318794805    14.003074004430
         N            1.685307091903    -1.045785584977    -0.413460205195    14.003074004430
         C           -0.420866908097     0.027234415023    -0.003588205195    12.000000000000
         C           -1.126884908097     1.207570415023    -0.249542205195    12.000000000000
         C           -1.087416908097    -1.175667584977     0.243319794805    12.000000000000
         C            1.816817091903     1.061733415023     0.411669794805    12.000000000000
         C           -2.521739908097     1.182876415023    -0.225907205195    12.000000000000
         C           -2.481307908097    -1.188394584977     0.241514794805    12.000000000000
         C            3.113275091903     0.609212415023     0.242326794805    12.000000000000
         C           -3.202057908097    -0.011853584977     0.018527794805    12.000000000000
         C            2.977273091903    -0.694280584977    -0.264342205195    12.000000000000
         H           -0.593370908097     2.124317415023    -0.485630205195     1.007825032230
         H           -0.507101908097    -2.075288584977     0.420630794805     1.007825032230
         H            1.418079091903     1.982244415023     0.813902794805     1.007825032230
         H           -3.076188908097     2.098125415023    -0.417543205195     1.007825032230
         H           -3.006671908097    -2.121377584977     0.429645794805     1.007825032230
         H            4.023431091903     1.146305415023     0.469789794805     1.007825032230
         H           -4.288790908097    -0.027866584977     0.026636794805     1.007825032230
         H            3.677426891903    -1.335962084977    -0.515751705195     1.007825032230

  Basis Set: AUG-CC-PVTZ
    Blend: AUG-CC-PVTZ
  Basis Set: (AUG-CC-PVTZ AUX)
    Blend: AUG-CC-PVTZ-JKFIT
	 Reference Energy          =    -454.4818676637654562 [Eh]
	 Singles Energy            =      -0.0000000000000000 [Eh]
	 Same-Spin Energy          =      -0.5095543228361746 [Eh]
	 Opposite-Spin Energy      =      -1.5475228001491272 [Eh]
	 Correlation Energy        =      -2.0570771229853020 [Eh]
	 Total Energy              =    -456.5389447867507329 [Eh]

	 ================> DF-SCS-MP2 Energies <==================
	-----------------------------------------------------------
	 SCS Same-Spin Scale       =       0.3333333333333333 [-]
	 SCS Opposite-Spin Scale   =       1.2000000000000000 [-]
	 SCS Same-Spin Energy      =      -0.1698514409453915 [Eh]
	 SCS Opposite-Spin Energy  =      -1.8570273601789526 [Eh]
	 SCS Correlation Energy    =      -2.0268788011243442 [Eh]
	 SCS Total Energy          =    -456.5087464648897821 [Eh]
	-----------------------------------------------------------

  Dipole Moment: [D]
     X:    -0.8770      Y:     1.6383      Z:     0.7390     Total:     1.9998

*** Psi4 exiting successfully. Buy a developer a beer!
