                               Psi4 1.3.2 release

  ==> Input File <==

--------------------------------------------------------------------------
#psi4
#
memory 32 gb

molecule  {
0 1
  N        1.0119030     0.0333230     0.0008060
  N        1.6997840    -1.0566340    -0.4179730
  C       -0.4063900     0.0163860    -0.0081010
  C       -1.1124080     1.1967220    -0.2540550
  C       -1.0729400    -1.1865160     0.2388070
  C        1.8312940     1.0508850     0.4071570
  C       -2.5072630     1.1720280    -0.2304200
  C       -2.4668310    -1.1992430     0.2370020
  C        3.1437862     0.6397783     0.2567873
  C       -3.1875810    -0.0227020     0.0140150
  C        2.9917500    -0.7051290    -0.2688550
  H       -0.5788940     2.1134690    -0.4901430
  H       -0.4926250    -2.0861370     0.4161180
  H        1.4325560     1.9713960     0.8093900
  H       -3.0617120     2.0872770    -0.4220560
  H       -2.9921950    -2.1322260     0.4251330
  H        4.0379080     1.1354570     0.4652770
  H       -4.2743140    -0.0387150     0.0221240
  H        3.7631710    -1.4121260    -0.5458550
units angstrom
no_reorient  #important for SAPT in psi4, default
symmetry c1  #important for SAPT in psi4, default
}

set PROPERTIES_ORIGIN ["COM"]
properties('MP2/aug-cc-pvtz', properties = ['dipole'])
--------------------------------------------------------------------------

    Molecular point group: c1
  Charge       = 0
  Multiplicity = 1
  Basis Set: AUG-CC-PVTZ
    Blend: AUG-CC-PVTZ
  Basis Set: (AUG-CC-PVTZ AUX)
    Blend: AUG-CC-PVTZ-JKFIT

    Orbital Energies [Eh]
    ---------------------

    Doubly Occupied:

       1A    -15.650352     2A    -15.593286     3A    -11.291847
       4A    -11.284282     5A    -11.265376     6A    -11.247964
       7A    -11.246351     8A    -11.245838     9A    -11.240759
      10A    -11.240523    11A    -11.230288    12A     -1.381030
      13A     -1.174516    14A     -1.108923    15A     -1.063250
      16A     -1.024274    17A     -0.996358    18A     -0.859253
      19A     -0.848216    20A     -0.800819    21A     -0.775543
      22A     -0.742444    23A     -0.686832    24A     -0.649121
      25A     -0.640910    26A     -0.619237    27A     -0.599086
      28A     -0.596225    29A     -0.589624    30A     -0.557184
      31A     -0.520231    32A     -0.510340    33A     -0.506720
      34A     -0.463198    35A     -0.392092    36A     -0.352530
      37A     -0.346462    38A     -0.311023

  @DF-RHF Final Energy:  -454.48555982639039

   => Energetics <=

    Nuclear Repulsion Energy =            545.5805722161305766
    One-Electron Energy =               -1696.8276445897686244
    Two-Electron Energy =                 696.7615125472476620
    Total Energy =                       -454.4855598263903858
  Basis Set: (AUG-CC-PVTZ AUX)
    Blend: AUG-CC-PVTZ-RI
    Molecular point group: c1

    Geometry (in Angstrom), charge = 0, multiplicity = 1:

       Center              X                  Y                   Z               Mass
    ------------   -----------------  -----------------  -----------------  -----------------
         N            0.995592000393     0.041178781233     0.003917457902    14.003074004430
         N            1.683473000393    -1.048778218767    -0.414861542098    14.003074004430
         C           -0.422700999607     0.024241781233    -0.004989542098    12.000000000000
         C           -1.128718999607     1.204577781233    -0.250943542098    12.000000000000
         C           -1.089250999607    -1.178660218767     0.241918457902    12.000000000000
         C            1.814983000393     1.058740781233     0.410268457902    12.000000000000
         C           -2.523573999607     1.179883781233    -0.227308542098    12.000000000000
         C           -2.483141999607    -1.191387218767     0.240113457902    12.000000000000
         C            3.127475200393     0.647634081233     0.259898757902    12.000000000000
         C           -3.203891999607    -0.014846218767     0.017126457902    12.000000000000
         C            2.975439000393    -0.697273218767    -0.265743542098    12.000000000000
         H           -0.595204999607     2.121324781233    -0.487031542098     1.007825032230
         H           -0.508935999607    -2.078281218767     0.419229457902     1.007825032230
         H            1.416245000393     1.979251781233     0.812501457902     1.007825032230
         H           -3.078022999607     2.095132781233    -0.418944542098     1.007825032230
         H           -3.008505999607    -2.124370218767     0.428244457902     1.007825032230
         H            4.021597000393     1.143312781233     0.468388457902     1.007825032230
         H           -4.290624999607    -0.030859218767     0.025235457902     1.007825032230
         H            3.746860000393    -1.404270218767    -0.542743542098     1.007825032230

  Basis Set: AUG-CC-PVTZ
    Blend: AUG-CC-PVTZ
  Basis Set: (AUG-CC-PVTZ AUX)
    Blend: AUG-CC-PVTZ-JKFIT
	 Reference Energy          =    -454.4855598263903858 [Eh]
	 Singles Energy            =      -0.0000000000000000 [Eh]
	 Same-Spin Energy          =      -0.5091722541968755 [Eh]
	 Opposite-Spin Energy      =      -1.5478111443978171 [Eh]
	 Correlation Energy        =      -2.0569833985946926 [Eh]
	 Total Energy              =    -456.5425432249850815 [Eh]

	 ================> DF-SCS-MP2 Energies <==================
	-----------------------------------------------------------
	 SCS Same-Spin Scale       =       0.3333333333333333 [-]
	 SCS Opposite-Spin Scale   =       1.2000000000000000 [-]
	 SCS Same-Spin Energy      =      -0.1697240847322918 [Eh]
	 SCS Opposite-Spin Energy  =      -1.8573733732773805 [Eh]
	 SCS Correlation Energy    =      -2.0270974580096723 [Eh]
	 SCS Total Energy          =    -456.5126572844000634 [Eh]
	-----------------------------------------------------------

  Dipole Moment: [D]
     X:    -0.8557      Y:     1.6250      Z:     0.7296     Total:     1.9761

*** Psi4 exiting successfully. Buy a developer a beer!
