                               Psi4 1.4a3.dev225

  ==> Input File <==

--------------------------------------------------------------------------
#psi4
#
memory 32 gb

molecule  {
0 1
  N        1.0119030     0.0333230     0.0008060
  N        1.6997840    -1.0566340    -0.4179730
  C       -0.4063900     0.0163860    -0.0081010
  C       -1.1124080     1.1967220    -0.2540550
  C       -1.0729400    -1.1865160     0.2388070
  C        1.8312940     1.0508850     0.4071570
  C       -2.5072630     1.1720280    -0.2304200
  C       -2.4668310    -1.1992430     0.2370020
  C        3.1277520     0.5983640     0.2378140
  C       -3.1875810    -0.0227020     0.0140150
  C        2.9898142    -0.7236827    -0.2760669
  H       -0.5788940     2.1134690    -0.4901430
  H       -0.4926250    -2.0861370     0.4161180
  H        1.4325560     1.9713960     0.8093900
  H       -3.0617120     2.0872770    -0.4220560
  H       -2.9921950    -2.1322260     0.4251330
  H        4.0379080     1.1354570     0.4652770
  H       -4.2743140    -0.0387150     0.0221240
  H        3.7631710    -1.4121260    -0.5458550
units angstrom
no_reorient  #important for SAPT in psi4, default
symmetry c1  #important for SAPT in psi4, default
}

set PROPERTIES_ORIGIN ["COM"]
properties('MP2/aug-cc-pvtz', properties = ['dipole'])
--------------------------------------------------------------------------

    Molecular point group: c1
  Charge       = 0
  Multiplicity = 1
  Basis Set: AUG-CC-PVTZ
    Blend: AUG-CC-PVTZ
  Basis Set: (AUG-CC-PVTZ AUX)
    Blend: AUG-CC-PVTZ-JKFIT

    Orbital Energies [Eh]
    ---------------------

    Doubly Occupied:

       1A    -15.650756     2A    -15.591490     3A    -11.291670
       4A    -11.282486     5A    -11.260598     6A    -11.248049
       7A    -11.246502     8A    -11.245818     9A    -11.240752
      10A    -11.240593    11A    -11.229477    12A     -1.382281
      13A     -1.175540    14A     -1.111258    15A     -1.062385
      16A     -1.024271    17A     -0.997209    18A     -0.859581
      19A     -0.848428    20A     -0.798766    21A     -0.777254
      22A     -0.742093    23A     -0.686656    24A     -0.649450
      25A     -0.640441    26A     -0.615876    27A     -0.597973
      28A     -0.594645    29A     -0.587952    30A     -0.565387
      31A     -0.520151    32A     -0.510678    33A     -0.506715
      34A     -0.461031    35A     -0.394158    36A     -0.350953
      37A     -0.346403    38A     -0.311980

  @DF-RHF Final Energy:  -454.48843381987945

   => Energetics <=

    Nuclear Repulsion Energy =            546.1861577155906389
    One-Electron Energy =               -1698.0537657251461496
    Two-Electron Energy =                 697.3791741896761778
    Total Energy =                       -454.4884338198794467
  Basis Set: (AUG-CC-PVTZ AUX)
    Blend: AUG-CC-PVTZ-RI
    Molecular point group: c1

    Geometry (in Angstrom), charge = 0, multiplicity = 1:

       Center              X                  Y                   Z               Mass
    ------------   -----------------  -----------------  -----------------  -----------------
         N            0.997088785800     0.046173729885     0.006098516624    14.003074004430
         N            1.684969785800    -1.043783270115    -0.412680483376    14.003074004430
         C           -0.421204214200     0.029236729885    -0.002808483376    12.000000000000
         C           -1.127222214200     1.209572729885    -0.248762483376    12.000000000000
         C           -1.087754214200    -1.173665270115     0.244099516624    12.000000000000
         C            1.816479785800     1.063735729885     0.412449516624    12.000000000000
         C           -2.522077214200     1.184878729885    -0.225127483376    12.000000000000
         C           -2.481645214200    -1.186392270115     0.242294516624    12.000000000000
         C            3.112937785800     0.611214729885     0.243106516624    12.000000000000
         C           -3.202395214200    -0.009851270115     0.019307516624    12.000000000000
         C            2.974999985800    -0.710831970115    -0.270774383376    12.000000000000
         H           -0.593708214200     2.126319729885    -0.484850483376     1.007825032230
         H           -0.507439214200    -2.073286270115     0.421410516624     1.007825032230
         H            1.417741785800     1.984246729885     0.814682516624     1.007825032230
         H           -3.076526214200     2.100127729885    -0.416763483376     1.007825032230
         H           -3.007009214200    -2.119375270115     0.430425516624     1.007825032230
         H            4.023093785800     1.148307729885     0.470569516624     1.007825032230
         H           -4.289128214200    -0.025864270115     0.027416516624     1.007825032230
         H            3.748356785800    -1.399275270115    -0.540562483376     1.007825032230

  Basis Set: AUG-CC-PVTZ
    Blend: AUG-CC-PVTZ
  Basis Set: (AUG-CC-PVTZ AUX)
    Blend: AUG-CC-PVTZ-JKFIT
	 Reference Energy          =    -454.4884338198794467 [Eh]
	 Singles Energy            =      -0.0000000000000000 [Eh]
	 Same-Spin Energy          =      -0.5092848116324489 [Eh]
	 Opposite-Spin Energy      =      -1.5474503812858476 [Eh]
	 Correlation Energy        =      -2.0567351929182962 [Eh]
	 Total Energy              =    -456.5451690127977145 [Eh]

	 ================> DF-SCS-MP2 Energies <==================
	-----------------------------------------------------------
	 SCS Same-Spin Scale       =       0.3333333333333333 [-]
	 SCS Opposite-Spin Scale   =       1.2000000000000000 [-]
	 SCS Same-Spin Energy      =      -0.1697616038774830 [Eh]
	 SCS Opposite-Spin Energy  =      -1.8569404575430171 [Eh]
	 SCS Correlation Energy    =      -2.0267020614205000 [Eh]
	 SCS Total Energy          =    -456.5151358812999547 [Eh]
	-----------------------------------------------------------

  Dipole Moment: [D]
     X:    -0.8607      Y:     1.6116      Z:     0.7280     Total:     1.9667

*** Psi4 exiting successfully. Buy a developer a beer!
