                               Psi4 1.3.2 release

  ==> Input File <==

--------------------------------------------------------------------------
#psi4
#
memory 32 gb

molecule  {
0 1
  N        1.0903286    -0.0175598    -0.0186964
  N        1.6997840    -1.0566340    -0.4179730
  C       -0.4063900     0.0163860    -0.0081010
  C       -1.1124080     1.1967220    -0.2540550
  C       -1.0729400    -1.1865160     0.2388070
  C        1.8312940     1.0508850     0.4071570
  C       -2.5072630     1.1720280    -0.2304200
  C       -2.4668310    -1.1992430     0.2370020
  C        3.1277520     0.5983640     0.2378140
  C       -3.1875810    -0.0227020     0.0140150
  C        2.9917500    -0.7051290    -0.2688550
  H       -0.5788940     2.1134690    -0.4901430
  H       -0.4926250    -2.0861370     0.4161180
  H        1.4325560     1.9713960     0.8093900
  H       -3.0617120     2.0872770    -0.4220560
  H       -2.9921950    -2.1322260     0.4251330
  H        4.0379080     1.1354570     0.4652770
  H       -4.2743140    -0.0387150     0.0221240
  H        3.7631710    -1.4121260    -0.5458550
units angstrom
no_reorient  #important for SAPT in psi4, default
symmetry c1  #important for SAPT in psi4, default
}

set PROPERTIES_ORIGIN ["COM"]
properties('MP2/aug-cc-pvtz', properties = ['dipole'])
--------------------------------------------------------------------------

    Molecular point group: c1
  Charge       = 0
  Multiplicity = 1
  Basis Set: AUG-CC-PVTZ
    Blend: AUG-CC-PVTZ
  Basis Set: (AUG-CC-PVTZ AUX)
    Blend: AUG-CC-PVTZ-JKFIT

    Orbital Energies [Eh]
    ---------------------

    Doubly Occupied:

       1A    -15.657963     2A    -15.589285     3A    -11.296669
       4A    -11.272551     5A    -11.252226     6A    -11.250433
       7A    -11.248481     8A    -11.248274     9A    -11.244675
      10A    -11.244433    11A    -11.225500    12A     -1.416367
      13A     -1.172594    14A     -1.099938    15A     -1.073066
      16A     -1.027370    17A     -1.000363    18A     -0.851552
      19A     -0.846934    20A     -0.805662    21A     -0.774702
      22A     -0.745640    23A     -0.689569    24A     -0.652293
      25A     -0.638821    26A     -0.622432    27A     -0.602090
      28A     -0.599071    29A     -0.580908    30A     -0.559297
      31A     -0.518595    32A     -0.514398    33A     -0.509395
      34A     -0.467290    35A     -0.385202    36A     -0.351558
      37A     -0.348021    38A     -0.316765

  @DF-RHF Final Energy:  -454.47702016140448

   => Energetics <=

    Nuclear Repulsion Energy =            546.7071486576401185
    One-Electron Energy =               -1698.9675733712117562
    Two-Electron Energy =                 697.7834045521672124
    Total Energy =                       -454.4770201614044254
  Basis Set: (AUG-CC-PVTZ AUX)
    Blend: AUG-CC-PVTZ-RI
    Molecular point group: c1

    Geometry (in Angstrom), charge = 0, multiplicity = 1:

       Center              X                  Y                   Z               Mass
    ------------   -----------------  -----------------  -----------------  -----------------
         N            1.067730400070    -0.001308810032    -0.012109010250    14.003074004430
         N            1.677185800070    -1.040383010032    -0.411385610250    14.003074004430
         C           -0.428988199930     0.032636989968    -0.001513610250    12.000000000000
         C           -1.135006199930     1.212972989968    -0.247467610250    12.000000000000
         C           -1.095538199930    -1.170265010032     0.245394389750    12.000000000000
         C            1.808695800070     1.067135989968     0.413744389750    12.000000000000
         C           -2.529861199930     1.188278989968    -0.223832610250    12.000000000000
         C           -2.489429199930    -1.182992010032     0.243589389750    12.000000000000
         C            3.105153800070     0.614614989968     0.244401389750    12.000000000000
         C           -3.210179199930    -0.006451010032     0.020602389750    12.000000000000
         C            2.969151800070    -0.688878010032    -0.262267610250    12.000000000000
         H           -0.601492199930     2.129719989968    -0.483555610250     1.007825032230
         H           -0.515223199930    -2.069886010032     0.422705389750     1.007825032230
         H            1.409957800070     1.987646989968     0.815977389750     1.007825032230
         H           -3.084310199930     2.103527989968    -0.415468610250     1.007825032230
         H           -3.014793199930    -2.115975010032     0.431720389750     1.007825032230
         H            4.015309800070     1.151707989968     0.471864389750     1.007825032230
         H           -4.296912199930    -0.022464010032     0.028711389750     1.007825032230
         H            3.740572800070    -1.395875010032    -0.539267610250     1.007825032230

  Basis Set: AUG-CC-PVTZ
    Blend: AUG-CC-PVTZ
  Basis Set: (AUG-CC-PVTZ AUX)
    Blend: AUG-CC-PVTZ-JKFIT
	 Reference Energy          =    -454.4770201614044822 [Eh]
	 Singles Energy            =      -0.0000000000000000 [Eh]
	 Same-Spin Energy          =      -0.5100511442084104 [Eh]
	 Opposite-Spin Energy      =      -1.5471729124754283 [Eh]
	 Correlation Energy        =      -2.0572240566838387 [Eh]
	 Total Energy              =    -456.5342442180883040 [Eh]

	 ================> DF-SCS-MP2 Energies <==================
	-----------------------------------------------------------
	 SCS Same-Spin Scale       =       0.3333333333333333 [-]
	 SCS Opposite-Spin Scale   =       1.2000000000000000 [-]
	 SCS Same-Spin Energy      =      -0.1700170480694701 [Eh]
	 SCS Opposite-Spin Energy  =      -1.8566074949705138 [Eh]
	 SCS Correlation Energy    =      -2.0266245430399841 [Eh]
	 SCS Total Energy          =    -456.5036447044444685 [Eh]
	-----------------------------------------------------------

  Dipole Moment: [D]
     X:    -1.2116      Y:     1.6648      Z:     0.7328     Total:     2.1855

*** Psi4 exiting successfully. Buy a developer a beer!
