                               Psi4 1.3.2 release

  ==> Input File <==

--------------------------------------------------------------------------
#psi4
#
memory 32 gb

molecule  {
0 1
  N        1.0311498     0.0201274    -0.0042591
  N        1.6997840    -1.0566340    -0.4179730
  C       -0.4063900     0.0163860    -0.0081010
  C       -1.1124080     1.1967220    -0.2540550
  C       -1.0729400    -1.1865160     0.2388070
  C        1.8312940     1.0508850     0.4071570
  C       -2.5072630     1.1720280    -0.2304200
  C       -2.4668310    -1.1992430     0.2370020
  C        3.1277520     0.5983640     0.2378140
  C       -3.1875810    -0.0227020     0.0140150
  C        2.9917500    -0.7051290    -0.2688550
  H       -0.5788940     2.1134690    -0.4901430
  H       -0.4926250    -2.0861370     0.4161180
  H        1.4325560     1.9713960     0.8093900
  H       -3.0617120     2.0872770    -0.4220560
  H       -2.9921950    -2.1322260     0.4251330
  H        4.0379080     1.1354570     0.4652770
  H       -4.2743140    -0.0387150     0.0221240
  H        3.7631710    -1.4121260    -0.5458550
units angstrom
no_reorient  #important for SAPT in psi4, default
symmetry c1  #important for SAPT in psi4, default
}

set PROPERTIES_ORIGIN ["COM"]
properties('MP2/aug-cc-pvtz', properties = ['dipole'])
--------------------------------------------------------------------------

    Molecular point group: c1
  Charge       = 0
  Multiplicity = 1
  Basis Set: AUG-CC-PVTZ
    Blend: AUG-CC-PVTZ
  Basis Set: (AUG-CC-PVTZ AUX)
    Blend: AUG-CC-PVTZ-JKFIT

    Orbital Energies [Eh]
    ---------------------

    Doubly Occupied:

       1A    -15.653254     2A    -15.590236     3A    -11.293103
       4A    -11.279986     5A    -11.256826     6A    -11.249130
       7A    -11.247896     8A    -11.246573     9A    -11.241997
      10A    -11.241825    11A    -11.227334    12A     -1.389679
      13A     -1.174583    14A     -1.107725    15A     -1.066001
      16A     -1.025201    17A     -0.998871    18A     -0.857994
      19A     -0.847925    20A     -0.799338    21A     -0.777037
      22A     -0.743272    23A     -0.687515    24A     -0.649408
      25A     -0.639447    26A     -0.616767    27A     -0.597792
      28A     -0.594068    29A     -0.589451    30A     -0.562551
      31A     -0.520021    32A     -0.511780    33A     -0.507611
      34A     -0.464532    35A     -0.392343    36A     -0.350028
      37A     -0.346731    38A     -0.314422

  @DF-RHF Final Energy:  -454.48781279554771

   => Energetics <=

    Nuclear Repulsion Energy =            546.4310186186243072
    One-Electron Energy =               -1698.5171596903462614
    Two-Electron Energy =                 697.5983282761743567
    Total Energy =                       -454.4878127955477112
  Basis Set: (AUG-CC-PVTZ AUX)
    Blend: AUG-CC-PVTZ-RI
    Molecular point group: c1

    Geometry (in Angstrom), charge = 0, multiplicity = 1:

       Center              X                  Y                   Z               Mass
    ------------   -----------------  -----------------  -----------------  -----------------
         N            1.014303611702     0.032715300943     0.000925025109    14.003074004430
         N            1.682937811702    -1.044046099057    -0.412788874891    14.003074004430
         C           -0.423236188298     0.028973900943    -0.002916874891    12.000000000000
         C           -1.129254188298     1.209309900943    -0.248870874891    12.000000000000
         C           -1.089786188298    -1.173928099057     0.243991125109    12.000000000000
         C            1.814447811702     1.063472900943     0.412341125109    12.000000000000
         C           -2.524109188298     1.184615900943    -0.225235874891    12.000000000000
         C           -2.483677188298    -1.186655099057     0.242186125109    12.000000000000
         C            3.110905811702     0.610951900943     0.242998125109    12.000000000000
         C           -3.204427188298    -0.010114099057     0.019199125109    12.000000000000
         C            2.974903811702    -0.692541099057    -0.263670874891    12.000000000000
         H           -0.595740188298     2.126056900943    -0.484958874891     1.007825032230
         H           -0.509471188298    -2.073549099057     0.421302125109     1.007825032230
         H            1.415709811702     1.983983900943     0.814574125109     1.007825032230
         H           -3.078558188298     2.099864900943    -0.416871874891     1.007825032230
         H           -3.009041188298    -2.119638099057     0.430317125109     1.007825032230
         H            4.021061811702     1.148044900943     0.470461125109     1.007825032230
         H           -4.291160188298    -0.026127099057     0.027308125109     1.007825032230
         H            3.746324811702    -1.399538099057    -0.540670874891     1.007825032230

  Basis Set: AUG-CC-PVTZ
    Blend: AUG-CC-PVTZ
  Basis Set: (AUG-CC-PVTZ AUX)
    Blend: AUG-CC-PVTZ-JKFIT
	 Reference Energy          =    -454.4878127955477112 [Eh]
	 Singles Energy            =      -0.0000000000000000 [Eh]
	 Same-Spin Energy          =      -0.5096946921939212 [Eh]
	 Opposite-Spin Energy      =      -1.5475657310768822 [Eh]
	 Correlation Energy        =      -2.0572604232708036 [Eh]
	 Total Energy              =    -456.5450732188185157 [Eh]

	 ================> DF-SCS-MP2 Energies <==================
	-----------------------------------------------------------
	 SCS Same-Spin Scale       =       0.3333333333333333 [-]
	 SCS Opposite-Spin Scale   =       1.2000000000000000 [-]
	 SCS Same-Spin Energy      =      -0.1698982307313071 [Eh]
	 SCS Opposite-Spin Energy  =      -1.8570788772922586 [Eh]
	 SCS Correlation Energy    =      -2.0269771080235657 [Eh]
	 SCS Total Energy          =    -456.5147899035712840 [Eh]
	-----------------------------------------------------------

  Dipole Moment: [D]
     X:    -0.9726      Y:     1.6478      Z:     0.7384     Total:     2.0510

*** Psi4 exiting successfully. Buy a developer a beer!
