                               Psi4 1.3.2 release

  ==> Input File <==

--------------------------------------------------------------------------
#psi4
#
memory 32 gb

molecule  {
0 1
  N        1.0119030     0.0333230     0.0008060
  N        1.6997840    -1.0566340    -0.4179730
  C       -0.4063900     0.0163860    -0.0081010
  C       -1.1124080     1.1967220    -0.2540550
  C       -1.0729400    -1.1865160     0.2388070
  C        1.8312940     1.0508850     0.4071570
  C       -2.5072630     1.1720280    -0.2304200
  C       -2.4668310    -1.1992430     0.2370020
  C        3.1710399     0.7240584     0.2952601
  C       -3.1875810    -0.0227020     0.0140150
  C        2.9917500    -0.7051290    -0.2688550
  H       -0.5788940     2.1134690    -0.4901430
  H       -0.4926250    -2.0861370     0.4161180
  H        1.4325560     1.9713960     0.8093900
  H       -3.0617120     2.0872770    -0.4220560
  H       -2.9921950    -2.1322260     0.4251330
  H        4.0379080     1.1354570     0.4652770
  H       -4.2743140    -0.0387150     0.0221240
  H        3.7631710    -1.4121260    -0.5458550
units angstrom
no_reorient  #important for SAPT in psi4, default
symmetry c1  #important for SAPT in psi4, default
}

set PROPERTIES_ORIGIN ["COM"]
properties('MP2/aug-cc-pvtz', properties = ['dipole'])
--------------------------------------------------------------------------

    Molecular point group: c1
  Charge       = 0
  Multiplicity = 1
  Basis Set: AUG-CC-PVTZ
    Blend: AUG-CC-PVTZ
  Basis Set: (AUG-CC-PVTZ AUX)
    Blend: AUG-CC-PVTZ-JKFIT

    Orbital Energies [Eh]
    ---------------------

    Doubly Occupied:

       1A    -15.648046     2A    -15.598173     3A    -11.292191
       4A    -11.288604     5A    -11.275106     6A    -11.247598
       7A    -11.245733     8A    -11.245660     9A    -11.240434
      10A    -11.239938    11A    -11.235046    12A     -1.379160
      13A     -1.173149    14A     -1.107429    15A     -1.061738
      16A     -1.024064    17A     -0.993711    18A     -0.859960
      19A     -0.848102    20A     -0.808305    21A     -0.772686
      22A     -0.740736    23A     -0.687492    24A     -0.653903
      25A     -0.645857    26A     -0.628325    27A     -0.603808
      28A     -0.595968    29A     -0.589353    30A     -0.539571
      31A     -0.519807    32A     -0.509727    33A     -0.505519
      34A     -0.460751    35A     -0.387790    36A     -0.358445
      37A     -0.346361    38A     -0.307525

  @DF-RHF Final Energy:  -454.46355763594516

   => Energetics <=

    Nuclear Repulsion Energy =            544.1549014652827054
    One-Electron Energy =               -1693.9053785717817391
    Two-Electron Energy =                 695.2869194705540394
    Total Energy =                       -454.4635576359451079
  Basis Set: (AUG-CC-PVTZ AUX)
    Blend: AUG-CC-PVTZ-RI
    Molecular point group: c1

    Geometry (in Angstrom), charge = 0, multiplicity = 1:

       Center              X                  Y                   Z               Mass
    ------------   -----------------  -----------------  -----------------  -----------------
         N            0.993321942494     0.034158791039     0.000712921140    14.003074004430
         N            1.681202942494    -1.055798208961    -0.418066078860    14.003074004430
         C           -0.424971057506     0.017221791039    -0.008194078860    12.000000000000
         C           -1.130989057506     1.197557791039    -0.254148078860    12.000000000000
         C           -1.091521057506    -1.185680208961     0.238713921140    12.000000000000
         C            1.812712942494     1.051720791039     0.407063921140    12.000000000000
         C           -2.525844057506     1.172863791039    -0.230513078860    12.000000000000
         C           -2.485412057506    -1.198407208961     0.236908921140    12.000000000000
         C            3.152458842494     0.724894191039     0.295167021140    12.000000000000
         C           -3.206162057506    -0.021866208961     0.013921921140    12.000000000000
         C            2.973168942494    -0.704293208961    -0.268948078860    12.000000000000
         H           -0.597475057506     2.114304791039    -0.490236078860     1.007825032230
         H           -0.511206057506    -2.085301208961     0.416024921140     1.007825032230
         H            1.413974942494     1.972231791039     0.809296921140     1.007825032230
         H           -3.080293057506     2.088112791039    -0.422149078860     1.007825032230
         H           -3.010776057506    -2.131390208961     0.425039921140     1.007825032230
         H            4.019326942494     1.136292791039     0.465183921140     1.007825032230
         H           -4.292895057506    -0.037879208961     0.022030921140     1.007825032230
         H            3.744589942494    -1.411290208961    -0.545948078860     1.007825032230

  Basis Set: AUG-CC-PVTZ
    Blend: AUG-CC-PVTZ
  Basis Set: (AUG-CC-PVTZ AUX)
    Blend: AUG-CC-PVTZ-JKFIT
	 Reference Energy          =    -454.4635576359451647 [Eh]
	 Singles Energy            =      -0.0000000000000000 [Eh]
	 Same-Spin Energy          =      -0.5085341480988310 [Eh]
	 Opposite-Spin Energy      =      -1.5486065092160410 [Eh]
	 Correlation Energy        =      -2.0571406573148723 [Eh]
	 Total Energy              =    -456.5206982932600113 [Eh]

	 ================> DF-SCS-MP2 Energies <==================
	-----------------------------------------------------------
	 SCS Same-Spin Scale       =       0.3333333333333333 [-]
	 SCS Opposite-Spin Scale   =       1.2000000000000000 [-]
	 SCS Same-Spin Energy      =      -0.1695113826996103 [Eh]
	 SCS Opposite-Spin Energy  =      -1.8583278110592492 [Eh]
	 SCS Correlation Energy    =      -2.0278391937588593 [Eh]
	 SCS Total Energy          =    -456.4913968297040014 [Eh]
	-----------------------------------------------------------

  Dipole Moment: [D]
     X:    -0.8149      Y:     1.5750      Z:     0.7009     Total:     1.9068

*** Psi4 exiting successfully. Buy a developer a beer!
