                               Psi4 1.3.2 release

  ==> Input File <==

--------------------------------------------------------------------------
#psi4
#
memory 32 gb

molecule  {
0 1
  N        1.1377167     0.0939578     0.0256273
  N        1.6997840    -1.0566340    -0.4179730
  C       -0.4063900     0.0163860    -0.0081010
  C       -1.1124080     1.1967220    -0.2540550
  C       -1.0729400    -1.1865160     0.2388070
  C        1.8312940     1.0508850     0.4071570
  C       -2.5072630     1.1720280    -0.2304200
  C       -2.4668310    -1.1992430     0.2370020
  C        3.1277520     0.5983640     0.2378140
  C       -3.1875810    -0.0227020     0.0140150
  C        2.9917500    -0.7051290    -0.2688550
  H       -0.5788940     2.1134690    -0.4901430
  H       -0.4926250    -2.0861370     0.4161180
  H        1.4325560     1.9713960     0.8093900
  H       -3.0617120     2.0872770    -0.4220560
  H       -2.9921950    -2.1322260     0.4251330
  H        4.0379080     1.1354570     0.4652770
  H       -4.2743140    -0.0387150     0.0221240
  H        3.7631710    -1.4121260    -0.5458550
units angstrom
no_reorient  #important for SAPT in psi4, default
symmetry c1  #important for SAPT in psi4, default
}

set PROPERTIES_ORIGIN ["COM"]
properties('MP2/aug-cc-pvtz', properties = ['dipole'])
--------------------------------------------------------------------------

    Molecular point group: c1
  Charge       = 0
  Multiplicity = 1
  Basis Set: AUG-CC-PVTZ
    Blend: AUG-CC-PVTZ
  Basis Set: (AUG-CC-PVTZ AUX)
    Blend: AUG-CC-PVTZ-JKFIT

    Orbital Energies [Eh]
    ---------------------

    Doubly Occupied:

       1A    -15.652334     2A    -15.581499     3A    -11.300899
       4A    -11.269802     5A    -11.253572     6A    -11.252501
       7A    -11.250747     8A    -11.249963     9A    -11.247948
      10A    -11.246253    11A    -11.213337    12A     -1.402028
      13A     -1.170842    14A     -1.123354    15A     -1.065524
      16A     -1.028814    17A     -0.999090    18A     -0.848998
      19A     -0.844173    20A     -0.804366    21A     -0.773690
      22A     -0.750674    23A     -0.690632    24A     -0.651035
      25A     -0.636106    26A     -0.622579    27A     -0.602025
      28A     -0.595335    29A     -0.569273    30A     -0.559475
      31A     -0.517634    32A     -0.512495    33A     -0.507726
      34A     -0.472371    35A     -0.387472    36A     -0.352715
      37A     -0.350013    38A     -0.319438

  @DF-RHF Final Energy:  -454.45943848588462

   => Energetics <=

    Nuclear Repulsion Energy =            546.5446455938711097
    One-Electron Energy =               -1698.6547049620874077
    Two-Electron Energy =                 697.6506208823316229
    Total Energy =                       -454.4594384858846752
  Basis Set: (AUG-CC-PVTZ AUX)
    Blend: AUG-CC-PVTZ-RI
    Molecular point group: c1

    Geometry (in Angstrom), charge = 0, multiplicity = 1:

       Center              X                  Y                   Z               Mass
    ------------   -----------------  -----------------  -----------------  -----------------
         N            1.110512511059     0.099369595317     0.027906551735    14.003074004430
         N            1.672579811059    -1.051222204683    -0.415693748265    14.003074004430
         C           -0.433594188941     0.021797795317    -0.005821748265    12.000000000000
         C           -1.139612188941     1.202133795317    -0.251775748265    12.000000000000
         C           -1.100144188941    -1.181104204683     0.241086251735    12.000000000000
         C            1.804089811059     1.056296795317     0.409436251735    12.000000000000
         C           -2.534467188941     1.177439795317    -0.228140748265    12.000000000000
         C           -2.494035188941    -1.193831204683     0.239281251735    12.000000000000
         C            3.100547811059     0.603775795317     0.240093251735    12.000000000000
         C           -3.214785188941    -0.017290204683     0.016294251735    12.000000000000
         C            2.964545811059    -0.699717204683    -0.266575748265    12.000000000000
         H           -0.606098188941     2.118880795317    -0.487863748265     1.007825032230
         H           -0.519829188941    -2.080725204683     0.418397251735     1.007825032230
         H            1.405351811059     1.976807795317     0.811669251735     1.007825032230
         H           -3.088916188941     2.092688795317    -0.419776748265     1.007825032230
         H           -3.019399188941    -2.126814204683     0.427412251735     1.007825032230
         H            4.010703811059     1.140868795317     0.467556251735     1.007825032230
         H           -4.301518188941    -0.033303204683     0.024403251735     1.007825032230
         H            3.735966811059    -1.406714204683    -0.543575748265     1.007825032230

  Basis Set: AUG-CC-PVTZ
    Blend: AUG-CC-PVTZ
  Basis Set: (AUG-CC-PVTZ AUX)
    Blend: AUG-CC-PVTZ-JKFIT
	 Reference Energy          =    -454.4594384858846183 [Eh]
	 Singles Energy            =      -0.0000000000000000 [Eh]
	 Same-Spin Energy          =      -0.5092624136976336 [Eh]
	 Opposite-Spin Energy      =      -1.5469434355866065 [Eh]
	 Correlation Energy        =      -2.0562058492842401 [Eh]
	 Total Energy              =    -456.5156443351688722 [Eh]

	 ================> DF-SCS-MP2 Energies <==================
	-----------------------------------------------------------
	 SCS Same-Spin Scale       =       0.3333333333333333 [-]
	 SCS Opposite-Spin Scale   =       1.2000000000000000 [-]
	 SCS Same-Spin Energy      =      -0.1697541378992112 [Eh]
	 SCS Opposite-Spin Energy  =      -1.8563321227039278 [Eh]
	 SCS Correlation Energy    =      -2.0260862606031389 [Eh]
	 SCS Total Energy          =    -456.4855247464877834 [Eh]
	-----------------------------------------------------------

  Dipole Moment: [D]
     X:    -1.4362      Y:     1.6690      Z:     0.7635     Total:     2.3305

*** Psi4 exiting successfully. Buy a developer a beer!
