                               Psi4 1.4a3.dev225

  ==> Input File <==

--------------------------------------------------------------------------
#psi4
#
memory 32 gb

molecule  {
0 1
  N        1.0119030     0.0333230     0.0008060
  N        1.6997840    -1.0566340    -0.4179730
  C       -0.3563946     0.0169830    -0.0077870
  C       -1.1124080     1.1967220    -0.2540550
  C       -1.0729400    -1.1865160     0.2388070
  C        1.8312940     1.0508850     0.4071570
  C       -2.5072630     1.1720280    -0.2304200
  C       -2.4668310    -1.1992430     0.2370020
  C        3.1277520     0.5983640     0.2378140
  C       -3.1875810    -0.0227020     0.0140150
  C        2.9917500    -0.7051290    -0.2688550
  H       -0.5788940     2.1134690    -0.4901430
  H       -0.4926250    -2.0861370     0.4161180
  H        1.4325560     1.9713960     0.8093900
  H       -3.0617120     2.0872770    -0.4220560
  H       -2.9921950    -2.1322260     0.4251330
  H        4.0379080     1.1354570     0.4652770
  H       -4.2743140    -0.0387150     0.0221240
  H        3.7631710    -1.4121260    -0.5458550
units angstrom
no_reorient  #important for SAPT in psi4, default
symmetry c1  #important for SAPT in psi4, default
}

set PROPERTIES_ORIGIN ["COM"]
properties('MP2/aug-cc-pvtz', properties = ['dipole'])
--------------------------------------------------------------------------

    Molecular point group: c1
  Charge       = 0
  Multiplicity = 1
  Basis Set: AUG-CC-PVTZ
    Blend: AUG-CC-PVTZ
  Basis Set: (AUG-CC-PVTZ AUX)
    Blend: AUG-CC-PVTZ-JKFIT

    Orbital Energies [Eh]
    ---------------------

    Doubly Occupied:

       1A    -15.654302     2A    -15.593528     3A    -11.292598
       4A    -11.285855     5A    -11.263334     6A    -11.247690
       7A    -11.245977     8A    -11.244294     9A    -11.241291
      10A    -11.239037    11A    -11.231480    12A     -1.391617
      13A     -1.174543    14A     -1.116000    15A     -1.068097
      16A     -1.019827    17A     -0.994355    18A     -0.868595
      19A     -0.846256    20A     -0.798792    21A     -0.778212
      22A     -0.744613    23A     -0.686109    24A     -0.650991
      25A     -0.641382    26A     -0.617593    27A     -0.598462
      28A     -0.593336    29A     -0.588846    30A     -0.566410
      31A     -0.522354    32A     -0.505601    33A     -0.499952
      34A     -0.465284    35A     -0.399200    36A     -0.352665
      37A     -0.344338    38A     -0.306696

  @DF-RHF Final Energy:  -454.48434901532255

   => Energetics <=

    Nuclear Repulsion Energy =            546.5053899764454854
    One-Electron Energy =               -1698.6204567263907848
    Two-Electron Energy =                 697.6307177346227490
    Total Energy =                       -454.4843490153225503
  Basis Set: (AUG-CC-PVTZ AUX)
    Blend: AUG-CC-PVTZ-RI
    Molecular point group: c1

    Geometry (in Angstrom), charge = 0, multiplicity = 1:

       Center              X                  Y                   Z               Mass
    ------------   -----------------  -----------------  -----------------  -----------------
         N            0.992763250890     0.044578599763     0.005471657565    14.003074004430
         N            1.680644250890    -1.045378400237    -0.413307342435    14.003074004430
         C           -0.375534349110     0.028238599763    -0.003121342435    12.000000000000
         C           -1.131547749110     1.207977599763    -0.249389342435    12.000000000000
         C           -1.092079749110    -1.175260400237     0.243472657565    12.000000000000
         C            1.812154250890     1.062140599763     0.411822657565    12.000000000000
         C           -2.526402749110     1.183283599763    -0.225754342435    12.000000000000
         C           -2.485970749110    -1.187987400237     0.241667657565    12.000000000000
         C            3.108612250890     0.609619599763     0.242479657565    12.000000000000
         C           -3.206720749110    -0.011446400237     0.018680657565    12.000000000000
         C            2.972610250890    -0.693873400237    -0.264189342435    12.000000000000
         H           -0.598033749110     2.124724599763    -0.485477342435     1.007825032230
         H           -0.511764749110    -2.074881400237     0.420783657565     1.007825032230
         H            1.413416250890     1.982651599763     0.814055657565     1.007825032230
         H           -3.080851749110     2.098532599763    -0.417390342435     1.007825032230
         H           -3.011334749110    -2.120970400237     0.429798657565     1.007825032230
         H            4.018768250890     1.146712599763     0.469942657565     1.007825032230
         H           -4.293453749110    -0.027459400237     0.026789657565     1.007825032230
         H            3.744031250890    -1.400870400237    -0.541189342435     1.007825032230

  Basis Set: AUG-CC-PVTZ
    Blend: AUG-CC-PVTZ
  Basis Set: (AUG-CC-PVTZ AUX)
    Blend: AUG-CC-PVTZ-JKFIT
	 Reference Energy          =    -454.4843490153225503 [Eh]
	 Singles Energy            =      -0.0000000000000000 [Eh]
	 Same-Spin Energy          =      -0.5100550017903149 [Eh]
	 Opposite-Spin Energy      =      -1.5485166159329258 [Eh]
	 Correlation Energy        =      -2.0585716177232407 [Eh]
	 Total Energy              =    -456.5429206330458101 [Eh]

	 ================> DF-SCS-MP2 Energies <==================
	-----------------------------------------------------------
	 SCS Same-Spin Scale       =       0.3333333333333333 [-]
	 SCS Opposite-Spin Scale   =       1.2000000000000000 [-]
	 SCS Same-Spin Energy      =      -0.1700183339301050 [Eh]
	 SCS Opposite-Spin Energy  =      -1.8582199391195109 [Eh]
	 SCS Correlation Energy    =      -2.0282382730496158 [Eh]
	 SCS Total Energy          =    -456.5125872883721740 [Eh]
	-----------------------------------------------------------

  Dipole Moment: [D]
     X:    -0.5940      Y:     1.6363      Z:     0.7413     Total:     1.8921

*** Psi4 exiting successfully. Buy a developer a beer!
