                               Psi4 1.4a3.dev225

  ==> Input File <==

--------------------------------------------------------------------------
#psi4
#
memory 32 gb

molecule  {
0 1
  N        1.0119030     0.0333230     0.0008060
  N        1.6997840    -1.0566340    -0.4179730
  C       -0.4063900     0.0163860    -0.0081010
  C       -1.1124080     1.1967220    -0.2540550
  C       -1.0729400    -1.1865160     0.2388070
  C        1.8312940     1.0508850     0.4071570
  C       -2.5072630     1.1720280    -0.2304200
  C       -2.4668310    -1.1992430     0.2370020
  C        3.1277520     0.5983640     0.2378140
  C       -3.1875810    -0.0227020     0.0140150
  C        2.9936858    -0.6865753    -0.2616431
  H       -0.5788940     2.1134690    -0.4901430
  H       -0.4926250    -2.0861370     0.4161180
  H        1.4325560     1.9713960     0.8093900
  H       -3.0617120     2.0872770    -0.4220560
  H       -2.9921950    -2.1322260     0.4251330
  H        4.0379080     1.1354570     0.4652770
  H       -4.2743140    -0.0387150     0.0221240
  H        3.7631710    -1.4121260    -0.5458550
units angstrom
no_reorient  #important for SAPT in psi4, default
symmetry c1  #important for SAPT in psi4, default
}

set PROPERTIES_ORIGIN ["COM"]
properties('MP2/aug-cc-pvtz', properties = ['dipole'])
--------------------------------------------------------------------------

    Molecular point group: c1
  Charge       = 0
  Multiplicity = 1
  Basis Set: AUG-CC-PVTZ
    Blend: AUG-CC-PVTZ
  Basis Set: (AUG-CC-PVTZ AUX)
    Blend: AUG-CC-PVTZ-JKFIT

    Orbital Energies [Eh]
    ---------------------

    Doubly Occupied:

       1A    -15.652970     2A    -15.590014     3A    -11.291821
       4A    -11.282596     5A    -11.258673     6A    -11.248414
       7A    -11.247005     8A    -11.246155     9A    -11.241342
      10A    -11.241178    11A    -11.226561    12A     -1.382636
      13A     -1.175574    14A     -1.109594    15A     -1.065589
      16A     -1.024636    17A     -0.999160    18A     -0.862036
      19A     -0.847503    20A     -0.795771    21A     -0.778003
      22A     -0.743098    23A     -0.686954    24A     -0.648940
      25A     -0.639374    26A     -0.615108    27A     -0.596965
      28A     -0.594567    29A     -0.589174    30A     -0.561083
      31A     -0.520474    32A     -0.510946    33A     -0.507211
      34A     -0.464591    35A     -0.396056    36A     -0.348936
      37A     -0.345995    38A     -0.314009

  @DF-RHF Final Energy:  -454.48665245870649

   => Energetics <=

    Nuclear Repulsion Energy =            546.5454139187550027
    One-Electron Energy =               -1698.7627066199590899
    Two-Electron Energy =                 697.7306402424975431
    Total Energy =                       -454.4866524587065442
  Basis Set: (AUG-CC-PVTZ AUX)
    Blend: AUG-CC-PVTZ-RI
    Molecular point group: c1

    Geometry (in Angstrom), charge = 0, multiplicity = 1:

       Center              X                  Y                   Z               Mass
    ------------   -----------------  -----------------  -----------------  -----------------
         N            0.996766306424     0.043082922161     0.004897106866    14.003074004430
         N            1.684647306424    -1.046874077839    -0.413881893134    14.003074004430
         C           -0.421526693576     0.026145922161    -0.004009893134    12.000000000000
         C           -1.127544693576     1.206481922161    -0.249963893134    12.000000000000
         C           -1.088076693576    -1.176756077839     0.242898106866    12.000000000000
         C            1.816157306424     1.060644922161     0.411248106866    12.000000000000
         C           -2.522399693576     1.181787922161    -0.226328893134    12.000000000000
         C           -2.481967693576    -1.189483077839     0.241093106866    12.000000000000
         C            3.112615306424     0.608123922161     0.241905106866    12.000000000000
         C           -3.202717693576    -0.012942077839     0.018106106866    12.000000000000
         C            2.978549106424    -0.676815377839    -0.257551993134    12.000000000000
         H           -0.594030693576     2.123228922161    -0.486051893134     1.007825032230
         H           -0.507761693576    -2.076377077839     0.420209106866     1.007825032230
         H            1.417419306424     1.981155922161     0.813481106866     1.007825032230
         H           -3.076848693576     2.097036922161    -0.417964893134     1.007825032230
         H           -3.007331693576    -2.122466077839     0.429224106866     1.007825032230
         H            4.022771306424     1.145216922161     0.469368106866     1.007825032230
         H           -4.289450693576    -0.028955077839     0.026215106866     1.007825032230
         H            3.748034306424    -1.402366077839    -0.541763893134     1.007825032230

  Basis Set: AUG-CC-PVTZ
    Blend: AUG-CC-PVTZ
  Basis Set: (AUG-CC-PVTZ AUX)
    Blend: AUG-CC-PVTZ-JKFIT
	 Reference Energy          =    -454.4866524587064873 [Eh]
	 Singles Energy            =      -0.0000000000000000 [Eh]
	 Same-Spin Energy          =      -0.5100759862660895 [Eh]
	 Opposite-Spin Energy      =      -1.5484260992759307 [Eh]
	 Correlation Energy        =      -2.0585020855420204 [Eh]
	 Total Energy              =    -456.5451545442485326 [Eh]

	 ================> DF-SCS-MP2 Energies <==================
	-----------------------------------------------------------
	 SCS Same-Spin Scale       =       0.3333333333333333 [-]
	 SCS Opposite-Spin Scale   =       1.2000000000000000 [-]
	 SCS Same-Spin Energy      =      -0.1700253287553632 [Eh]
	 SCS Opposite-Spin Energy  =      -1.8581113191311167 [Eh]
	 SCS Correlation Energy    =      -2.0281366478864800 [Eh]
	 SCS Total Energy          =    -456.5147891065929571 [Eh]
	-----------------------------------------------------------

  Dipole Moment: [D]
     X:    -0.9107      Y:     1.6634      Z:     0.7491     Total:     2.0390

*** Psi4 exiting successfully. Buy a developer a beer!
