                               Psi4 1.3.2 release

  ==> Input File <==

--------------------------------------------------------------------------
#psi4
#
memory 32 gb

molecule  {
0 1
  N        1.0119030     0.0333230     0.0008060
  N        1.6997840    -1.0566340    -0.4179730
  C       -0.4063900     0.0163860    -0.0081010
  C       -1.1124080     1.1967220    -0.2540550
  C       -1.0729400    -1.1865160     0.2388070
  C        1.8312940     1.0508850     0.4071570
  C       -2.5072630     1.1720280    -0.2304200
  C       -2.4668310    -1.1992430     0.2370020
  C        3.1277520     0.5983640     0.2378140
  C       -3.1875810    -0.0227020     0.0140150
  C        2.9917500    -0.7051290    -0.2688550
  H       -0.5788940     2.1134690    -0.4901430
  H       -0.4926250    -2.0861370     0.4161180
  H        1.4325560     1.9713960     0.8093900
  H       -3.0617120     2.0872770    -0.4220560
  H       -2.9921950    -2.1322260     0.4251330
  H        4.1221026     1.1851412     0.4863186
  H       -4.2743140    -0.0387150     0.0221240
  H        3.7631710    -1.4121260    -0.5458550
units angstrom
no_reorient  #important for SAPT in psi4, default
symmetry c1  #important for SAPT in psi4, default
}

set PROPERTIES_ORIGIN ["COM"]
properties('MP2/aug-cc-pvtz', properties = ['dipole'])
--------------------------------------------------------------------------

    Molecular point group: c1
  Charge       = 0
  Multiplicity = 1
  Basis Set: AUG-CC-PVTZ
    Blend: AUG-CC-PVTZ
  Basis Set: (AUG-CC-PVTZ AUX)
    Blend: AUG-CC-PVTZ-JKFIT

    Orbital Energies [Eh]
    ---------------------

    Doubly Occupied:

       1A    -15.652362     2A    -15.591422     3A    -11.292018
       4A    -11.283318     5A    -11.260526     6A    -11.248403
       7A    -11.246946     8A    -11.246167     9A    -11.241259
      10A    -11.241080    11A    -11.238891    12A     -1.383085
      13A     -1.175806    14A     -1.110695    15A     -1.062982
      16A     -1.024578    17A     -0.997524    18A     -0.859253
      19A     -0.847657    20A     -0.793115    21A     -0.777953
      22A     -0.740293    23A     -0.685510    24A     -0.649156
      25A     -0.638791    26A     -0.612597    27A     -0.597434
      28A     -0.593523    29A     -0.577096    30A     -0.562003
      31A     -0.520251    32A     -0.511002    33A     -0.506903
      34A     -0.462778    35A     -0.395393    36A     -0.350314
      37A     -0.346565    38A     -0.313311

  @DF-RHF Final Energy:  -454.48047396626441

   => Energetics <=

    Nuclear Repulsion Energy =            545.8767469132470751
    One-Electron Energy =               -1697.4385249796703192
    Two-Electron Energy =                 697.0813041001589454
    Total Energy =                       -454.4804739662644124
  Basis Set: (AUG-CC-PVTZ AUX)
    Blend: AUG-CC-PVTZ-RI
    Molecular point group: c1

    Geometry (in Angstrom), charge = 0, multiplicity = 1:

       Center              X                  Y                   Z               Mass
    ------------   -----------------  -----------------  -----------------  -----------------
         N            0.996338567402     0.044280762925     0.005350616385    14.003074004430
         N            1.684219567402    -1.045676237075    -0.413428383615    14.003074004430
         C           -0.421954432598     0.027343762925    -0.003556383615    12.000000000000
         C           -1.127972432598     1.207679762925    -0.249510383615    12.000000000000
         C           -1.088504432598    -1.175558237075     0.243351616385    12.000000000000
         C            1.815729567402     1.061842762925     0.411701616385    12.000000000000
         C           -2.522827432598     1.182985762925    -0.225875383615    12.000000000000
         C           -2.482395432598    -1.188285237075     0.241546616385    12.000000000000
         C            3.112187567402     0.609321762925     0.242358616385    12.000000000000
         C           -3.203145432598    -0.011744237075     0.018559616385    12.000000000000
         C            2.976185567402    -0.694171237075    -0.264310383615    12.000000000000
         H           -0.594458432598     2.124426762925    -0.485598383615     1.007825032230
         H           -0.508189432598    -2.075179237075     0.420662616385     1.007825032230
         H            1.416991567402     1.982353762925     0.813934616385     1.007825032230
         H           -3.077276432598     2.098234762925    -0.417511383615     1.007825032230
         H           -3.007759432598    -2.121268237075     0.429677616385     1.007825032230
         H            4.106538167402     1.196098962925     0.490863216385     1.007825032230
         H           -4.289878432598    -0.027757237075     0.026668616385     1.007825032230
         H            3.747606567402    -1.401168237075    -0.541310383615     1.007825032230

  Basis Set: AUG-CC-PVTZ
    Blend: AUG-CC-PVTZ
  Basis Set: (AUG-CC-PVTZ AUX)
    Blend: AUG-CC-PVTZ-JKFIT
	 Reference Energy          =    -454.4804739662644124 [Eh]
	 Singles Energy            =      -0.0000000000000000 [Eh]
	 Same-Spin Energy          =      -0.5098670619294715 [Eh]
	 Opposite-Spin Energy      =      -1.5487379159427508 [Eh]
	 Correlation Energy        =      -2.0586049778722222 [Eh]
	 Total Energy              =    -456.5390789441366337 [Eh]

	 ================> DF-SCS-MP2 Energies <==================
	-----------------------------------------------------------
	 SCS Same-Spin Scale       =       0.3333333333333333 [-]
	 SCS Opposite-Spin Scale   =       1.2000000000000000 [-]
	 SCS Same-Spin Energy      =      -0.1699556873098238 [Eh]
	 SCS Opposite-Spin Energy  =      -1.8584854991313009 [Eh]
	 SCS Correlation Energy    =      -2.0284411864411247 [Eh]
	 SCS Total Energy          =    -456.5089151527055265 [Eh]
	-----------------------------------------------------------

  Dipole Moment: [D]
     X:    -0.9015      Y:     1.6294      Z:     0.7352     Total:     2.0020

*** Psi4 exiting successfully. Buy a developer a beer!
