                               Psi4 1.3.2 release

  ==> Input File <==

--------------------------------------------------------------------------
#psi4
#
memory 32 gb

molecule  {
0 1
  N        1.0119030     0.0333230     0.0008060
  N        1.6997840    -1.0566340    -0.4179730
  C       -0.4063900     0.0163860    -0.0081010
  C       -1.1124080     1.1967220    -0.2540550
  C       -1.0729400    -1.1865160     0.2388070
  C        1.8312940     1.0508850     0.4071570
  C       -2.5072630     1.1720280    -0.2304200
  C       -2.4668310    -1.1992430     0.2370020
  C        2.9808241     0.6043445     0.2405209
  C       -3.1875810    -0.0227020     0.0140150
  C        2.9917500    -0.7051290    -0.2688550
  H       -0.5788940     2.1134690    -0.4901430
  H       -0.4926250    -2.0861370     0.4161180
  H        1.4325560     1.9713960     0.8093900
  H       -3.0617120     2.0872770    -0.4220560
  H       -2.9921950    -2.1322260     0.4251330
  H        4.0379080     1.1354570     0.4652770
  H       -4.2743140    -0.0387150     0.0221240
  H        3.7631710    -1.4121260    -0.5458550
units angstrom
no_reorient  #important for SAPT in psi4, default
symmetry c1  #important for SAPT in psi4, default
}

set PROPERTIES_ORIGIN ["COM"]
properties('MP2/aug-cc-pvtz', properties = ['dipole'])
--------------------------------------------------------------------------

    Molecular point group: c1
  Charge       = 0
  Multiplicity = 1
  Basis Set: AUG-CC-PVTZ
    Blend: AUG-CC-PVTZ
  Basis Set: (AUG-CC-PVTZ AUX)
    Blend: AUG-CC-PVTZ-JKFIT

    Orbital Energies [Eh]
    ---------------------

    Doubly Occupied:

       1A    -15.641241     2A    -15.597208     3A    -11.289192
       4A    -11.262080     5A    -11.258984     6A    -11.246399
       7A    -11.244214     8A    -11.244077     9A    -11.238259
      10A    -11.238043    11A    -11.222533    12A     -1.389319
      13A     -1.175183    14A     -1.109577    15A     -1.089422
      16A     -1.023045    17A     -0.994504    18A     -0.856016
      19A     -0.846823    20A     -0.793654    21A     -0.780859
      22A     -0.744435    23A     -0.684980    24A     -0.649433
      25A     -0.641029    26A     -0.615783    27A     -0.603749
      28A     -0.595182    29A     -0.587391    30A     -0.549249
      31A     -0.516466    32A     -0.510539    33A     -0.503069
      34A     -0.459767    35A     -0.396925    36A     -0.369472
      37A     -0.345096    38A     -0.308778

  @DF-RHF Final Energy:  -454.45635417309495

   => Energetics <=

    Nuclear Repulsion Energy =            549.5044277549167191
    One-Electron Energy =               -1704.6776172166219112
    Two-Electron Energy =                 700.7168352886101275
    Total Energy =                       -454.4563541730949510
  Basis Set: (AUG-CC-PVTZ AUX)
    Blend: AUG-CC-PVTZ-RI
    Molecular point group: c1

    Geometry (in Angstrom), charge = 0, multiplicity = 1:

       Center              X                  Y                   Z               Mass
    ------------   -----------------  -----------------  -----------------  -----------------
         N            1.009165695059     0.044130188843     0.005272344387    14.003074004430
         N            1.697046695059    -1.045826811157    -0.413506655613    14.003074004430
         C           -0.409127304941     0.027193188843    -0.003634655613    12.000000000000
         C           -1.115145304941     1.207529188843    -0.249588655613    12.000000000000
         C           -1.075677304941    -1.175708811157     0.243273344387    12.000000000000
         C            1.828556695059     1.061692188843     0.411623344387    12.000000000000
         C           -2.510000304941     1.182835188843    -0.225953655613    12.000000000000
         C           -2.469568304941    -1.188435811157     0.241468344387    12.000000000000
         C            2.978086795059     0.615151688843     0.244987244387    12.000000000000
         C           -3.190318304941    -0.011894811157     0.018481344387    12.000000000000
         C            2.989012695059    -0.694321811157    -0.264388655613    12.000000000000
         H           -0.581631304941     2.124276188843    -0.485676655613     1.007825032230
         H           -0.495362304941    -2.075329811157     0.420584344387     1.007825032230
         H            1.429818695059     1.982203188843     0.813856344387     1.007825032230
         H           -3.064449304941     2.098084188843    -0.417589655613     1.007825032230
         H           -2.994932304941    -2.121418811157     0.429599344387     1.007825032230
         H            4.035170695059     1.146264188843     0.469743344387     1.007825032230
         H           -4.277051304941    -0.027907811157     0.026590344387     1.007825032230
         H            3.760433695059    -1.401318811157    -0.541388655613     1.007825032230

  Basis Set: AUG-CC-PVTZ
    Blend: AUG-CC-PVTZ
  Basis Set: (AUG-CC-PVTZ AUX)
    Blend: AUG-CC-PVTZ-JKFIT
	 Reference Energy          =    -454.4563541730949510 [Eh]
	 Singles Energy            =      -0.0000000000000000 [Eh]
	 Same-Spin Energy          =      -0.5091777225632894 [Eh]
	 Opposite-Spin Energy      =      -1.5470066429479457 [Eh]
	 Correlation Energy        =      -2.0561843655112351 [Eh]
	 Total Energy              =    -456.5125385386061794 [Eh]

	 ================> DF-SCS-MP2 Energies <==================
	-----------------------------------------------------------
	 SCS Same-Spin Scale       =       0.3333333333333333 [-]
	 SCS Opposite-Spin Scale   =       1.2000000000000000 [-]
	 SCS Same-Spin Energy      =      -0.1697259075210965 [Eh]
	 SCS Opposite-Spin Energy  =      -1.8564079715375348 [Eh]
	 SCS Correlation Energy    =      -2.0261338790586314 [Eh]
	 SCS Total Energy          =    -456.4824880521535988 [Eh]
	-----------------------------------------------------------

  Dipole Moment: [D]
     X:    -0.6672      Y:     1.6061      Z:     0.7233     Total:     1.8836

*** Psi4 exiting successfully. Buy a developer a beer!
