                               Psi4 1.3.2 release

  ==> Input File <==

--------------------------------------------------------------------------
#psi4
#
memory 32 gb

molecule  {
0 1
  N        1.0119030     0.0333230     0.0008060
  N        1.6997840    -1.0566340    -0.4179730
  C       -0.4063900     0.0163860    -0.0081010
  C       -1.1124080     1.1967220    -0.2540550
  C       -1.0729400    -1.1865160     0.2388070
  C        1.8312940     1.0508850     0.4071570
  C       -2.5072630     1.1720280    -0.2304200
  C       -2.4668310    -1.1992430     0.2370020
  C        3.1277520     0.5983640     0.2378140
  C       -3.1875810    -0.0227020     0.0140150
  C        3.1386475    -0.7123271    -0.2684213
  H       -0.5788940     2.1134690    -0.4901430
  H       -0.4926250    -2.0861370     0.4161180
  H        1.4325560     1.9713960     0.8093900
  H       -3.0617120     2.0872770    -0.4220560
  H       -2.9921950    -2.1322260     0.4251330
  H        4.0379080     1.1354570     0.4652770
  H       -4.2743140    -0.0387150     0.0221240
  H        3.7631710    -1.4121260    -0.5458550
units angstrom
no_reorient  #important for SAPT in psi4, default
symmetry c1  #important for SAPT in psi4, default
}

set PROPERTIES_ORIGIN ["COM"]
properties('MP2/aug-cc-pvtz', properties = ['dipole'])
--------------------------------------------------------------------------

    Molecular point group: c1
  Charge       = 0
  Multiplicity = 1
  Basis Set: AUG-CC-PVTZ
    Blend: AUG-CC-PVTZ
  Basis Set: (AUG-CC-PVTZ AUX)
    Blend: AUG-CC-PVTZ-JKFIT

    Orbital Energies [Eh]
    ---------------------

    Doubly Occupied:

       1A    -15.663089     2A    -15.597496     3A    -11.293910
       4A    -11.278786     5A    -11.263734     6A    -11.250400
       7A    -11.249078     8A    -11.247412     9A    -11.243663
      10A    -11.243446    11A    -11.234757    12A     -1.369131
      13A     -1.171110    14A     -1.096671    15A     -1.056620
      16A     -1.025152    17A     -1.001507    18A     -0.869667
      19A     -0.849154    20A     -0.805655    21A     -0.776660
      22A     -0.738828    23A     -0.689454    24A     -0.649977
      25A     -0.640619    26A     -0.614767    27A     -0.604800
      28A     -0.596542    29A     -0.584189    30A     -0.574712
      31A     -0.522546    32A     -0.510686    33A     -0.506913
      34A     -0.445299    35A     -0.391741    36A     -0.348701
      37A     -0.334467    38A     -0.314161

  @DF-RHF Final Energy:  -454.45079266413546

   => Energetics <=

    Nuclear Repulsion Energy =            543.3677240299455207
    One-Electron Energy =               -1692.3260351815038121
    Two-Electron Energy =                 694.5075184874228853
    Total Energy =                       -454.4507926641354061
  Basis Set: (AUG-CC-PVTZ AUX)
    Blend: AUG-CC-PVTZ-RI
    Molecular point group: c1

    Geometry (in Angstrom), charge = 0, multiplicity = 1:

       Center              X                  Y                   Z               Mass
    ------------   -----------------  -----------------  -----------------  -----------------
         N            0.984691929288     0.045227881451     0.005461687325    14.003074004430
         N            1.672572929288    -1.044729118549    -0.413317312675    14.003074004430
         C           -0.433601070712     0.028290881451    -0.003445312675    12.000000000000
         C           -1.139619070712     1.208626881451    -0.249399312675    12.000000000000
         C           -1.100151070712    -1.174611118549     0.243462687325    12.000000000000
         C            1.804082929288     1.062789881451     0.411812687325    12.000000000000
         C           -2.534474070712     1.183932881451    -0.225764312675    12.000000000000
         C           -2.494042070712    -1.187338118549     0.241657687325    12.000000000000
         C            3.100540929288     0.610268881451     0.242469687325    12.000000000000
         C           -3.214792070712    -0.010797118549     0.018670687325    12.000000000000
         C            3.111436429288    -0.700422218549    -0.263765612675    12.000000000000
         H           -0.606105070712     2.125373881451    -0.485487312675     1.007825032230
         H           -0.519836070712    -2.074232118549     0.420773687325     1.007825032230
         H            1.405344929288     1.983300881451     0.814045687325     1.007825032230
         H           -3.088923070712     2.099181881451    -0.417400312675     1.007825032230
         H           -3.019406070712    -2.120321118549     0.429788687325     1.007825032230
         H            4.010696929288     1.147361881451     0.469932687325     1.007825032230
         H           -4.301525070712    -0.026810118549     0.026779687325     1.007825032230
         H            3.735959929288    -1.400221118549    -0.541199312675     1.007825032230

  Basis Set: AUG-CC-PVTZ
    Blend: AUG-CC-PVTZ
  Basis Set: (AUG-CC-PVTZ AUX)
    Blend: AUG-CC-PVTZ-JKFIT
	 Reference Energy          =    -454.4507926641354629 [Eh]
	 Singles Energy            =      -0.0000000000000000 [Eh]
	 Same-Spin Energy          =      -0.5134719630631268 [Eh]
	 Opposite-Spin Energy      =      -1.5560115433804911 [Eh]
	 Correlation Energy        =      -2.0694835064436177 [Eh]
	 Total Energy              =    -456.5202761705791090 [Eh]

	 ================> DF-SCS-MP2 Energies <==================
	-----------------------------------------------------------
	 SCS Same-Spin Scale       =       0.3333333333333333 [-]
	 SCS Opposite-Spin Scale   =       1.2000000000000000 [-]
	 SCS Same-Spin Energy      =      -0.1711573210210423 [Eh]
	 SCS Opposite-Spin Energy  =      -1.8672138520565893 [Eh]
	 SCS Correlation Energy    =      -2.0383711730776315 [Eh]
	 SCS Total Energy          =    -456.4891638372130842 [Eh]
	-----------------------------------------------------------

  Dipole Moment: [D]
     X:    -1.0627      Y:     1.6490      Z:     0.7440     Total:     2.0981

*** Psi4 exiting successfully. Buy a developer a beer!
