                               Psi4 1.3.2 release

  ==> Input File <==

--------------------------------------------------------------------------
#psi4
#
memory 32 gb

molecule  {
0 1
  N        1.0119030     0.0333230     0.0008060
  N        1.6997840    -1.0566340    -0.4179730
  C       -0.4063900     0.0163860    -0.0081010
  C       -0.9825121     1.2625942    -0.2673234
  C       -1.0729400    -1.1865160     0.2388070
  C        1.8312940     1.0508850     0.4071570
  C       -2.5072630     1.1720280    -0.2304200
  C       -2.4668310    -1.1992430     0.2370020
  C        3.1277520     0.5983640     0.2378140
  C       -3.1875810    -0.0227020     0.0140150
  C        2.9917500    -0.7051290    -0.2688550
  H       -0.5788940     2.1134690    -0.4901430
  H       -0.4926250    -2.0861370     0.4161180
  H        1.4325560     1.9713960     0.8093900
  H       -3.0617120     2.0872770    -0.4220560
  H       -2.9921950    -2.1322260     0.4251330
  H        4.0379080     1.1354570     0.4652770
  H       -4.2743140    -0.0387150     0.0221240
  H        3.7631710    -1.4121260    -0.5458550
units angstrom
no_reorient  #important for SAPT in psi4, default
symmetry c1  #important for SAPT in psi4, default
}

set PROPERTIES_ORIGIN ["COM"]
properties('MP2/aug-cc-pvtz', properties = ['dipole'])
--------------------------------------------------------------------------

    Molecular point group: c1
  Charge       = 0
  Multiplicity = 1
  Basis Set: AUG-CC-PVTZ
    Blend: AUG-CC-PVTZ
  Basis Set: (AUG-CC-PVTZ AUX)
    Blend: AUG-CC-PVTZ-JKFIT

    Orbital Energies [Eh]
    ---------------------

    Doubly Occupied:

       1A    -15.647964     2A    -15.588971     3A    -11.296335
       4A    -11.280942     5A    -11.261983     6A    -11.257840
       7A    -11.250533     8A    -11.249843     9A    -11.242681
      10A    -11.242141    11A    -11.226916    12A     -1.381227
      13A     -1.170991    14A     -1.107036    15A     -1.062117
      16A     -1.016414    17A     -0.998749    18A     -0.865595
      19A     -0.849447    20A     -0.798936    21A     -0.772630
      22A     -0.743264    23A     -0.697241    24A     -0.656724
      25A     -0.642580    26A     -0.615010    27A     -0.603048
      28A     -0.591095    29A     -0.581629    30A     -0.561745
      31A     -0.525165    32A     -0.504855    33A     -0.499801
      34A     -0.461997    35A     -0.395335    36A     -0.348082
      37A     -0.335258    38A     -0.316208

  @DF-RHF Final Energy:  -454.45763952041591

   => Energetics <=

    Nuclear Repulsion Energy =            545.3951744132192516
    One-Electron Energy =               -1696.4089732552429268
    Two-Electron Energy =                 696.5561593216078791
    Total Energy =                       -454.4576395204159098
  Basis Set: (AUG-CC-PVTZ AUX)
    Blend: AUG-CC-PVTZ-RI
    Molecular point group: c1

    Geometry (in Angstrom), charge = 0, multiplicity = 1:

       Center              X                  Y                   Z               Mass
    ------------   -----------------  -----------------  -----------------  -----------------
         N            0.986108053205     0.039141595490     0.006602984115    14.003074004430
         N            1.673989053205    -1.050815404510    -0.412176015885    14.003074004430
         C           -0.432184946795     0.022204595490    -0.002304015885    12.000000000000
         C           -1.008307046795     1.268412795490    -0.261526415885    12.000000000000
         C           -1.098734946795    -1.180697404510     0.244603984115    12.000000000000
         C            1.805499053205     1.056703595490     0.412953984115    12.000000000000
         C           -2.533057946795     1.177846595490    -0.224623015885    12.000000000000
         C           -2.492625946795    -1.193424404510     0.242798984115    12.000000000000
         C            3.101957053205     0.604182595490     0.243610984115    12.000000000000
         C           -3.213375946795    -0.016883404510     0.019811984115    12.000000000000
         C            2.965955053205    -0.699310404510    -0.263058015885    12.000000000000
         H           -0.604688946795     2.119287595490    -0.484346015885     1.007825032230
         H           -0.518419946795    -2.080318404510     0.421914984115     1.007825032230
         H            1.406761053205     1.977214595490     0.815186984115     1.007825032230
         H           -3.087506946795     2.093095595490    -0.416259015885     1.007825032230
         H           -3.017989946795    -2.126407404510     0.430929984115     1.007825032230
         H            4.012113053205     1.141275595490     0.471073984115     1.007825032230
         H           -4.300108946795    -0.032896404510     0.027920984115     1.007825032230
         H            3.737376053205    -1.406307404510    -0.540058015885     1.007825032230

  Basis Set: AUG-CC-PVTZ
    Blend: AUG-CC-PVTZ
  Basis Set: (AUG-CC-PVTZ AUX)
    Blend: AUG-CC-PVTZ-JKFIT
	 Reference Energy          =    -454.4576395204159098 [Eh]
	 Singles Energy            =      -0.0000000000000000 [Eh]
	 Same-Spin Energy          =      -0.5100482180492562 [Eh]
	 Opposite-Spin Energy      =      -1.5505065045360118 [Eh]
	 Correlation Energy        =      -2.0605547225852678 [Eh]
	 Total Energy              =    -456.5181942430011759 [Eh]

	 ================> DF-SCS-MP2 Energies <==================
	-----------------------------------------------------------
	 SCS Same-Spin Scale       =       0.3333333333333333 [-]
	 SCS Opposite-Spin Scale   =       1.2000000000000000 [-]
	 SCS Same-Spin Energy      =      -0.1700160726830854 [Eh]
	 SCS Opposite-Spin Energy  =      -1.8606078054432140 [Eh]
	 SCS Correlation Energy    =      -2.0306238781262995 [Eh]
	 SCS Total Energy          =    -456.4882633985421876 [Eh]
	-----------------------------------------------------------

  Dipole Moment: [D]
     X:    -0.9920      Y:     1.5985      Z:     0.7383     Total:     2.0210

*** Psi4 exiting successfully. Buy a developer a beer!
