                               Psi4 1.3.2 release

  ==> Input File <==

--------------------------------------------------------------------------
#psi4
#
memory 32 gb

molecule  {
0 1
  N        1.0119030     0.0333230     0.0008060
  N        1.6490253    -0.9762061    -0.3870713
  C       -0.4063900     0.0163860    -0.0081010
  C       -1.1124080     1.1967220    -0.2540550
  C       -1.0729400    -1.1865160     0.2388070
  C        1.8312940     1.0508850     0.4071570
  C       -2.5072630     1.1720280    -0.2304200
  C       -2.4668310    -1.1992430     0.2370020
  C        3.1277520     0.5983640     0.2378140
  C       -3.1875810    -0.0227020     0.0140150
  C        2.9917500    -0.7051290    -0.2688550
  H       -0.5788940     2.1134690    -0.4901430
  H       -0.4926250    -2.0861370     0.4161180
  H        1.4325560     1.9713960     0.8093900
  H       -3.0617120     2.0872770    -0.4220560
  H       -2.9921950    -2.1322260     0.4251330
  H        4.0379080     1.1354570     0.4652770
  H       -4.2743140    -0.0387150     0.0221240
  H        3.7631710    -1.4121260    -0.5458550
units angstrom
no_reorient  #important for SAPT in psi4, default
symmetry c1  #important for SAPT in psi4, default
}

set PROPERTIES_ORIGIN ["COM"]
properties('MP2/aug-cc-pvtz', properties = ['dipole'])
--------------------------------------------------------------------------

    Molecular point group: c1
  Charge       = 0
  Multiplicity = 1
  Basis Set: AUG-CC-PVTZ
    Blend: AUG-CC-PVTZ
  Basis Set: (AUG-CC-PVTZ AUX)
    Blend: AUG-CC-PVTZ-JKFIT

    Orbital Energies [Eh]
    ---------------------

    Doubly Occupied:

       1A    -15.659718     2A    -15.584640     3A    -11.292974
       4A    -11.268837     5A    -11.253646     6A    -11.250295
       7A    -11.249062     8A    -11.247900     9A    -11.244204
      10A    -11.243754    11A    -11.228634    12A     -1.425239
      13A     -1.176843    14A     -1.105056    15A     -1.069204
      16A     -1.026172    17A     -1.002230    18A     -0.865319
      19A     -0.851391    20A     -0.806291    21A     -0.775201
      22A     -0.741486    23A     -0.689258    24A     -0.658640
      25A     -0.645580    26A     -0.624145    27A     -0.604914
      28A     -0.599263    29A     -0.590263    30A     -0.559855
      31A     -0.523333    32A     -0.513364    33A     -0.508291
      34A     -0.451447    35A     -0.391881    36A     -0.349355
      37A     -0.343123    38A     -0.313275

  @DF-RHF Final Energy:  -454.48127857116418

   => Energetics <=

    Nuclear Repulsion Energy =            548.9658136770665351
    One-Electron Energy =               -1703.4260161990305278
    Two-Electron Energy =                 699.9789239507998673
    Total Energy =                       -454.4812785711641254
  Basis Set: (AUG-CC-PVTZ AUX)
    Blend: AUG-CC-PVTZ-RI
    Molecular point group: c1

    Geometry (in Angstrom), charge = 0, multiplicity = 1:

       Center              X                  Y                   Z               Mass
    ------------   -----------------  -----------------  -----------------  -----------------
         N            1.001861147889     0.036810962096     0.002494254088    14.003074004430
         N            1.638983447889    -0.972718137904    -0.385383045912    14.003074004430
         C           -0.416431852111     0.019873962096    -0.006412745912    12.000000000000
         C           -1.122449852111     1.200209962096    -0.252366745912    12.000000000000
         C           -1.082981852111    -1.183028037904     0.240495254088    12.000000000000
         C            1.821252147889     1.054372962096     0.408845254088    12.000000000000
         C           -2.517304852111     1.175515962096    -0.228731745912    12.000000000000
         C           -2.476872852111    -1.195755037904     0.238690254088    12.000000000000
         C            3.117710147889     0.601851962096     0.239502254088    12.000000000000
         C           -3.197622852111    -0.019214037904     0.015703254088    12.000000000000
         C            2.981708147889    -0.701641037904    -0.267166745912    12.000000000000
         H           -0.588935852111     2.116956962096    -0.488454745912     1.007825032230
         H           -0.502666852111    -2.082649037904     0.417806254088     1.007825032230
         H            1.422514147889     1.974883962096     0.811078254088     1.007825032230
         H           -3.071753852111     2.090764962096    -0.420367745912     1.007825032230
         H           -3.002236852111    -2.128738037904     0.426821254088     1.007825032230
         H            4.027866147889     1.138944962096     0.466965254088     1.007825032230
         H           -4.284355852111    -0.035227037904     0.023812254088     1.007825032230
         H            3.753129147889    -1.408638037904    -0.544166745912     1.007825032230

  Basis Set: AUG-CC-PVTZ
    Blend: AUG-CC-PVTZ
  Basis Set: (AUG-CC-PVTZ AUX)
    Blend: AUG-CC-PVTZ-JKFIT
	 Reference Energy          =    -454.4812785711641823 [Eh]
	 Singles Energy            =      -0.0000000000000000 [Eh]
	 Same-Spin Energy          =      -0.5102234839314116 [Eh]
	 Opposite-Spin Energy      =      -1.5464614868625866 [Eh]
	 Correlation Energy        =      -2.0566849707939983 [Eh]
	 Total Energy              =    -456.5379635419581632 [Eh]

	 ================> DF-SCS-MP2 Energies <==================
	-----------------------------------------------------------
	 SCS Same-Spin Scale       =       0.3333333333333333 [-]
	 SCS Opposite-Spin Scale   =       1.2000000000000000 [-]
	 SCS Same-Spin Energy      =      -0.1700744946438039 [Eh]
	 SCS Opposite-Spin Energy  =      -1.8557537842351037 [Eh]
	 SCS Correlation Energy    =      -2.0258282788789077 [Eh]
	 SCS Total Energy          =    -456.5071068500431011 [Eh]
	-----------------------------------------------------------

  Dipole Moment: [D]
     X:    -1.0273      Y:     1.5295      Z:     0.6936     Total:     1.9687

*** Psi4 exiting successfully. Buy a developer a beer!
