                               Psi4 1.3.2 release

  ==> Input File <==

--------------------------------------------------------------------------
#psi4
#
memory 32 gb

molecule  {
0 1
  N        1.0119030     0.0333230     0.0008060
  N        1.6997840    -1.0566340    -0.4179730
  C       -0.4063900     0.0163860    -0.0081010
  C       -1.1540557     1.1718510    -0.2490253
  C       -1.0729400    -1.1865160     0.2388070
  C        1.8312940     1.0508850     0.4071570
  C       -2.5072630     1.1720280    -0.2304200
  C       -2.4668310    -1.1992430     0.2370020
  C        3.1277520     0.5983640     0.2378140
  C       -3.1875810    -0.0227020     0.0140150
  C        2.9917500    -0.7051290    -0.2688550
  H       -0.5788940     2.1134690    -0.4901430
  H       -0.4926250    -2.0861370     0.4161180
  H        1.4325560     1.9713960     0.8093900
  H       -3.0617120     2.0872770    -0.4220560
  H       -2.9921950    -2.1322260     0.4251330
  H        4.0379080     1.1354570     0.4652770
  H       -4.2743140    -0.0387150     0.0221240
  H        3.7631710    -1.4121260    -0.5458550
units angstrom
no_reorient  #important for SAPT in psi4, default
symmetry c1  #important for SAPT in psi4, default
}

set PROPERTIES_ORIGIN ["COM"]
properties('MP2/aug-cc-pvtz', properties = ['dipole'])
--------------------------------------------------------------------------

    Molecular point group: c1
  Charge       = 0
  Multiplicity = 1
  Basis Set: AUG-CC-PVTZ
    Blend: AUG-CC-PVTZ
  Basis Set: (AUG-CC-PVTZ AUX)
    Blend: AUG-CC-PVTZ-JKFIT

    Orbital Energies [Eh]
    ---------------------

    Doubly Occupied:

       1A    -15.653150     2A    -15.591315     3A    -11.290930
       4A    -11.283011     5A    -11.260222     6A    -11.246521
       7A    -11.244716     8A    -11.242679     9A    -11.240721
      10A    -11.240538    11A    -11.228403    12A     -1.382910
      13A     -1.178119    14A     -1.112190    15A     -1.064754
      16A     -1.027797    17A     -0.997994    18A     -0.861738
      19A     -0.845898    20A     -0.796824    21A     -0.779900
      22A     -0.742928    23A     -0.685793    24A     -0.650438
      25A     -0.636712    26A     -0.615750    27A     -0.598437
      28A     -0.591799    29A     -0.589414    30A     -0.564084
      31A     -0.523425    32A     -0.514083    33A     -0.499104
      34A     -0.463077    35A     -0.395222    36A     -0.352010
      37A     -0.348847    38A     -0.312061

  @DF-RHF Final Energy:  -454.48535298496449

   => Energetics <=

    Nuclear Repulsion Energy =            546.7820111957763629
    One-Electron Energy =               -1699.2277034409462431
    Two-Electron Energy =                 697.9603392602055010
    Total Energy =                       -454.4853529849644929
  Basis Set: (AUG-CC-PVTZ AUX)
    Blend: AUG-CC-PVTZ-RI
    Molecular point group: c1

    Geometry (in Angstrom), charge = 0, multiplicity = 1:

       Center              X                  Y                   Z               Mass
    ------------   -----------------  -----------------  -----------------  -----------------
         N            1.000396531620     0.046699920339     0.005078870089    14.003074004430
         N            1.688277531620    -1.043257079661    -0.413700129911    14.003074004430
         C           -0.417896468380     0.029762920339    -0.003828129911    12.000000000000
         C           -1.165562168380     1.185227920339    -0.244752429911    12.000000000000
         C           -1.084446468380    -1.173139079661     0.243079870089    12.000000000000
         C            1.819787531620     1.064261920339     0.411429870089    12.000000000000
         C           -2.518769468380     1.185404920339    -0.226147129911    12.000000000000
         C           -2.478337468380    -1.185866079661     0.241274870089    12.000000000000
         C            3.116245531620     0.611740920339     0.242086870089    12.000000000000
         C           -3.199087468380    -0.009325079661     0.018287870089    12.000000000000
         C            2.980243531620    -0.691752079661    -0.264582129911    12.000000000000
         H           -0.590400468380     2.126845920339    -0.485870129911     1.007825032230
         H           -0.504131468380    -2.072760079661     0.420390870089     1.007825032230
         H            1.421049531620     1.984772920339     0.813662870089     1.007825032230
         H           -3.073218468380     2.100653920339    -0.417783129911     1.007825032230
         H           -3.003701468380    -2.118849079661     0.429405870089     1.007825032230
         H            4.026401531620     1.148833920339     0.469549870089     1.007825032230
         H           -4.285820468380    -0.025338079661     0.026396870089     1.007825032230
         H            3.751664531620    -1.398749079661    -0.541582129911     1.007825032230

  Basis Set: AUG-CC-PVTZ
    Blend: AUG-CC-PVTZ
  Basis Set: (AUG-CC-PVTZ AUX)
    Blend: AUG-CC-PVTZ-JKFIT
	 Reference Energy          =    -454.4853529849644929 [Eh]
	 Singles Energy            =      -0.0000000000000000 [Eh]
	 Same-Spin Energy          =      -0.5097214274633950 [Eh]
	 Opposite-Spin Energy      =      -1.5478017148269967 [Eh]
	 Correlation Energy        =      -2.0575231422903917 [Eh]
	 Total Energy              =    -456.5428761272548854 [Eh]

	 ================> DF-SCS-MP2 Energies <==================
	-----------------------------------------------------------
	 SCS Same-Spin Scale       =       0.3333333333333333 [-]
	 SCS Opposite-Spin Scale   =       1.2000000000000000 [-]
	 SCS Same-Spin Energy      =      -0.1699071424877983 [Eh]
	 SCS Opposite-Spin Energy  =      -1.8573620577923959 [Eh]
	 SCS Correlation Energy    =      -2.0272692002801942 [Eh]
	 SCS Total Energy          =    -456.5126221852447088 [Eh]
	-----------------------------------------------------------

  Dipole Moment: [D]
     X:    -0.8591      Y:     1.6346      Z:     0.7433     Total:     1.9905

*** Psi4 exiting successfully. Buy a developer a beer!
