                               Psi4 1.4a3.dev225

  ==> Input File <==

--------------------------------------------------------------------------
#psi4
#
memory 32 gb

molecule  {
0 1
  N        1.0119030     0.0333230     0.0008060
  N        1.6997840    -1.0566340    -0.4179730
  C       -0.4063900     0.0163860    -0.0081010
  C       -1.0871424     1.1544824    -0.2452533
  C       -1.0729400    -1.1865160     0.2388070
  C        1.8312940     1.0508850     0.4071570
  C       -2.5072630     1.1720280    -0.2304200
  C       -2.4668310    -1.1992430     0.2370020
  C        3.1277520     0.5983640     0.2378140
  C       -3.1875810    -0.0227020     0.0140150
  C        2.9917500    -0.7051290    -0.2688550
  H       -0.5788940     2.1134690    -0.4901430
  H       -0.4926250    -2.0861370     0.4161180
  H        1.4325560     1.9713960     0.8093900
  H       -3.0617120     2.0872770    -0.4220560
  H       -2.9921950    -2.1322260     0.4251330
  H        4.0379080     1.1354570     0.4652770
  H       -4.2743140    -0.0387150     0.0221240
  H        3.7631710    -1.4121260    -0.5458550
units angstrom
no_reorient  #important for SAPT in psi4, default
symmetry c1  #important for SAPT in psi4, default
}

set PROPERTIES_ORIGIN ["COM"]
properties('MP2/aug-cc-pvtz', properties = ['dipole'])
--------------------------------------------------------------------------

    Molecular point group: c1
  Charge       = 0
  Multiplicity = 1
  Basis Set: AUG-CC-PVTZ
    Blend: AUG-CC-PVTZ
  Basis Set: (AUG-CC-PVTZ AUX)
    Blend: AUG-CC-PVTZ-JKFIT

    Orbital Energies [Eh]
    ---------------------

    Doubly Occupied:

       1A    -15.650817     2A    -15.590400     3A    -11.286265
       4A    -11.282007     5A    -11.259113     6A    -11.250367
       7A    -11.245849     8A    -11.245585     9A    -11.241653
      10A    -11.241402    11A    -11.227536    12A     -1.382211
      13A     -1.179674    14A     -1.109948    15A     -1.063333
      16A     -1.021753    17A     -1.002300    18A     -0.858295
      19A     -0.851174    20A     -0.796584    21A     -0.778448
      22A     -0.743007    23A     -0.684240    24A     -0.651460
      25A     -0.638641    26A     -0.615993    27A     -0.597538
      28A     -0.592924    29A     -0.587487    30A     -0.562747
      31A     -0.519227    32A     -0.513097    33A     -0.506082
      34A     -0.462676    35A     -0.396043    36A     -0.349019
      37A     -0.343705    38A     -0.316852

  @DF-RHF Final Energy:  -454.48518109493136

   => Energetics <=

    Nuclear Repulsion Energy =            547.1402864339163443
    One-Electron Energy =               -1699.9600302813817052
    Two-Electron Energy =                 698.3345627525339978
    Total Energy =                       -454.4851810949313631
  Basis Set: (AUG-CC-PVTZ AUX)
    Blend: AUG-CC-PVTZ-RI
    Molecular point group: c1

    Geometry (in Angstrom), charge = 0, multiplicity = 1:

       Center              X                  Y                   Z               Mass
    ------------   -----------------  -----------------  -----------------  -----------------
         N            0.994823084154     0.048146612994     0.004764686752    14.003074004430
         N            1.682704084154    -1.041810387006    -0.414014313248    14.003074004430
         C           -0.423469915846     0.031209612994    -0.004142313248    12.000000000000
         C           -1.104222315846     1.169306012994    -0.241294613248    12.000000000000
         C           -1.090019915846    -1.171692387006     0.242765686752    12.000000000000
         C            1.814214084154     1.065708612994     0.411115686752    12.000000000000
         C           -2.524342915846     1.186851612994    -0.226461313248    12.000000000000
         C           -2.483910915846    -1.184419387006     0.240960686752    12.000000000000
         C            3.110672084154     0.613187612994     0.241772686752    12.000000000000
         C           -3.204660915846    -0.007878387006     0.017973686752    12.000000000000
         C            2.974670084154    -0.690305387006    -0.264896313248    12.000000000000
         H           -0.595973915846     2.128292612994    -0.486184313248     1.007825032230
         H           -0.509704915846    -2.071313387006     0.420076686752     1.007825032230
         H            1.415476084154     1.986219612994     0.813348686752     1.007825032230
         H           -3.078791915846     2.102100612994    -0.418097313248     1.007825032230
         H           -3.009274915846    -2.117402387006     0.429091686752     1.007825032230
         H            4.020828084154     1.150280612994     0.469235686752     1.007825032230
         H           -4.291393915846    -0.023891387006     0.026082686752     1.007825032230
         H            3.746091084154    -1.397302387006    -0.541896313248     1.007825032230

  Basis Set: AUG-CC-PVTZ
    Blend: AUG-CC-PVTZ
  Basis Set: (AUG-CC-PVTZ AUX)
    Blend: AUG-CC-PVTZ-JKFIT
	 Reference Energy          =    -454.4851810949313631 [Eh]
	 Singles Energy            =      -0.0000000000000000 [Eh]
	 Same-Spin Energy          =      -0.5096111856222612 [Eh]
	 Opposite-Spin Energy      =      -1.5479205322633112 [Eh]
	 Correlation Energy        =      -2.0575317178855723 [Eh]
	 Total Energy              =    -456.5427128128169443 [Eh]

	 ================> DF-SCS-MP2 Energies <==================
	-----------------------------------------------------------
	 SCS Same-Spin Scale       =       0.3333333333333333 [-]
	 SCS Opposite-Spin Scale   =       1.2000000000000000 [-]
	 SCS Same-Spin Energy      =      -0.1698703952074204 [Eh]
	 SCS Opposite-Spin Energy  =      -1.8575046387159733 [Eh]
	 SCS Correlation Energy    =      -2.0273750339233936 [Eh]
	 SCS Total Energy          =    -456.5125561288547829 [Eh]
	-----------------------------------------------------------

  Dipole Moment: [D]
     X:    -0.9340      Y:     1.6482      Z:     0.7390     Total:     2.0335

*** Psi4 exiting successfully. Buy a developer a beer!
