                               Psi4 1.3.2 release

  ==> Input File <==

--------------------------------------------------------------------------
#psi4
#
memory 32 gb

molecule  {
0 1
  N        1.0119030     0.0333230     0.0008060
  N        1.6997840    -1.0566340    -0.4179730
  C       -0.4063900     0.0163860    -0.0081010
  C       -1.1124080     1.1967220    -0.2540550
  C       -1.0729400    -1.1865160     0.2388070
  C        1.8312940     1.0508850     0.4071570
  C       -2.5072630     1.1720280    -0.2304200
  C       -2.4668310    -1.1992430     0.2370020
  C        3.0340479     0.6310709     0.2500536
  C       -3.1875810    -0.0227020     0.0140150
  C        2.9917500    -0.7051290    -0.2688550
  H       -0.5788940     2.1134690    -0.4901430
  H       -0.4926250    -2.0861370     0.4161180
  H        1.4325560     1.9713960     0.8093900
  H       -3.0617120     2.0872770    -0.4220560
  H       -2.9921950    -2.1322260     0.4251330
  H        4.0379080     1.1354570     0.4652770
  H       -4.2743140    -0.0387150     0.0221240
  H        3.7631710    -1.4121260    -0.5458550
units angstrom
no_reorient  #important for SAPT in psi4, default
symmetry c1  #important for SAPT in psi4, default
}

set PROPERTIES_ORIGIN ["COM"]
properties('MP2/aug-cc-pvtz', properties = ['dipole'])
--------------------------------------------------------------------------

    Molecular point group: c1
  Charge       = 0
  Multiplicity = 1
  Basis Set: AUG-CC-PVTZ
    Blend: AUG-CC-PVTZ
  Basis Set: (AUG-CC-PVTZ AUX)
    Blend: AUG-CC-PVTZ-JKFIT

    Orbital Energies [Eh]
    ---------------------

    Doubly Occupied:

       1A    -15.642991     2A    -15.596434     3A    -11.289811
       4A    -11.268708     5A    -11.262060     6A    -11.246602
       7A    -11.244487     8A    -11.244411     9A    -11.238668
      10A    -11.238525    11A    -11.225099    12A     -1.385038
      13A     -1.174264    14A     -1.108435    15A     -1.081087
      16A     -1.023213    17A     -0.994411    18A     -0.854652
      19A     -0.847808    20A     -0.795256    21A     -0.778616
      22A     -0.743785    23A     -0.685177    24A     -0.648483
      25A     -0.640343    26A     -0.614726    27A     -0.598326
      28A     -0.595006    29A     -0.581873    30A     -0.564925
      31A     -0.517780    32A     -0.510027    33A     -0.504475
      34A     -0.461544    35A     -0.393778    36A     -0.365637
      37A     -0.345313    38A     -0.308661

  @DF-RHF Final Energy:  -454.47623717021389

   => Energetics <=

    Nuclear Repulsion Energy =            548.0165713455892273
    One-Electron Energy =               -1701.7447463115531718
    Two-Electron Energy =                 699.2519377957499955
    Total Energy =                       -454.4762371702139490
  Basis Set: (AUG-CC-PVTZ AUX)
    Blend: AUG-CC-PVTZ-RI
    Molecular point group: c1

    Geometry (in Angstrom), charge = 0, multiplicity = 1:

       Center              X                  Y                   Z               Mass
    ------------   -----------------  -----------------  -----------------  -----------------
         N            1.004732494885     0.041904051642     0.004478331797    14.003074004430
         N            1.692613494885    -1.048052948358    -0.414300668203    14.003074004430
         C           -0.413560505115     0.024967051642    -0.004428668203    12.000000000000
         C           -1.119578505115     1.205303051642    -0.250382668203    12.000000000000
         C           -1.080110505115    -1.177934948358     0.242479331797    12.000000000000
         C            1.824123494885     1.059466051642     0.410829331797    12.000000000000
         C           -2.514433505115     1.180609051642    -0.226747668203    12.000000000000
         C           -2.474001505115    -1.190661948358     0.240674331797    12.000000000000
         C            3.026877394885     0.639651951642     0.253725931797    12.000000000000
         C           -3.194751505115    -0.014120948358     0.017687331797    12.000000000000
         C            2.984579494885    -0.696547948358    -0.265182668203    12.000000000000
         H           -0.586064505115     2.122050051642    -0.486470668203     1.007825032230
         H           -0.499795505115    -2.077555948358     0.419790331797     1.007825032230
         H            1.425385494885     1.979977051642     0.813062331797     1.007825032230
         H           -3.068882505115     2.095858051642    -0.418383668203     1.007825032230
         H           -2.999365505115    -2.123644948358     0.428805331797     1.007825032230
         H            4.030737494885     1.144038051642     0.468949331797     1.007825032230
         H           -4.281484505115    -0.030133948358     0.025796331797     1.007825032230
         H            3.756000494885    -1.403544948358    -0.542182668203     1.007825032230

  Basis Set: AUG-CC-PVTZ
    Blend: AUG-CC-PVTZ
  Basis Set: (AUG-CC-PVTZ AUX)
    Blend: AUG-CC-PVTZ-JKFIT
	 Reference Energy          =    -454.4762371702138921 [Eh]
	 Singles Energy            =      -0.0000000000000000 [Eh]
	 Same-Spin Energy          =      -0.5087947260229877 [Eh]
	 Opposite-Spin Energy      =      -1.5466702437026889 [Eh]
	 Correlation Energy        =      -2.0554649697256764 [Eh]
	 Total Energy              =    -456.5317021399395685 [Eh]

	 ================> DF-SCS-MP2 Energies <==================
	-----------------------------------------------------------
	 SCS Same-Spin Scale       =       0.3333333333333333 [-]
	 SCS Opposite-Spin Scale   =       1.2000000000000000 [-]
	 SCS Same-Spin Energy      =      -0.1695982420076625 [Eh]
	 SCS Opposite-Spin Energy  =      -1.8560042924432265 [Eh]
	 SCS Correlation Energy    =      -2.0256025344508890 [Eh]
	 SCS Total Energy          =    -456.5018397046648033 [Eh]
	-----------------------------------------------------------

  Dipole Moment: [D]
     X:    -0.6774      Y:     1.6220      Z:     0.7305     Total:     1.9035

*** Psi4 exiting successfully. Buy a developer a beer!
