                               Psi4 1.4a3.dev225

  ==> Input File <==

--------------------------------------------------------------------------
#psi4
#
memory 32 gb

molecule  {
0 1
  N        1.0119030     0.0333230     0.0008060
  N        1.6997840    -1.0566340    -0.4179730
  C       -0.4063900     0.0163860    -0.0081010
  C       -1.1124080     1.1967220    -0.2540550
  C       -1.0729400    -1.1865160     0.2388070
  C        1.8312940     1.0508850     0.4071570
  C       -2.5072630     1.1720280    -0.2304200
  C       -2.4668310    -1.1992430     0.2370020
  C        3.1277520     0.5983640     0.2378140
  C       -3.1875810    -0.0227020     0.0140150
  C        3.0396998    -0.6920833    -0.2633207
  H       -0.5788940     2.1134690    -0.4901430
  H       -0.4926250    -2.0861370     0.4161180
  H        1.4325560     1.9713960     0.8093900
  H       -3.0617120     2.0872770    -0.4220560
  H       -2.9921950    -2.1322260     0.4251330
  H        4.0379080     1.1354570     0.4652770
  H       -4.2743140    -0.0387150     0.0221240
  H        3.7631710    -1.4121260    -0.5458550
units angstrom
no_reorient  #important for SAPT in psi4, default
symmetry c1  #important for SAPT in psi4, default
}

set PROPERTIES_ORIGIN ["COM"]
properties('MP2/aug-cc-pvtz', properties = ['dipole'])
--------------------------------------------------------------------------

    Molecular point group: c1
  Charge       = 0
  Multiplicity = 1
  Basis Set: AUG-CC-PVTZ
    Blend: AUG-CC-PVTZ
  Basis Set: (AUG-CC-PVTZ AUX)
    Blend: AUG-CC-PVTZ-JKFIT

    Orbital Energies [Eh]
    ---------------------

    Doubly Occupied:

       1A    -15.656229     2A    -15.592367     3A    -11.292430
       4A    -11.281280     5A    -11.259882     6A    -11.248945
       7A    -11.247700     8A    -11.246512     9A    -11.242051
      10A    -11.241877    11A    -11.228323    12A     -1.377235
      13A     -1.173717    14A     -1.105152    15A     -1.062556
      16A     -1.024803    17A     -1.000072    18A     -0.863902
      19A     -0.847943    20A     -0.796550    21A     -0.778836
      22A     -0.741628    23A     -0.687686    24A     -0.648776
      25A     -0.639875    26A     -0.613080    27A     -0.598275
      28A     -0.595919    29A     -0.585135    30A     -0.570262
      31A     -0.521137    32A     -0.510826    33A     -0.507028
      34A     -0.459699    35A     -0.394504    36A     -0.348012
      37A     -0.342433    38A     -0.314513

  @DF-RHF Final Energy:  -454.48122211244373

   => Energetics <=

    Nuclear Repulsion Energy =            545.5338554735337766
    One-Electron Energy =               -1696.7358594051920591
    Two-Electron Energy =                 696.7207818192144941
    Total Energy =                       -454.4812221124437883
  Basis Set: (AUG-CC-PVTZ AUX)
    Blend: AUG-CC-PVTZ-RI
    Molecular point group: c1

    Geometry (in Angstrom), charge = 0, multiplicity = 1:

       Center              X                  Y                   Z               Mass
    ------------   -----------------  -----------------  -----------------  -----------------
         N            0.992933636212     0.043541703130     0.005036840155    14.003074004430
         N            1.680814636212    -1.046415296870    -0.413742159845    14.003074004430
         C           -0.425359363788     0.026604703130    -0.003870159845    12.000000000000
         C           -1.131377363788     1.206940703130    -0.249824159845    12.000000000000
         C           -1.091909363788    -1.176297296870     0.243037840155    12.000000000000
         C            1.812324636212     1.061103703130     0.411387840155    12.000000000000
         C           -2.526232363788     1.182246703130    -0.226189159845    12.000000000000
         C           -2.485800363788    -1.189024296870     0.241232840155    12.000000000000
         C            3.108782636212     0.608582703130     0.242044840155    12.000000000000
         C           -3.206550363788    -0.012483296870     0.018245840155    12.000000000000
         C            3.020730436212    -0.681864596870    -0.259089859845    12.000000000000
         H           -0.597863363788     2.123687703130    -0.485912159845     1.007825032230
         H           -0.511594363788    -2.075918296870     0.420348840155     1.007825032230
         H            1.413586636212     1.981614703130     0.813620840155     1.007825032230
         H           -3.080681363788     2.097495703130    -0.417825159845     1.007825032230
         H           -3.011164363788    -2.122007296870     0.429363840155     1.007825032230
         H            4.018938636212     1.145675703130     0.469507840155     1.007825032230
         H           -4.293283363788    -0.028496296870     0.026354840155     1.007825032230
         H            3.744201636212    -1.401907296870    -0.541624159845     1.007825032230

  Basis Set: AUG-CC-PVTZ
    Blend: AUG-CC-PVTZ
  Basis Set: (AUG-CC-PVTZ AUX)
    Blend: AUG-CC-PVTZ-JKFIT
	 Reference Energy          =    -454.4812221124437315 [Eh]
	 Singles Energy            =      -0.0000000000000000 [Eh]
	 Same-Spin Energy          =      -0.5110948148611545 [Eh]
	 Opposite-Spin Energy      =      -1.5505386594883253 [Eh]
	 Correlation Energy        =      -2.0616334743494797 [Eh]
	 Total Energy              =    -456.5428555867932232 [Eh]

	 ================> DF-SCS-MP2 Energies <==================
	-----------------------------------------------------------
	 SCS Same-Spin Scale       =       0.3333333333333333 [-]
	 SCS Opposite-Spin Scale   =       1.2000000000000000 [-]
	 SCS Same-Spin Energy      =      -0.1703649382870515 [Eh]
	 SCS Opposite-Spin Energy  =      -1.8606463913859903 [Eh]
	 SCS Correlation Energy    =      -2.0310113296730417 [Eh]
	 SCS Total Energy          =    -456.5122334421167807 [Eh]
	-----------------------------------------------------------

  Dipole Moment: [D]
     X:    -0.9553      Y:     1.6538      Z:     0.7460     Total:     2.0504

*** Psi4 exiting successfully. Buy a developer a beer!
