                               Psi4 1.3.2 release

  ==> Input File <==

--------------------------------------------------------------------------
#psi4
#
memory 32 gb

molecule  {
0 1
  N        1.0119030     0.0333230     0.0008060
  N        1.6997840    -1.0566340    -0.4179730
  C       -0.5361474    -0.0479162     0.0123044
  C       -1.1124080     1.1967220    -0.2540550
  C       -1.0729400    -1.1865160     0.2388070
  C        1.8312940     1.0508850     0.4071570
  C       -2.5072630     1.1720280    -0.2304200
  C       -2.4668310    -1.1992430     0.2370020
  C        3.1277520     0.5983640     0.2378140
  C       -3.1875810    -0.0227020     0.0140150
  C        2.9917500    -0.7051290    -0.2688550
  H       -0.5788940     2.1134690    -0.4901430
  H       -0.4926250    -2.0861370     0.4161180
  H        1.4325560     1.9713960     0.8093900
  H       -3.0617120     2.0872770    -0.4220560
  H       -2.9921950    -2.1322260     0.4251330
  H        4.0379080     1.1354570     0.4652770
  H       -4.2743140    -0.0387150     0.0221240
  H        3.7631710    -1.4121260    -0.5458550
units angstrom
no_reorient  #important for SAPT in psi4, default
symmetry c1  #important for SAPT in psi4, default
}

set PROPERTIES_ORIGIN ["COM"]
properties('MP2/aug-cc-pvtz', properties = ['dipole'])
--------------------------------------------------------------------------

    Molecular point group: c1
  Charge       = 0
  Multiplicity = 1
  Basis Set: AUG-CC-PVTZ
    Blend: AUG-CC-PVTZ
  Basis Set: (AUG-CC-PVTZ AUX)
    Blend: AUG-CC-PVTZ-JKFIT

    Orbital Energies [Eh]
    ---------------------

    Doubly Occupied:

       1A    -15.641964     2A    -15.582264     3A    -11.291358
       4A    -11.274464     5A    -11.253400     6A    -11.252447
       7A    -11.252158     8A    -11.250036     9A    -11.245135
      10A    -11.233097    11A    -11.219773    12A     -1.362701
      13A     -1.189311    14A     -1.091773    15A     -1.058859
      16A     -1.037145    17A     -1.004296    18A     -0.858831
      19A     -0.841970    20A     -0.792059    21A     -0.772470
      22A     -0.739218    23A     -0.686933    24A     -0.654023
      25A     -0.640448    26A     -0.617530    27A     -0.599208
      28A     -0.583314    29A     -0.580475    30A     -0.556392
      31A     -0.527298    32A     -0.524453    33A     -0.503270
      34A     -0.455265    35A     -0.387184    36A     -0.355012
      37A     -0.340664    38A     -0.324432

  @DF-RHF Final Energy:  -454.46173056424811

   => Energetics <=

    Nuclear Repulsion Energy =            546.2957012049080276
    One-Electron Energy =               -1698.3536015029831105
    Two-Electron Energy =                 697.5961697338269687
    Total Energy =                       -454.4617305642481142
  Basis Set: (AUG-CC-PVTZ AUX)
    Blend: AUG-CC-PVTZ-RI
    Molecular point group: c1

    Geometry (in Angstrom), charge = 0, multiplicity = 1:

       Center              X                  Y                   Z               Mass
    ------------   -----------------  -----------------  -----------------  -----------------
         N            1.007735502860     0.049984285655     0.003798173184    14.003074004430
         N            1.695616502860    -1.039972714345    -0.414980826816    14.003074004430
         C           -0.540314897140    -0.031254914345     0.015296573184    12.000000000000
         C           -1.116575497140     1.213383285655    -0.251062826816    12.000000000000
         C           -1.077107497140    -1.169854714345     0.241799173184    12.000000000000
         C            1.827126502860     1.067546285655     0.410149173184    12.000000000000
         C           -2.511430497140     1.188689285655    -0.227427826816    12.000000000000
         C           -2.470998497140    -1.182581714345     0.239994173184    12.000000000000
         C            3.123584502860     0.615025285655     0.240806173184    12.000000000000
         C           -3.191748497140    -0.006040714345     0.017007173184    12.000000000000
         C            2.987582502860    -0.688467714345    -0.265862826816    12.000000000000
         H           -0.583061497140     2.130130285655    -0.487150826816     1.007825032230
         H           -0.496792497140    -2.069475714345     0.419110173184     1.007825032230
         H            1.428388502860     1.988057285655     0.812382173184     1.007825032230
         H           -3.065879497140     2.103938285655    -0.419063826816     1.007825032230
         H           -2.996362497140    -2.115564714345     0.428125173184     1.007825032230
         H            4.033740502860     1.152118285655     0.468269173184     1.007825032230
         H           -4.278481497140    -0.022053714345     0.025116173184     1.007825032230
         H            3.759003502860    -1.395464714345    -0.542862826816     1.007825032230

  Basis Set: AUG-CC-PVTZ
    Blend: AUG-CC-PVTZ
  Basis Set: (AUG-CC-PVTZ AUX)
    Blend: AUG-CC-PVTZ-JKFIT
	 Reference Energy          =    -454.4617305642481142 [Eh]
	 Singles Energy            =      -0.0000000000000000 [Eh]
	 Same-Spin Energy          =      -0.5098090055927613 [Eh]
	 Opposite-Spin Energy      =      -1.5487033836484607 [Eh]
	 Correlation Energy        =      -2.0585123892412218 [Eh]
	 Total Energy              =    -456.5202429534893440 [Eh]

	 ================> DF-SCS-MP2 Energies <==================
	-----------------------------------------------------------
	 SCS Same-Spin Scale       =       0.3333333333333333 [-]
	 SCS Opposite-Spin Scale   =       1.2000000000000000 [-]
	 SCS Same-Spin Energy      =      -0.1699363351975871 [Eh]
	 SCS Opposite-Spin Energy  =      -1.8584440603781527 [Eh]
	 SCS Correlation Energy    =      -2.0283803955757396 [Eh]
	 SCS Total Energy          =    -456.4901109598238804 [Eh]
	-----------------------------------------------------------

  Dipole Moment: [D]
     X:    -1.6531      Y:     1.6060      Z:     0.7510     Total:     2.4241

*** Psi4 exiting successfully. Buy a developer a beer!
