                               Psi4 1.3.2 release

  ==> Input File <==

--------------------------------------------------------------------------
#psi4
#
memory 32 gb

molecule  {
0 1
  N        1.0119030     0.0333230     0.0008060
  N        1.6997840    -1.0566340    -0.4179730
  C       -0.4063900     0.0163860    -0.0081010
  C       -1.2345686     1.1179178    -0.2380919
  C       -1.0729400    -1.1865160     0.2388070
  C        1.8312940     1.0508850     0.4071570
  C       -2.5072630     1.1720280    -0.2304200
  C       -2.4668310    -1.1992430     0.2370020
  C        3.1277520     0.5983640     0.2378140
  C       -3.1875810    -0.0227020     0.0140150
  C        2.9917500    -0.7051290    -0.2688550
  H       -0.5788940     2.1134690    -0.4901430
  H       -0.4926250    -2.0861370     0.4161180
  H        1.4325560     1.9713960     0.8093900
  H       -3.0617120     2.0872770    -0.4220560
  H       -2.9921950    -2.1322260     0.4251330
  H        4.0379080     1.1354570     0.4652770
  H       -4.2743140    -0.0387150     0.0221240
  H        3.7631710    -1.4121260    -0.5458550
units angstrom
no_reorient  #important for SAPT in psi4, default
symmetry c1  #important for SAPT in psi4, default
}

set PROPERTIES_ORIGIN ["COM"]
properties('MP2/aug-cc-pvtz', properties = ['dipole'])
--------------------------------------------------------------------------

    Molecular point group: c1
  Charge       = 0
  Multiplicity = 1
  Basis Set: AUG-CC-PVTZ
    Blend: AUG-CC-PVTZ
  Basis Set: (AUG-CC-PVTZ AUX)
    Blend: AUG-CC-PVTZ-JKFIT

    Orbital Energies [Eh]
    ---------------------

    Doubly Occupied:

       1A    -15.655721     2A    -15.592312     3A    -11.290470
       4A    -11.283772     5A    -11.261286     6A    -11.245660
       7A    -11.242783     8A    -11.241064     9A    -11.240361
      10A    -11.232137    11A    -11.228930    12A     -1.383803
      13A     -1.185552    14A     -1.116863    15A     -1.066576
      16A     -1.034911    17A     -0.997724    18A     -0.864918
      19A     -0.841780    20A     -0.795826    21A     -0.785220
      22A     -0.743963    23A     -0.687076    24A     -0.653756
      25A     -0.633114    26A     -0.616766    27A     -0.604629
      28A     -0.590483    29A     -0.581461    30A     -0.564016
      31A     -0.528243    32A     -0.522352    33A     -0.478168
      34A     -0.462049    35A     -0.396442    36A     -0.360303
      37A     -0.350026    38A     -0.310551

  @DF-RHF Final Energy:  -454.45995269948975

   => Energetics <=

    Nuclear Repulsion Energy =            547.7520229508666034
    One-Electron Energy =               -1701.0818168737728229
    Two-Electron Energy =                 698.8698412234164152
    Total Energy =                       -454.4599526994898042
  Basis Set: (AUG-CC-PVTZ AUX)
    Blend: AUG-CC-PVTZ-RI
    Molecular point group: c1

    Geometry (in Angstrom), charge = 0, multiplicity = 1:

       Center              X                  Y                   Z               Mass
    ------------   -----------------  -----------------  -----------------  -----------------
         N            1.007102738287     0.051192208970     0.004168188198    14.003074004430
         N            1.694983738287    -1.038764791030    -0.414610811802    14.003074004430
         C           -0.411190261713     0.034255208970    -0.004738811802    12.000000000000
         C           -1.239368861713     1.135787008970    -0.234729711802    12.000000000000
         C           -1.077740261713    -1.168646791030     0.242169188198    12.000000000000
         C            1.826493738287     1.068754208970     0.410519188198    12.000000000000
         C           -2.512063261713     1.189897208970    -0.227057811802    12.000000000000
         C           -2.471631261713    -1.181373791030     0.240364188198    12.000000000000
         C            3.122951738287     0.616233208970     0.241176188198    12.000000000000
         C           -3.192381261713    -0.004832791030     0.017377188198    12.000000000000
         C            2.986949738287    -0.687259791030    -0.265492811802    12.000000000000
         H           -0.583694261713     2.131338208970    -0.486780811802     1.007825032230
         H           -0.497425261713    -2.068267791030     0.419480188198     1.007825032230
         H            1.427755738287     1.989265208970     0.812752188198     1.007825032230
         H           -3.066512261713     2.105146208970    -0.418693811802     1.007825032230
         H           -2.996995261713    -2.114356791030     0.428495188198     1.007825032230
         H            4.033107738287     1.153326208970     0.468639188198     1.007825032230
         H           -4.279114261713    -0.020845791030     0.025486188198     1.007825032230
         H            3.758370738287    -1.394256791030    -0.542492811802     1.007825032230

  Basis Set: AUG-CC-PVTZ
    Blend: AUG-CC-PVTZ
  Basis Set: (AUG-CC-PVTZ AUX)
    Blend: AUG-CC-PVTZ-JKFIT
	 Reference Energy          =    -454.4599526994897474 [Eh]
	 Singles Energy            =      -0.0000000000000000 [Eh]
	 Same-Spin Energy          =      -0.5100681383557621 [Eh]
	 Opposite-Spin Energy      =      -1.5486064312837891 [Eh]
	 Correlation Energy        =      -2.0586745696395514 [Eh]
	 Total Energy              =    -456.5186272691292970 [Eh]

	 ================> DF-SCS-MP2 Energies <==================
	-----------------------------------------------------------
	 SCS Same-Spin Scale       =       0.3333333333333333 [-]
	 SCS Opposite-Spin Scale   =       1.2000000000000000 [-]
	 SCS Same-Spin Energy      =      -0.1700227127852540 [Eh]
	 SCS Opposite-Spin Energy  =      -1.8583277175405468 [Eh]
	 SCS Correlation Energy    =      -2.0283504303258009 [Eh]
	 SCS Total Energy          =    -456.4883031298155629 [Eh]
	-----------------------------------------------------------

  Dipole Moment: [D]
     X:    -0.8309      Y:     1.5952      Z:     0.7609     Total:     1.9529

*** Psi4 exiting successfully. Buy a developer a beer!
