                               Psi4 1.4a3.dev225

  ==> Input File <==

--------------------------------------------------------------------------
#psi4
#
memory 32 gb

molecule  {
0 1
  N        1.0119030     0.0333230     0.0008060
  N        1.6997840    -1.0566340    -0.4179730
  C       -0.4063900     0.0163860    -0.0081010
  C       -1.1124080     1.1967220    -0.2540550
  C       -1.0729400    -1.1865160     0.2388070
  C        1.8312940     1.0508850     0.4071570
  C       -2.5072630     1.1720280    -0.2304200
  C       -2.4668310    -1.1992430     0.2370020
  C        3.1277520     0.5983640     0.2378140
  C       -3.1875810    -0.0227020     0.0140150
  C        2.9725701    -0.7103473    -0.2710687
  H       -0.5788940     2.1134690    -0.4901430
  H       -0.4926250    -2.0861370     0.4161180
  H        1.4325560     1.9713960     0.8093900
  H       -3.0617120     2.0872770    -0.4220560
  H       -2.9921950    -2.1322260     0.4251330
  H        4.0379080     1.1354570     0.4652770
  H       -4.2743140    -0.0387150     0.0221240
  H        3.7631710    -1.4121260    -0.5458550
units angstrom
no_reorient  #important for SAPT in psi4, default
symmetry c1  #important for SAPT in psi4, default
}

set PROPERTIES_ORIGIN ["COM"]
properties('MP2/aug-cc-pvtz', properties = ['dipole'])
--------------------------------------------------------------------------

    Molecular point group: c1
  Charge       = 0
  Multiplicity = 1
  Basis Set: AUG-CC-PVTZ
    Blend: AUG-CC-PVTZ
  Basis Set: (AUG-CC-PVTZ AUX)
    Blend: AUG-CC-PVTZ-JKFIT

    Orbital Energies [Eh]
    ---------------------

    Doubly Occupied:

       1A    -15.650112     2A    -15.589952     3A    -11.291480
       4A    -11.283019     5A    -11.259535     6A    -11.247971
       7A    -11.246360     8A    -11.245785     9A    -11.240655
      10A    -11.240491    11A    -11.228028    12A     -1.384919
      13A     -1.176513    14A     -1.112788    15A     -1.064337
      16A     -1.024304    17A     -0.997399    18A     -0.859542
      19A     -0.847956    20A     -0.797973    21A     -0.776799
      22A     -0.743047    23A     -0.686429    24A     -0.649328
      25A     -0.639796    26A     -0.616452    27A     -0.597144
      28A     -0.593995    29A     -0.590012    30A     -0.561091
      31A     -0.520001    32A     -0.510853    33A     -0.506904
      34A     -0.463425    35A     -0.395624    36A     -0.351987
      37A     -0.346447    38A     -0.312300

  @DF-RHF Final Energy:  -454.48921730607441

   => Energetics <=

    Nuclear Repulsion Energy =            546.7069919478581141
    One-Electron Energy =               -1699.0909109060874016
    Two-Electron Energy =                 697.8947016521549358
    Total Energy =                       -454.4892173060743517
  Basis Set: (AUG-CC-PVTZ AUX)
    Blend: AUG-CC-PVTZ-RI
    Molecular point group: c1

    Geometry (in Angstrom), charge = 0, multiplicity = 1:

       Center              X                  Y                   Z               Mass
    ------------   -----------------  -----------------  -----------------  -----------------
         N            0.998525108406     0.045062976846     0.005682198715    14.003074004430
         N            1.686406108406    -1.044894023154    -0.413096801285    14.003074004430
         C           -0.419767891594     0.028125976846    -0.003224801285    12.000000000000
         C           -1.125785891594     1.208461976846    -0.249178801285    12.000000000000
         C           -1.086317891594    -1.174776023154     0.243683198715    12.000000000000
         C            1.817916108406     1.062624976846     0.412033198715    12.000000000000
         C           -2.520640891594     1.183767976846    -0.225543801285    12.000000000000
         C           -2.480208891594    -1.187503023154     0.241878198715    12.000000000000
         C            3.114374108406     0.610103976846     0.242690198715    12.000000000000
         C           -3.200958891594    -0.010962023154     0.018891198715    12.000000000000
         C            2.959192208406    -0.698607323154    -0.266192501285    12.000000000000
         H           -0.592271891594     2.125208976846    -0.485266801285     1.007825032230
         H           -0.506002891594    -2.074397023154     0.420994198715     1.007825032230
         H            1.419178108406     1.983135976846     0.814266198715     1.007825032230
         H           -3.075089891594     2.099016976846    -0.417179801285     1.007825032230
         H           -3.005572891594    -2.120486023154     0.430009198715     1.007825032230
         H            4.024530108406     1.147196976846     0.470153198715     1.007825032230
         H           -4.287691891594    -0.026975023154     0.027000198715     1.007825032230
         H            3.749793108406    -1.400386023154    -0.540978801285     1.007825032230

  Basis Set: AUG-CC-PVTZ
    Blend: AUG-CC-PVTZ
  Basis Set: (AUG-CC-PVTZ AUX)
    Blend: AUG-CC-PVTZ-JKFIT
	 Reference Energy          =    -454.4892173060744085 [Eh]
	 Singles Energy            =      -0.0000000000000000 [Eh]
	 Same-Spin Energy          =      -0.5091159359862079 [Eh]
	 Opposite-Spin Energy      =      -1.5469228869670393 [Eh]
	 Correlation Energy        =      -2.0560388229532469 [Eh]
	 Total Energy              =    -456.5452561290276776 [Eh]

	 ================> DF-SCS-MP2 Energies <==================
	-----------------------------------------------------------
	 SCS Same-Spin Scale       =       0.3333333333333333 [-]
	 SCS Opposite-Spin Scale   =       1.2000000000000000 [-]
	 SCS Same-Spin Energy      =      -0.1697053119954026 [Eh]
	 SCS Opposite-Spin Energy  =      -1.8563074643604471 [Eh]
	 SCS Correlation Energy    =      -2.0260127763558495 [Eh]
	 SCS Total Energy          =    -456.5152300824302642 [Eh]
	-----------------------------------------------------------

  Dipole Moment: [D]
     X:    -0.8564      Y:     1.6297      Z:     0.7351     Total:     1.9824

*** Psi4 exiting successfully. Buy a developer a beer!
