                               Psi4 1.4a3.dev225

  ==> Input File <==

--------------------------------------------------------------------------
#psi4
#
memory 32 gb

molecule  {
0 1
  N        1.0119030     0.0333230     0.0008060
  N        1.6997840    -1.0566340    -0.4179730
  C       -0.4063900     0.0163860    -0.0081010
  C       -1.1124080     1.1967220    -0.2540550
  C       -1.0729400    -1.1865160     0.2388070
  C        1.8312940     1.0508850     0.4071570
  C       -2.5072630     1.1720280    -0.2304200
  C       -2.4668310    -1.1992430     0.2370020
  C        3.1277520     0.5983640     0.2378140
  C       -3.1875810    -0.0227020     0.0140150
  C        2.9917500    -0.7051290    -0.2688550
  H       -0.5788940     2.1134690    -0.4901430
  H       -0.4926250    -2.0861370     0.4161180
  H        1.4325560     1.9713960     0.8093900
  H       -3.0617120     2.0872770    -0.4220560
  H       -2.9921950    -2.1322260     0.4251330
  H        3.9958107     1.1106149     0.4547562
  H       -4.2743140    -0.0387150     0.0221240
  H        3.7631710    -1.4121260    -0.5458550
units angstrom
no_reorient  #important for SAPT in psi4, default
symmetry c1  #important for SAPT in psi4, default
}

set PROPERTIES_ORIGIN ["COM"]
properties('MP2/aug-cc-pvtz', properties = ['dipole'])
--------------------------------------------------------------------------

    Molecular point group: c1
  Charge       = 0
  Multiplicity = 1
  Basis Set: AUG-CC-PVTZ
    Blend: AUG-CC-PVTZ
  Basis Set: (AUG-CC-PVTZ AUX)
    Blend: AUG-CC-PVTZ-JKFIT

    Orbital Energies [Eh]
    ---------------------

    Doubly Occupied:

       1A    -15.651627     2A    -15.590481     3A    -11.291635
       4A    -11.282256     5A    -11.259293     6A    -11.248162
       7A    -11.246678     8A    -11.245915     9A    -11.240962
      10A    -11.240804    11A    -11.222358    12A     -1.382197
      13A     -1.175437    14A     -1.110237    15A     -1.064813
      16A     -1.024422    17A     -0.998685    18A     -0.862010
      19A     -0.848176    20A     -0.800155    21A     -0.777476
      22A     -0.744004    23A     -0.687660    24A     -0.649254
      25A     -0.640777    26A     -0.618023    27A     -0.597700
      28A     -0.596532    29A     -0.591129    30A     -0.563770
      31A     -0.520327    32A     -0.510740    33A     -0.506989
      34A     -0.462958    35A     -0.394836    36A     -0.349681
      37A     -0.346236    38A     -0.312909

  @DF-RHF Final Energy:  -454.48719983721605

   => Energetics <=

    Nuclear Repulsion Energy =            546.6307686080821213
    One-Electron Energy =               -1698.9213250457303275
    Two-Electron Energy =                 697.8033566004322665
    Total Energy =                       -454.4871998372160533
  Basis Set: (AUG-CC-PVTZ AUX)
    Blend: AUG-CC-PVTZ-RI
    Molecular point group: c1

    Geometry (in Angstrom), charge = 0, multiplicity = 1:

       Center              X                  Y                   Z               Mass
    ------------   -----------------  -----------------  -----------------  -----------------
         N            0.997222035467     0.044802107572     0.005571409425    14.003074004430
         N            1.685103035467    -1.045154892428    -0.413207590575    14.003074004430
         C           -0.421070964533     0.027865107572    -0.003335590575    12.000000000000
         C           -1.127088964533     1.208201107572    -0.249289590575    12.000000000000
         C           -1.087620964533    -1.175036892428     0.243572409425    12.000000000000
         C            1.816613035467     1.062364107572     0.411922409425    12.000000000000
         C           -2.521943964533     1.183507107572    -0.225654590575    12.000000000000
         C           -2.481511964533    -1.187763892428     0.241767409425    12.000000000000
         C            3.113071035467     0.609843107572     0.242579409425    12.000000000000
         C           -3.202261964533    -0.011222892428     0.018780409425    12.000000000000
         C            2.977069035467    -0.693649892428    -0.264089590575    12.000000000000
         H           -0.593574964533     2.124948107572    -0.485377590575     1.007825032230
         H           -0.507305964533    -2.074657892428     0.420883409425     1.007825032230
         H            1.417875035467     1.982875107572     0.814155409425     1.007825032230
         H           -3.076392964533     2.098756107572    -0.417290590575     1.007825032230
         H           -3.006875964533    -2.120746892428     0.429898409425     1.007825032230
         H            3.981129735467     1.122094007572     0.459521609425     1.007825032230
         H           -4.288994964533    -0.027235892428     0.026889409425     1.007825032230
         H            3.748490035467    -1.400646892428    -0.541089590575     1.007825032230

  Basis Set: AUG-CC-PVTZ
    Blend: AUG-CC-PVTZ
  Basis Set: (AUG-CC-PVTZ AUX)
    Blend: AUG-CC-PVTZ-JKFIT
	 Reference Energy          =    -454.4871998372160533 [Eh]
	 Singles Energy            =      -0.0000000000000000 [Eh]
	 Same-Spin Energy          =      -0.5095973463533178 [Eh]
	 Opposite-Spin Energy      =      -1.5476442418872343 [Eh]
	 Correlation Energy        =      -2.0572415882405521 [Eh]
	 Total Energy              =    -456.5444414254566254 [Eh]

	 ================> DF-SCS-MP2 Energies <==================
	-----------------------------------------------------------
	 SCS Same-Spin Scale       =       0.3333333333333333 [-]
	 SCS Opposite-Spin Scale   =       1.2000000000000000 [-]
	 SCS Same-Spin Energy      =      -0.1698657821177726 [Eh]
	 SCS Opposite-Spin Energy  =      -1.8571730902646810 [Eh]
	 SCS Correlation Energy    =      -2.0270388723824535 [Eh]
	 SCS Total Energy          =    -456.5142387095984873 [Eh]
	-----------------------------------------------------------

  Dipole Moment: [D]
     X:    -0.8818      Y:     1.6401      Z:     0.7397     Total:     2.0037

*** Psi4 exiting successfully. Buy a developer a beer!
