                               Psi4 1.3.2 release

  ==> Input File <==

--------------------------------------------------------------------------
#psi4
#
memory 32 gb

molecule  {
0 1
  N        0.9715741     0.0104210    -0.0085023
  N        1.6997840    -1.0566340    -0.4179730
  C       -0.4063900     0.0163860    -0.0081010
  C       -1.1124080     1.1967220    -0.2540550
  C       -1.0729400    -1.1865160     0.2388070
  C        1.8312940     1.0508850     0.4071570
  C       -2.5072630     1.1720280    -0.2304200
  C       -2.4668310    -1.1992430     0.2370020
  C        3.1277520     0.5983640     0.2378140
  C       -3.1875810    -0.0227020     0.0140150
  C        2.9917500    -0.7051290    -0.2688550
  H       -0.5788940     2.1134690    -0.4901430
  H       -0.4926250    -2.0861370     0.4161180
  H        1.4325560     1.9713960     0.8093900
  H       -3.0617120     2.0872770    -0.4220560
  H       -2.9921950    -2.1322260     0.4251330
  H        4.0379080     1.1354570     0.4652770
  H       -4.2743140    -0.0387150     0.0221240
  H        3.7631710    -1.4121260    -0.5458550
units angstrom
no_reorient  #important for SAPT in psi4, default
symmetry c1  #important for SAPT in psi4, default
}

set PROPERTIES_ORIGIN ["COM"]
properties('MP2/aug-cc-pvtz', properties = ['dipole'])
--------------------------------------------------------------------------

    Molecular point group: c1
  Charge       = 0
  Multiplicity = 1
  Basis Set: AUG-CC-PVTZ
    Blend: AUG-CC-PVTZ
  Basis Set: (AUG-CC-PVTZ AUX)
    Blend: AUG-CC-PVTZ-JKFIT

    Orbital Energies [Eh]
    ---------------------

    Doubly Occupied:

       1A    -15.651438     2A    -15.594162     3A    -11.288349
       4A    -11.286717     5A    -11.262173     6A    -11.246995
       7A    -11.244867     8A    -11.244514     9A    -11.238754
      10A    -11.238206    11A    -11.233286    12A     -1.379192
      13A     -1.178932    14A     -1.112425    15A     -1.060066
      16A     -1.022833    17A     -0.996460    18A     -0.866340
      19A     -0.848556    20A     -0.795064    21A     -0.777782
      22A     -0.739828    23A     -0.685527    24A     -0.649937
      25A     -0.643284    26A     -0.615310    27A     -0.600731
      28A     -0.595886    29A     -0.585127    30A     -0.564935
      31A     -0.519838    32A     -0.509359    33A     -0.505904
      34A     -0.458907    35A     -0.398932    36A     -0.350011
      37A     -0.345287    38A     -0.308298

  @DF-RHF Final Energy:  -454.48348107401347

   => Energetics <=

    Nuclear Repulsion Energy =            546.4121809378382295
    One-Electron Energy =               -1698.5028969853160561
    Two-Electron Energy =                 697.6072349734643012
    Total Energy =                       -454.4834810740135254
  Basis Set: (AUG-CC-PVTZ AUX)
    Blend: AUG-CC-PVTZ-RI
    Molecular point group: c1

    Geometry (in Angstrom), charge = 0, multiplicity = 1:

       Center              X                  Y                   Z               Mass
    ------------   -----------------  -----------------  -----------------  -----------------
         N            0.960518500889     0.023952335513    -0.002905747877    14.003074004430
         N            1.688728400889    -1.043102664487    -0.412376447877    14.003074004430
         C           -0.417445599111     0.029917335513    -0.002504447877    12.000000000000
         C           -1.123463599111     1.210253335513    -0.248458447877    12.000000000000
         C           -1.083995599111    -1.172984664487     0.244403552123    12.000000000000
         C            1.820238400889     1.064416335513     0.412753552123    12.000000000000
         C           -2.518318599111     1.185559335513    -0.224823447877    12.000000000000
         C           -2.477886599111    -1.185711664487     0.242598552123    12.000000000000
         C            3.116696400889     0.611895335513     0.243410552123    12.000000000000
         C           -3.198636599111    -0.009170664487     0.019611552123    12.000000000000
         C            2.980694400889    -0.691597664487    -0.263258447877    12.000000000000
         H           -0.589949599111     2.127000335513    -0.484546447877     1.007825032230
         H           -0.503680599111    -2.072605664487     0.421714552123     1.007825032230
         H            1.421500400889     1.984927335513     0.814986552123     1.007825032230
         H           -3.072767599111     2.100808335513    -0.416459447877     1.007825032230
         H           -3.003250599111    -2.118694664487     0.430729552123     1.007825032230
         H            4.026852400889     1.148988335513     0.470873552123     1.007825032230
         H           -4.285369599111    -0.025183664487     0.027720552123     1.007825032230
         H            3.752115400889    -1.398594664487    -0.540258447877     1.007825032230

  Basis Set: AUG-CC-PVTZ
    Blend: AUG-CC-PVTZ
  Basis Set: (AUG-CC-PVTZ AUX)
    Blend: AUG-CC-PVTZ-JKFIT
	 Reference Energy          =    -454.4834810740134685 [Eh]
	 Singles Energy            =      -0.0000000000000000 [Eh]
	 Same-Spin Energy          =      -0.5101134598522200 [Eh]
	 Opposite-Spin Energy      =      -1.5489711833425606 [Eh]
	 Correlation Energy        =      -2.0590846431947805 [Eh]
	 Total Energy              =    -456.5425657172082765 [Eh]

	 ================> DF-SCS-MP2 Energies <==================
	-----------------------------------------------------------
	 SCS Same-Spin Scale       =       0.3333333333333333 [-]
	 SCS Opposite-Spin Scale   =       1.2000000000000000 [-]
	 SCS Same-Spin Energy      =      -0.1700378199507400 [Eh]
	 SCS Opposite-Spin Energy  =      -1.8587654200110726 [Eh]
	 SCS Correlation Energy    =      -2.0288032399618126 [Eh]
	 SCS Total Energy          =    -456.5122843139752717 [Eh]
	-----------------------------------------------------------

  Dipole Moment: [D]
     X:    -0.6907      Y:     1.6375      Z:     0.7347     Total:     1.9231

*** Psi4 exiting successfully. Buy a developer a beer!
