                               Psi4 1.3.2 release

  ==> Input File <==

--------------------------------------------------------------------------
#psi4
#
memory 32 gb

molecule  {
0 1
  N        1.0119030     0.0333230     0.0008060
  N        1.6997840    -1.0566340    -0.4179730
  C       -0.4275374     0.0045784    -0.0052706
  C       -1.1124080     1.1967220    -0.2540550
  C       -1.0729400    -1.1865160     0.2388070
  C        1.8312940     1.0508850     0.4071570
  C       -2.5072630     1.1720280    -0.2304200
  C       -2.4668310    -1.1992430     0.2370020
  C        3.1277520     0.5983640     0.2378140
  C       -3.1875810    -0.0227020     0.0140150
  C        2.9917500    -0.7051290    -0.2688550
  H       -0.5788940     2.1134690    -0.4901430
  H       -0.4926250    -2.0861370     0.4161180
  H        1.4325560     1.9713960     0.8093900
  H       -3.0617120     2.0872770    -0.4220560
  H       -2.9921950    -2.1322260     0.4251330
  H        4.0379080     1.1354570     0.4652770
  H       -4.2743140    -0.0387150     0.0221240
  H        3.7631710    -1.4121260    -0.5458550
units angstrom
no_reorient  #important for SAPT in psi4, default
symmetry c1  #important for SAPT in psi4, default
}

set PROPERTIES_ORIGIN ["COM"]
properties('MP2/aug-cc-pvtz', properties = ['dipole'])
--------------------------------------------------------------------------

    Molecular point group: c1
  Charge       = 0
  Multiplicity = 1
  Basis Set: AUG-CC-PVTZ
    Blend: AUG-CC-PVTZ
  Basis Set: (AUG-CC-PVTZ AUX)
    Blend: AUG-CC-PVTZ-JKFIT

    Orbital Energies [Eh]
    ---------------------

    Doubly Occupied:

       1A    -15.650586     2A    -15.589391     3A    -11.291477
       4A    -11.281330     5A    -11.258034     6A    -11.248976
       7A    -11.247568     8A    -11.246926     9A    -11.241650
      10A    -11.239700    11A    -11.226723    12A     -1.378926
      13A     -1.176701    14A     -1.107430    15A     -1.062654
      16A     -1.026439    17A     -0.999636    18A     -0.858039
      19A     -0.848567    20A     -0.796678    21A     -0.777005
      22A     -0.741895    23A     -0.686922    24A     -0.648962
      25A     -0.639575    26A     -0.614896    27A     -0.598742
      28A     -0.592502    29A     -0.587974    30A     -0.562550
      31A     -0.519267    32A     -0.513040    33A     -0.509573
      34A     -0.461835    35A     -0.393248    36A     -0.349402
      37A     -0.346507    38A     -0.315475

  @DF-RHF Final Energy:  -454.48743697199791

   => Energetics <=

    Nuclear Repulsion Energy =            546.3274456559395276
    One-Electron Energy =               -1698.3561610868578100
    Two-Electron Energy =                 697.5412784589203739
    Total Energy =                       -454.4874369719979086
  Basis Set: (AUG-CC-PVTZ AUX)
    Blend: AUG-CC-PVTZ-RI
    Molecular point group: c1

    Geometry (in Angstrom), charge = 0, multiplicity = 1:

       Center              X                  Y                   Z               Mass
    ------------   -----------------  -----------------  -----------------  -----------------
         N            0.998688988500     0.045611823150     0.005262057632    14.003074004430
         N            1.686569988500    -1.044345176850    -0.413516942368    14.003074004430
         C           -0.440751411500     0.016867223150    -0.000814542368    12.000000000000
         C           -1.125622011500     1.209010823150    -0.249598942368    12.000000000000
         C           -1.086154011500    -1.174227176850     0.243263057632    12.000000000000
         C            1.818079988500     1.063173823150     0.411613057632    12.000000000000
         C           -2.520477011500     1.184316823150    -0.225963942368    12.000000000000
         C           -2.480045011500    -1.186954176850     0.241458057632    12.000000000000
         C            3.114537988500     0.610652823150     0.242270057632    12.000000000000
         C           -3.200795011500    -0.010413176850     0.018471057632    12.000000000000
         C            2.978535988500    -0.692840176850    -0.264398942368    12.000000000000
         H           -0.592108011500     2.125757823150    -0.485686942368     1.007825032230
         H           -0.505839011500    -2.073848176850     0.420574057632     1.007825032230
         H            1.419341988500     1.983684823150     0.813846057632     1.007825032230
         H           -3.074926011500     2.099565823150    -0.417599942368     1.007825032230
         H           -3.005409011500    -2.119937176850     0.429589057632     1.007825032230
         H            4.024693988500     1.147745823150     0.469733057632     1.007825032230
         H           -4.287528011500    -0.026426176850     0.026580057632     1.007825032230
         H            3.749956988500    -1.399837176850    -0.541398942368     1.007825032230

  Basis Set: AUG-CC-PVTZ
    Blend: AUG-CC-PVTZ
  Basis Set: (AUG-CC-PVTZ AUX)
    Blend: AUG-CC-PVTZ-JKFIT
	 Reference Energy          =    -454.4874369719979086 [Eh]
	 Singles Energy            =      -0.0000000000000000 [Eh]
	 Same-Spin Energy          =      -0.5096008142794670 [Eh]
	 Opposite-Spin Energy      =      -1.5478158653083052 [Eh]
	 Correlation Energy        =      -2.0574166795877722 [Eh]
	 Total Energy              =    -456.5448536515856972 [Eh]

	 ================> DF-SCS-MP2 Energies <==================
	-----------------------------------------------------------
	 SCS Same-Spin Scale       =       0.3333333333333333 [-]
	 SCS Opposite-Spin Scale   =       1.2000000000000000 [-]
	 SCS Same-Spin Energy      =      -0.1698669380931557 [Eh]
	 SCS Opposite-Spin Energy  =      -1.8573790383699662 [Eh]
	 SCS Correlation Energy    =      -2.0272459764631217 [Eh]
	 SCS Total Energy          =    -456.5146829484610294 [Eh]
	-----------------------------------------------------------

  Dipole Moment: [D]
     X:    -1.0089      Y:     1.6352      Z:     0.7404     Total:     2.0591

*** Psi4 exiting successfully. Buy a developer a beer!
