                               Psi4 1.3.2 release

  ==> Input File <==

--------------------------------------------------------------------------
#psi4
#
memory 32 gb

molecule  {
0 1
  N        1.0119030     0.0333230     0.0008060
  N        1.6586150    -1.0783487    -0.4264083
  C       -0.4063900     0.0163860    -0.0081010
  C       -1.1124080     1.1967220    -0.2540550
  C       -1.0729400    -1.1865160     0.2388070
  C        1.8312940     1.0508850     0.4071570
  C       -2.5072630     1.1720280    -0.2304200
  C       -2.4668310    -1.1992430     0.2370020
  C        3.1277520     0.5983640     0.2378140
  C       -3.1875810    -0.0227020     0.0140150
  C        2.9917500    -0.7051290    -0.2688550
  H       -0.5788940     2.1134690    -0.4901430
  H       -0.4926250    -2.0861370     0.4161180
  H        1.4325560     1.9713960     0.8093900
  H       -3.0617120     2.0872770    -0.4220560
  H       -2.9921950    -2.1322260     0.4251330
  H        4.0379080     1.1354570     0.4652770
  H       -4.2743140    -0.0387150     0.0221240
  H        3.7631710    -1.4121260    -0.5458550
units angstrom
no_reorient  #important for SAPT in psi4, default
symmetry c1  #important for SAPT in psi4, default
}

set PROPERTIES_ORIGIN ["COM"]
properties('MP2/aug-cc-pvtz', properties = ['dipole'])
--------------------------------------------------------------------------

    Molecular point group: c1
  Charge       = 0
  Multiplicity = 1
  Basis Set: AUG-CC-PVTZ
    Blend: AUG-CC-PVTZ
  Basis Set: (AUG-CC-PVTZ AUX)
    Blend: AUG-CC-PVTZ-JKFIT

    Orbital Energies [Eh]
    ---------------------

    Doubly Occupied:

       1A    -15.654935     2A    -15.595954     3A    -11.290727
       4A    -11.283779     5A    -11.264701     6A    -11.247949
       7A    -11.246525     8A    -11.245695     9A    -11.240917
      10A    -11.240694    11A    -11.230916    12A     -1.379229
      13A     -1.172314    14A     -1.103054    15A     -1.067665
      16A     -1.024077    17A     -0.996896    18A     -0.860842
      19A     -0.846849    20A     -0.794737    21A     -0.778341
      22A     -0.742966    23A     -0.686428    24A     -0.648455
      25A     -0.637751    26A     -0.614414    27A     -0.596651
      28A     -0.593211    29A     -0.586862    30A     -0.561785
      31A     -0.519830    32A     -0.509734    33A     -0.506579
      34A     -0.468515    35A     -0.392242    36A     -0.348608
      37A     -0.345313    38A     -0.312587

  @DF-RHF Final Energy:  -454.48093840829040

   => Energetics <=

    Nuclear Repulsion Energy =            545.8499767725211314
    One-Electron Energy =               -1697.3843833136122612
    Two-Electron Energy =                 697.0534681328007309
    Total Energy =                       -454.4809384082903989
  Basis Set: (AUG-CC-PVTZ AUX)
    Blend: AUG-CC-PVTZ-RI
    Molecular point group: c1

    Geometry (in Angstrom), charge = 0, multiplicity = 1:

       Center              X                  Y                   Z               Mass
    ------------   -----------------  -----------------  -----------------  -----------------
         N            1.000929056228     0.046738933318     0.006317698997    14.003074004430
         N            1.647641056228    -1.064932766682    -0.420896601003    14.003074004430
         C           -0.417363943772     0.029801933318    -0.002589301003    12.000000000000
         C           -1.123381943772     1.210137933318    -0.248543301003    12.000000000000
         C           -1.083913943772    -1.173100066682     0.244318698997    12.000000000000
         C            1.820320056228     1.064300933318     0.412668698997    12.000000000000
         C           -2.518236943772     1.185443933318    -0.224908301003    12.000000000000
         C           -2.477804943772    -1.185827066682     0.242513698997    12.000000000000
         C            3.116778056228     0.611779933318     0.243325698997    12.000000000000
         C           -3.198554943772    -0.009286066682     0.019526698997    12.000000000000
         C            2.980776056228    -0.691713066682    -0.263343301003    12.000000000000
         H           -0.589867943772     2.126884933318    -0.484631301003     1.007825032230
         H           -0.503598943772    -2.072721066682     0.421629698997     1.007825032230
         H            1.421582056228     1.984811933318     0.814901698997     1.007825032230
         H           -3.072685943772     2.100692933318    -0.416544301003     1.007825032230
         H           -3.003168943772    -2.118810066682     0.430644698997     1.007825032230
         H            4.026934056228     1.148872933318     0.470788698997     1.007825032230
         H           -4.285287943772    -0.025299066682     0.027635698997     1.007825032230
         H            3.752197056228    -1.398710066682    -0.540343301003     1.007825032230

  Basis Set: AUG-CC-PVTZ
    Blend: AUG-CC-PVTZ
  Basis Set: (AUG-CC-PVTZ AUX)
    Blend: AUG-CC-PVTZ-JKFIT
	 Reference Energy          =    -454.4809384082903989 [Eh]
	 Singles Energy            =      -0.0000000000000000 [Eh]
	 Same-Spin Energy          =      -0.5111374506690325 [Eh]
	 Opposite-Spin Energy      =      -1.5508946554941532 [Eh]
	 Correlation Energy        =      -2.0620321061631857 [Eh]
	 Total Energy              =    -456.5429705144536001 [Eh]

	 ================> DF-SCS-MP2 Energies <==================
	-----------------------------------------------------------
	 SCS Same-Spin Scale       =       0.3333333333333333 [-]
	 SCS Opposite-Spin Scale   =       1.2000000000000000 [-]
	 SCS Same-Spin Energy      =      -0.1703791502230108 [Eh]
	 SCS Opposite-Spin Energy  =      -1.8610735865929837 [Eh]
	 SCS Correlation Energy    =      -2.0314527368159947 [Eh]
	 SCS Total Energy          =    -456.5123911451063918 [Eh]
	-----------------------------------------------------------

  Dipole Moment: [D]
     X:    -0.8520      Y:     1.7019      Z:     0.7653     Total:     2.0514

*** Psi4 exiting successfully. Buy a developer a beer!
