                               Psi4 1.4a3.dev225

  ==> Input File <==

--------------------------------------------------------------------------
#psi4
#
memory 32 gb

molecule  {
0 1
  N        1.0119030     0.0333230     0.0008060
  N        1.6997840    -1.0566340    -0.4179730
  C       -0.4063900     0.0163860    -0.0081010
  C       -1.1124080     1.1967220    -0.2540550
  C       -1.0729400    -1.1865160     0.2388070
  C        1.8312940     1.0508850     0.4071570
  C       -2.5072630     1.1720280    -0.2304200
  C       -2.4668310    -1.1992430     0.2370020
  C        3.1277520     0.5983640     0.2378140
  C       -3.1875810    -0.0227020     0.0140150
  C        3.0109299    -0.6999107    -0.2666413
  H       -0.5788940     2.1134690    -0.4901430
  H       -0.4926250    -2.0861370     0.4161180
  H        1.4325560     1.9713960     0.8093900
  H       -3.0617120     2.0872770    -0.4220560
  H       -2.9921950    -2.1322260     0.4251330
  H        4.0379080     1.1354570     0.4652770
  H       -4.2743140    -0.0387150     0.0221240
  H        3.7631710    -1.4121260    -0.5458550
units angstrom
no_reorient  #important for SAPT in psi4, default
symmetry c1  #important for SAPT in psi4, default
}

set PROPERTIES_ORIGIN ["COM"]
properties('MP2/aug-cc-pvtz', properties = ['dipole'])
--------------------------------------------------------------------------

    Molecular point group: c1
  Charge       = 0
  Multiplicity = 1
  Basis Set: AUG-CC-PVTZ
    Blend: AUG-CC-PVTZ
  Basis Set: (AUG-CC-PVTZ AUX)
    Blend: AUG-CC-PVTZ-JKFIT

    Orbital Energies [Eh]
    ---------------------

    Doubly Occupied:

       1A    -15.653579     2A    -15.591471     3A    -11.292012
       4A    -11.282052     5A    -11.259744     6A    -11.248500
       7A    -11.247136     8A    -11.246189     9A    -11.241439
      10A    -11.241275    11A    -11.228141    12A     -1.380217
      13A     -1.174708    14A     -1.108106    15A     -1.063499
      16A     -1.024591    17A     -0.998949    18A     -0.861978
      19A     -0.847948    20A     -0.796837    21A     -0.778233
      22A     -0.742208    23A     -0.687147    24A     -0.648943
      25A     -0.639846    26A     -0.614410    27A     -0.597527
      28A     -0.595054    29A     -0.587288    30A     -0.566402
      31A     -0.520640    32A     -0.510801    33A     -0.507014
      34A     -0.461945    35A     -0.394620    36A     -0.348399
      37A     -0.345462    38A     -0.313670

  @DF-RHF Final Energy:  -454.48597220910239

   => Energetics <=

    Nuclear Repulsion Energy =            546.0276768270440471
    One-Electron Energy =               -1697.7313384897306605
    Two-Electron Energy =                 697.2176894535841711
    Total Energy =                       -454.4859722091023286
  Basis Set: (AUG-CC-PVTZ AUX)
    Blend: AUG-CC-PVTZ-RI
    Molecular point group: c1

    Geometry (in Angstrom), charge = 0, multiplicity = 1:

       Center              X                  Y                   Z               Mass
    ------------   -----------------  -----------------  -----------------  -----------------
         N            0.995329983818     0.044193675200     0.005313424775    14.003074004430
         N            1.683210983818    -1.045763324800    -0.413465575225    14.003074004430
         C           -0.422963016182     0.027256675200    -0.003593575225    12.000000000000
         C           -1.128981016182     1.207592675200    -0.249547575225    12.000000000000
         C           -1.089513016182    -1.175645324800     0.243314424775    12.000000000000
         C            1.814720983818     1.061755675200     0.411664424775    12.000000000000
         C           -2.523836016182     1.182898675200    -0.225912575225    12.000000000000
         C           -2.483404016182    -1.188372324800     0.241509424775    12.000000000000
         C            3.111178983818     0.609234675200     0.242321424775    12.000000000000
         C           -3.204154016182    -0.011831324800     0.018522424775    12.000000000000
         C            2.994356883818    -0.689040024800    -0.262133875225    12.000000000000
         H           -0.595467016182     2.124339675200    -0.485635575225     1.007825032230
         H           -0.509198016182    -2.075266324800     0.420625424775     1.007825032230
         H            1.415982983818     1.982266675200     0.813897424775     1.007825032230
         H           -3.078285016182     2.098147675200    -0.417548575225     1.007825032230
         H           -3.008768016182    -2.121355324800     0.429640424775     1.007825032230
         H            4.021334983818     1.146327675200     0.469784424775     1.007825032230
         H           -4.290887016182    -0.027844324800     0.026631424775     1.007825032230
         H            3.746597983818    -1.401255324800    -0.541347575225     1.007825032230

  Basis Set: AUG-CC-PVTZ
    Blend: AUG-CC-PVTZ
  Basis Set: (AUG-CC-PVTZ AUX)
    Blend: AUG-CC-PVTZ-JKFIT
	 Reference Energy          =    -454.4859722091023855 [Eh]
	 Singles Energy            =      -0.0000000000000000 [Eh]
	 Same-Spin Energy          =      -0.5102373884578548 [Eh]
	 Opposite-Spin Energy      =      -1.5489324660203683 [Eh]
	 Correlation Energy        =      -2.0591698544782231 [Eh]
	 Total Energy              =    -456.5451420635806130 [Eh]

	 ================> DF-SCS-MP2 Energies <==================
	-----------------------------------------------------------
	 SCS Same-Spin Scale       =       0.3333333333333333 [-]
	 SCS Opposite-Spin Scale   =       1.2000000000000000 [-]
	 SCS Same-Spin Energy      =      -0.1700791294859516 [Eh]
	 SCS Opposite-Spin Energy  =      -1.8587189592244417 [Eh]
	 SCS Correlation Energy    =      -2.0287980887103934 [Eh]
	 SCS Total Energy          =    -456.5147702978127882 [Eh]
	-----------------------------------------------------------

  Dipole Moment: [D]
     X:    -0.9140      Y:     1.6450      Z:     0.7420     Total:     2.0229

*** Psi4 exiting successfully. Buy a developer a beer!
