                               Psi4 1.3.2 release

  ==> Input File <==

--------------------------------------------------------------------------
#psi4
#
memory 32 gb

molecule  {
0 1
  N        1.0119030     0.0333230     0.0008060
  N        1.6997840    -1.0566340    -0.4179730
  C       -0.4063900     0.0163860    -0.0081010
  C       -1.1333425     1.1844644    -0.2515772
  C       -1.0729400    -1.1865160     0.2388070
  C        1.8312940     1.0508850     0.4071570
  C       -2.5072630     1.1720280    -0.2304200
  C       -2.4668310    -1.1992430     0.2370020
  C        3.1277520     0.5983640     0.2378140
  C       -3.1875810    -0.0227020     0.0140150
  C        2.9917500    -0.7051290    -0.2688550
  H       -0.5788940     2.1134690    -0.4901430
  H       -0.4926250    -2.0861370     0.4161180
  H        1.4325560     1.9713960     0.8093900
  H       -3.0617120     2.0872770    -0.4220560
  H       -2.9921950    -2.1322260     0.4251330
  H        4.0379080     1.1354570     0.4652770
  H       -4.2743140    -0.0387150     0.0221240
  H        3.7631710    -1.4121260    -0.5458550
units angstrom
no_reorient  #important for SAPT in psi4, default
symmetry c1  #important for SAPT in psi4, default
}

set PROPERTIES_ORIGIN ["COM"]
properties('MP2/aug-cc-pvtz', properties = ['dipole'])
--------------------------------------------------------------------------

    Molecular point group: c1
  Charge       = 0
  Multiplicity = 1
  Basis Set: AUG-CC-PVTZ
    Blend: AUG-CC-PVTZ
  Basis Set: (AUG-CC-PVTZ AUX)
    Blend: AUG-CC-PVTZ-JKFIT

    Orbital Energies [Eh]
    ---------------------

    Doubly Occupied:

       1A    -15.652492     2A    -15.591042     3A    -11.291290
       4A    -11.282784     5A    -11.259937     6A    -11.246975
       7A    -11.245349     8A    -11.245053     9A    -11.240882
      10A    -11.240709    11A    -11.228240    12A     -1.382683
      13A     -1.176744    14A     -1.111225    15A     -1.064356
      16A     -1.026093    17A     -0.998085    18A     -0.861146
      19A     -0.846962    20A     -0.797065    21A     -0.778717
      22A     -0.742749    23A     -0.686144    24A     -0.649696
      25A     -0.638180    26A     -0.615558    27A     -0.597140
      28A     -0.593847    29A     -0.589206    30A     -0.563920
      31A     -0.521913    32A     -0.512381    33A     -0.503320
      34A     -0.463016    35A     -0.395076    36A     -0.350605
      37A     -0.347894    38A     -0.312524

  @DF-RHF Final Energy:  -454.48753509166102

   => Energetics <=

    Nuclear Repulsion Energy =            546.5672746717289101
    One-Electron Energy =               -1698.8076231087252381
    Two-Electron Energy =                 697.7528133453353121
    Total Energy =                       -454.4875350916610159
  Basis Set: (AUG-CC-PVTZ AUX)
    Blend: AUG-CC-PVTZ-RI
    Molecular point group: c1

    Geometry (in Angstrom), charge = 0, multiplicity = 1:

       Center              X                  Y                   Z               Mass
    ------------   -----------------  -----------------  -----------------  -----------------
         N            0.998671255299     0.045649305255     0.005291426943    14.003074004430
         N            1.686552255299    -1.044307694745    -0.413487573057    14.003074004430
         C           -0.419621744701     0.028712305255    -0.003615573057    12.000000000000
         C           -1.146574244701     1.196790705255    -0.247091773057    12.000000000000
         C           -1.086171744701    -1.174189694745     0.243292426943    12.000000000000
         C            1.818062255299     1.063211305255     0.411642426943    12.000000000000
         C           -2.520494744701     1.184354305255    -0.225934573057    12.000000000000
         C           -2.480062744701    -1.186916694745     0.241487426943    12.000000000000
         C            3.114520255299     0.610690305255     0.242299426943    12.000000000000
         C           -3.200812744701    -0.010375694745     0.018500426943    12.000000000000
         C            2.978518255299    -0.692802694745    -0.264369573057    12.000000000000
         H           -0.592125744701     2.125795305255    -0.485657573057     1.007825032230
         H           -0.505856744701    -2.073810694745     0.420603426943     1.007825032230
         H            1.419324255299     1.983722305255     0.813875426943     1.007825032230
         H           -3.074943744701     2.099603305255    -0.417570573057     1.007825032230
         H           -3.005426744701    -2.119899694745     0.429618426943     1.007825032230
         H            4.024676255299     1.147783305255     0.469762426943     1.007825032230
         H           -4.287545744701    -0.026388694745     0.026609426943     1.007825032230
         H            3.749939255299    -1.399799694745    -0.541369573057     1.007825032230

  Basis Set: AUG-CC-PVTZ
    Blend: AUG-CC-PVTZ
  Basis Set: (AUG-CC-PVTZ AUX)
    Blend: AUG-CC-PVTZ-JKFIT
	 Reference Energy          =    -454.4875350916610159 [Eh]
	 Singles Energy            =      -0.0000000000000000 [Eh]
	 Same-Spin Energy          =      -0.5096868477818601 [Eh]
	 Opposite-Spin Energy      =      -1.5478085555565491 [Eh]
	 Correlation Energy        =      -2.0574954033384092 [Eh]
	 Total Energy              =    -456.5450304949994234 [Eh]

	 ================> DF-SCS-MP2 Energies <==================
	-----------------------------------------------------------
	 SCS Same-Spin Scale       =       0.3333333333333333 [-]
	 SCS Opposite-Spin Scale   =       1.2000000000000000 [-]
	 SCS Same-Spin Energy      =      -0.1698956159272867 [Eh]
	 SCS Opposite-Spin Energy  =      -1.8573702666678589 [Eh]
	 SCS Correlation Energy    =      -2.0272658825951457 [Eh]
	 SCS Total Energy          =    -456.5148009742561612 [Eh]
	-----------------------------------------------------------

  Dipole Moment: [D]
     X:    -0.8715      Y:     1.6374      Z:     0.7407     Total:     1.9973

*** Psi4 exiting successfully. Buy a developer a beer!
