                               Psi4 1.3.2 release

  ==> Input File <==

--------------------------------------------------------------------------
#psi4
#
memory 32 gb

molecule  {
0 1
  N        1.0119030     0.0333230     0.0008060
  N        1.8013014    -1.2174897    -0.4797764
  C       -0.4063900     0.0163860    -0.0081010
  C       -1.1124080     1.1967220    -0.2540550
  C       -1.0729400    -1.1865160     0.2388070
  C        1.8312940     1.0508850     0.4071570
  C       -2.5072630     1.1720280    -0.2304200
  C       -2.4668310    -1.1992430     0.2370020
  C        3.1277520     0.5983640     0.2378140
  C       -3.1875810    -0.0227020     0.0140150
  C        2.9917500    -0.7051290    -0.2688550
  H       -0.5788940     2.1134690    -0.4901430
  H       -0.4926250    -2.0861370     0.4161180
  H        1.4325560     1.9713960     0.8093900
  H       -3.0617120     2.0872770    -0.4220560
  H       -2.9921950    -2.1322260     0.4251330
  H        4.0379080     1.1354570     0.4652770
  H       -4.2743140    -0.0387150     0.0221240
  H        3.7631710    -1.4121260    -0.5458550
units angstrom
no_reorient  #important for SAPT in psi4, default
symmetry c1  #important for SAPT in psi4, default
}

set PROPERTIES_ORIGIN ["COM"]
properties('MP2/aug-cc-pvtz', properties = ['dipole'])
--------------------------------------------------------------------------

    Molecular point group: c1
  Charge       = 0
  Multiplicity = 1
  Basis Set: AUG-CC-PVTZ
    Blend: AUG-CC-PVTZ
  Basis Set: (AUG-CC-PVTZ AUX)
    Blend: AUG-CC-PVTZ-JKFIT

    Orbital Energies [Eh]
    ---------------------

    Doubly Occupied:

       1A    -15.635583     2A    -15.608662     3A    -11.302134
       4A    -11.288067     5A    -11.271829     6A    -11.245125
       7A    -11.242901     8A    -11.242020     9A    -11.236302
      10A    -11.235905    11A    -11.228118    12A     -1.329303
      13A     -1.176141    14A     -1.123599    15A     -1.060042
      16A     -1.021546    17A     -0.987710    18A     -0.857258
      19A     -0.840847    20A     -0.788829    21A     -0.775414
      22A     -0.740484    23A     -0.682323    24A     -0.640392
      25A     -0.632794    26A     -0.601870    27A     -0.592914
      28A     -0.589027    29A     -0.578218    30A     -0.554104
      31A     -0.518527    32A     -0.508896    33A     -0.505481
      34A     -0.473647    35A     -0.409852    36A     -0.358440
      37A     -0.343980    38A     -0.304245

  @DF-RHF Final Energy:  -454.45853983240164

   => Energetics <=

    Nuclear Repulsion Energy =            541.6249383666005315
    One-Electron Energy =               -1689.1018969411722992
    Two-Electron Energy =                 693.0184187421700699
    Total Energy =                       -454.4585398324015841
  Basis Set: (AUG-CC-PVTZ AUX)
    Blend: AUG-CC-PVTZ-RI
    Molecular point group: c1

    Geometry (in Angstrom), charge = 0, multiplicity = 1:

       Center              X                  Y                   Z               Mass
    ------------   -----------------  -----------------  -----------------  -----------------
         N            0.987060342558     0.060263044157     0.011504927059    14.003074004430
         N            1.776458742558    -1.190549655843    -0.469077472941    14.003074004430
         C           -0.431232657442     0.043326044157     0.002597927059    12.000000000000
         C           -1.137250657442     1.223662044157    -0.243356072941    12.000000000000
         C           -1.097782657442    -1.159575955843     0.249505927059    12.000000000000
         C            1.806451342558     1.077825044157     0.417855927059    12.000000000000
         C           -2.532105657442     1.198968044157    -0.219721072941    12.000000000000
         C           -2.491673657442    -1.172302955843     0.247700927059    12.000000000000
         C            3.102909342558     0.625304044157     0.248512927059    12.000000000000
         C           -3.212423657442     0.004238044157     0.024713927059    12.000000000000
         C            2.966907342558    -0.678188955843    -0.258156072941    12.000000000000
         H           -0.603736657442     2.140409044157    -0.479444072941     1.007825032230
         H           -0.517467657442    -2.059196955843     0.426816927059     1.007825032230
         H            1.407713342558     1.998336044157     0.820088927059     1.007825032230
         H           -3.086554657442     2.114217044157    -0.411357072941     1.007825032230
         H           -3.017037657442    -2.105285955843     0.435831927059     1.007825032230
         H            4.013065342558     1.162397044157     0.475975927059     1.007825032230
         H           -4.299156657442    -0.011774955843     0.032822927059     1.007825032230
         H            3.738328342558    -1.385185955843    -0.535156072941     1.007825032230

  Basis Set: AUG-CC-PVTZ
    Blend: AUG-CC-PVTZ
  Basis Set: (AUG-CC-PVTZ AUX)
    Blend: AUG-CC-PVTZ-JKFIT
	 Reference Energy          =    -454.4585398324016410 [Eh]
	 Singles Energy            =      -0.0000000000000000 [Eh]
	 Same-Spin Energy          =      -0.5091209357106203 [Eh]
	 Opposite-Spin Energy      =      -1.5518552550314759 [Eh]
	 Correlation Energy        =      -2.0609761907420960 [Eh]
	 Total Energy              =    -456.5195160231437512 [Eh]

	 ================> DF-SCS-MP2 Energies <==================
	-----------------------------------------------------------
	 SCS Same-Spin Scale       =       0.3333333333333333 [-]
	 SCS Opposite-Spin Scale   =       1.2000000000000000 [-]
	 SCS Same-Spin Energy      =      -0.1697069785702068 [Eh]
	 SCS Opposite-Spin Energy  =      -1.8622263060377711 [Eh]
	 SCS Correlation Energy    =      -2.0319332846079776 [Eh]
	 SCS Total Energy          =    -456.4904731170096284 [Eh]
	-----------------------------------------------------------

  Dipole Moment: [D]
     X:    -0.6038      Y:     1.7599      Z:     0.7859     Total:     2.0198

*** Psi4 exiting successfully. Buy a developer a beer!
