                               Psi4 1.3.2 release

  ==> Input File <==

--------------------------------------------------------------------------
#psi4
#
memory 32 gb

molecule  {
0 1
  N        1.0119030     0.0333230     0.0008060
  N        1.6997840    -1.0566340    -0.4179730
  C       -0.4063900     0.0163860    -0.0081010
  C       -1.0265839     1.2421213    -0.2632096
  C       -1.0729400    -1.1865160     0.2388070
  C        1.8312940     1.0508850     0.4071570
  C       -2.5072630     1.1720280    -0.2304200
  C       -2.4668310    -1.1992430     0.2370020
  C        3.1277520     0.5983640     0.2378140
  C       -3.1875810    -0.0227020     0.0140150
  C        2.9917500    -0.7051290    -0.2688550
  H       -0.5788940     2.1134690    -0.4901430
  H       -0.4926250    -2.0861370     0.4161180
  H        1.4325560     1.9713960     0.8093900
  H       -3.0617120     2.0872770    -0.4220560
  H       -2.9921950    -2.1322260     0.4251330
  H        4.0379080     1.1354570     0.4652770
  H       -4.2743140    -0.0387150     0.0221240
  H        3.7631710    -1.4121260    -0.5458550
units angstrom
no_reorient  #important for SAPT in psi4, default
symmetry c1  #important for SAPT in psi4, default
}

set PROPERTIES_ORIGIN ["COM"]
properties('MP2/aug-cc-pvtz', properties = ['dipole'])
--------------------------------------------------------------------------

    Molecular point group: c1
  Charge       = 0
  Multiplicity = 1
  Basis Set: AUG-CC-PVTZ
    Blend: AUG-CC-PVTZ
  Basis Set: (AUG-CC-PVTZ AUX)
    Blend: AUG-CC-PVTZ-JKFIT

    Orbital Energies [Eh]
    ---------------------

    Doubly Occupied:

       1A    -15.649220     2A    -15.589575     3A    -11.294449
       4A    -11.281494     5A    -11.258444     6A    -11.257675
       7A    -11.248921     8A    -11.248761     9A    -11.242029
      10A    -11.241689    11A    -11.227309    12A     -1.381598
      13A     -1.172054    14A     -1.107783    15A     -1.062662
      16A     -1.018683    17A     -0.998567    18A     -0.862469
      19A     -0.849846    20A     -0.798315    21A     -0.773945
      22A     -0.742732    23A     -0.692532    24A     -0.652433
      25A     -0.643214    26A     -0.615053    27A     -0.602245
      28A     -0.591647    29A     -0.584422    30A     -0.562474
      31A     -0.521181    32A     -0.508476    33A     -0.505039
      34A     -0.462337    35A     -0.395066    36A     -0.348564
      37A     -0.338785    38A     -0.315118

  @DF-RHF Final Energy:  -454.47403893423365

   => Energetics <=

    Nuclear Repulsion Energy =            545.6704207245447833
    One-Electron Energy =               -1696.9953068890586110
    Two-Electron Energy =                 696.8508472302802375
    Total Energy =                       -454.4740389342335902
  Basis Set: (AUG-CC-PVTZ AUX)
    Blend: AUG-CC-PVTZ-RI
    Molecular point group: c1

    Geometry (in Angstrom), charge = 0, multiplicity = 1:

       Center              X                  Y                   Z               Mass
    ------------   -----------------  -----------------  -----------------  -----------------
         N            0.989778950650     0.040846856367     0.006260331037    14.003074004430
         N            1.677659950650    -1.049110143633    -0.412518668963    14.003074004430
         C           -0.428514049350     0.023909856367    -0.002646668963    12.000000000000
         C           -1.048707949350     1.249645156367    -0.257755268963    12.000000000000
         C           -1.095064049350    -1.178992143633     0.244261331037    12.000000000000
         C            1.809169950650     1.058408856367     0.412611331037    12.000000000000
         C           -2.529387049350     1.179551856367    -0.224965668963    12.000000000000
         C           -2.488955049350    -1.191719143633     0.242456331037    12.000000000000
         C            3.105627950650     0.605887856367     0.243268331037    12.000000000000
         C           -3.209705049350    -0.015178143633     0.019469331037    12.000000000000
         C            2.969625950650    -0.697605143633    -0.263400668963    12.000000000000
         H           -0.601018049350     2.120992856367    -0.484688668963     1.007825032230
         H           -0.514749049350    -2.078613143633     0.421572331037     1.007825032230
         H            1.410431950650     1.978919856367     0.814844331037     1.007825032230
         H           -3.083836049350     2.094800856367    -0.416601668963     1.007825032230
         H           -3.014319049350    -2.124702143633     0.430587331037     1.007825032230
         H            4.015783950650     1.142980856367     0.470731331037     1.007825032230
         H           -4.296438049350    -0.031191143633     0.027578331037     1.007825032230
         H            3.741046950650    -1.404602143633    -0.540400668963     1.007825032230

  Basis Set: AUG-CC-PVTZ
    Blend: AUG-CC-PVTZ
  Basis Set: (AUG-CC-PVTZ AUX)
    Blend: AUG-CC-PVTZ-JKFIT
	 Reference Energy          =    -454.4740389342336471 [Eh]
	 Singles Energy            =      -0.0000000000000000 [Eh]
	 Same-Spin Energy          =      -0.5098305721703794 [Eh]
	 Opposite-Spin Energy      =      -1.5492659151119939 [Eh]
	 Correlation Energy        =      -2.0590964872823734 [Eh]
	 Total Energy              =    -456.5331354215160218 [Eh]

	 ================> DF-SCS-MP2 Energies <==================
	-----------------------------------------------------------
	 SCS Same-Spin Scale       =       0.3333333333333333 [-]
	 SCS Opposite-Spin Scale   =       1.2000000000000000 [-]
	 SCS Same-Spin Energy      =      -0.1699435240567931 [Eh]
	 SCS Opposite-Spin Energy  =      -1.8591190981343926 [Eh]
	 SCS Correlation Energy    =      -2.0290626221911858 [Eh]
	 SCS Total Energy          =    -456.5031015564248378 [Eh]
	-----------------------------------------------------------

  Dipole Moment: [D]
     X:    -0.9536      Y:     1.6187      Z:     0.7365     Total:     2.0179

*** Psi4 exiting successfully. Buy a developer a beer!
