                               Psi4 1.3.2 release

  ==> Input File <==

--------------------------------------------------------------------------
#psi4
#
memory 32 gb

molecule  {
0 1
  N        1.0119030     0.0333230     0.0008060
  N        1.6997840    -1.0566340    -0.4179730
  C       -0.4488516    -0.0065227    -0.0009881
  C       -1.1124080     1.1967220    -0.2540550
  C       -1.0729400    -1.1865160     0.2388070
  C        1.8312940     1.0508850     0.4071570
  C       -2.5072630     1.1720280    -0.2304200
  C       -2.4668310    -1.1992430     0.2370020
  C        3.1277520     0.5983640     0.2378140
  C       -3.1875810    -0.0227020     0.0140150
  C        2.9917500    -0.7051290    -0.2688550
  H       -0.5788940     2.1134690    -0.4901430
  H       -0.4926250    -2.0861370     0.4161180
  H        1.4325560     1.9713960     0.8093900
  H       -3.0617120     2.0872770    -0.4220560
  H       -2.9921950    -2.1322260     0.4251330
  H        4.0379080     1.1354570     0.4652770
  H       -4.2743140    -0.0387150     0.0221240
  H        3.7631710    -1.4121260    -0.5458550
units angstrom
no_reorient  #important for SAPT in psi4, default
symmetry c1  #important for SAPT in psi4, default
}

set PROPERTIES_ORIGIN ["COM"]
properties('MP2/aug-cc-pvtz', properties = ['dipole'])
--------------------------------------------------------------------------

    Molecular point group: c1
  Charge       = 0
  Multiplicity = 1
  Basis Set: AUG-CC-PVTZ
    Blend: AUG-CC-PVTZ
  Basis Set: (AUG-CC-PVTZ AUX)
    Blend: AUG-CC-PVTZ-JKFIT

    Orbital Energies [Eh]
    ---------------------

    Doubly Occupied:

       1A    -15.649206     2A    -15.588026     3A    -11.291274
       4A    -11.280068     5A    -11.256446     6A    -11.249759
       7A    -11.248417     8A    -11.247911     9A    -11.242340
      10A    -11.238379    11A    -11.225373    12A     -1.375515
      13A     -1.178380    14A     -1.104382    15A     -1.061421
      16A     -1.028592    17A     -1.000910    18A     -0.856066
      19A     -0.848776    20A     -0.795970    21A     -0.776286
      22A     -0.741213    23A     -0.687013    24A     -0.649175
      25A     -0.639530    26A     -0.614705    27A     -0.599997
      28A     -0.590317    29A     -0.586974    30A     -0.561379
      31A     -0.518753    32A     -0.515289    33A     -0.511247
      34A     -0.460672    35A     -0.391637    36A     -0.349931
      37A     -0.345823    38A     -0.317740

  @DF-RHF Final Energy:  -454.48530221708131

   => Energetics <=

    Nuclear Repulsion Energy =            546.3007854753379888
    One-Electron Energy =               -1698.3223937688323986
    Two-Electron Energy =                 697.5363060764130978
    Total Energy =                       -454.4853022170813119
  Basis Set: (AUG-CC-PVTZ AUX)
    Blend: AUG-CC-PVTZ-RI
    Molecular point group: c1

    Geometry (in Angstrom), charge = 0, multiplicity = 1:

       Center              X                  Y                   Z               Mass
    ------------   -----------------  -----------------  -----------------  -----------------
         N            1.000464324255     0.046536473371     0.004905352929    14.003074004430
         N            1.688345324255    -1.043420526629    -0.413873647071    14.003074004430
         C           -0.460290275745     0.006690773371     0.003111252929    12.000000000000
         C           -1.123846675745     1.209935473371    -0.249955647071    12.000000000000
         C           -1.084378675745    -1.173302526629     0.242906352929    12.000000000000
         C            1.819855324255     1.064098473371     0.411256352929    12.000000000000
         C           -2.518701675745     1.185241473371    -0.226320647071    12.000000000000
         C           -2.478269675745    -1.186029526629     0.241101352929    12.000000000000
         C            3.116313324255     0.611577473371     0.241913352929    12.000000000000
         C           -3.199019675745    -0.009488526629     0.018114352929    12.000000000000
         C            2.980311324255    -0.691915526629    -0.264755647071    12.000000000000
         H           -0.590332675745     2.126682473371    -0.486043647071     1.007825032230
         H           -0.504063675745    -2.072923526629     0.420217352929     1.007825032230
         H            1.421117324255     1.984609473371     0.813489352929     1.007825032230
         H           -3.073150675745     2.100490473371    -0.417956647071     1.007825032230
         H           -3.003633675745    -2.119012526629     0.429232352929     1.007825032230
         H            4.026469324255     1.148670473371     0.469376352929     1.007825032230
         H           -4.285752675745    -0.025501526629     0.026223352929     1.007825032230
         H            3.751732324255    -1.398912526629    -0.541755647071     1.007825032230

  Basis Set: AUG-CC-PVTZ
    Blend: AUG-CC-PVTZ
  Basis Set: (AUG-CC-PVTZ AUX)
    Blend: AUG-CC-PVTZ-JKFIT
	 Reference Energy          =    -454.4853022170813119 [Eh]
	 Singles Energy            =      -0.0000000000000000 [Eh]
	 Same-Spin Energy          =      -0.5095646112666232 [Eh]
	 Opposite-Spin Energy      =      -1.5478136347145754 [Eh]
	 Correlation Energy        =      -2.0573782459811989 [Eh]
	 Total Energy              =    -456.5426804630625384 [Eh]

	 ================> DF-SCS-MP2 Energies <==================
	-----------------------------------------------------------
	 SCS Same-Spin Scale       =       0.3333333333333333 [-]
	 SCS Opposite-Spin Scale   =       1.2000000000000000 [-]
	 SCS Same-Spin Energy      =      -0.1698548704222077 [Eh]
	 SCS Opposite-Spin Energy  =      -1.8573763616574905 [Eh]
	 SCS Correlation Energy    =      -2.0272312320796981 [Eh]
	 SCS Total Energy          =    -456.5125334491610261 [Eh]
	-----------------------------------------------------------

  Dipole Moment: [D]
     X:    -1.1332      Y:     1.6315      Z:     0.7424     Total:     2.1206

*** Psi4 exiting successfully. Buy a developer a beer!
