                               Psi4 1.3.2 release

  ==> Input File <==

--------------------------------------------------------------------------
#psi4
#
memory 32 gb

molecule  {
0 1
  N        1.0119030     0.0333230     0.0008060
  N        1.6763029    -0.9720141    -0.3843507
  C       -0.4063900     0.0163860    -0.0081010
  C       -1.1124080     1.1967220    -0.2540550
  C       -1.0729400    -1.1865160     0.2388070
  C        1.8312940     1.0508850     0.4071570
  C       -2.5072630     1.1720280    -0.2304200
  C       -2.4668310    -1.1992430     0.2370020
  C        3.1277520     0.5983640     0.2378140
  C       -3.1875810    -0.0227020     0.0140150
  C        2.9917500    -0.7051290    -0.2688550
  H       -0.5788940     2.1134690    -0.4901430
  H       -0.4926250    -2.0861370     0.4161180
  H        1.4325560     1.9713960     0.8093900
  H       -3.0617120     2.0872770    -0.4220560
  H       -2.9921950    -2.1322260     0.4251330
  H        4.0379080     1.1354570     0.4652770
  H       -4.2743140    -0.0387150     0.0221240
  H        3.7631710    -1.4121260    -0.5458550
units angstrom
no_reorient  #important for SAPT in psi4, default
symmetry c1  #important for SAPT in psi4, default
}

set PROPERTIES_ORIGIN ["COM"]
properties('MP2/aug-cc-pvtz', properties = ['dipole'])
--------------------------------------------------------------------------

    Molecular point group: c1
  Charge       = 0
  Multiplicity = 1
  Basis Set: AUG-CC-PVTZ
    Blend: AUG-CC-PVTZ
  Basis Set: (AUG-CC-PVTZ AUX)
    Blend: AUG-CC-PVTZ-JKFIT

    Orbital Energies [Eh]
    ---------------------

    Doubly Occupied:

       1A    -15.657125     2A    -15.582024     3A    -11.293439
       4A    -11.269846     5A    -11.251829     6A    -11.250180
       7A    -11.248970     8A    -11.247824     9A    -11.243950
      10A    -11.243470    11A    -11.226966    12A     -1.421767
      13A     -1.178244    14A     -1.109137    15A     -1.065985
      16A     -1.026075    17A     -1.003425    18A     -0.864950
      19A     -0.851930    20A     -0.806856    21A     -0.775230
      22A     -0.741518    23A     -0.689306    24A     -0.657819
      25A     -0.646915    26A     -0.623717    27A     -0.605669
      28A     -0.599148    29A     -0.589403    30A     -0.561171
      31A     -0.523175    32A     -0.513565    33A     -0.508301
      34A     -0.448661    35A     -0.393015    36A     -0.349310
      37A     -0.343968    38A     -0.314576

  @DF-RHF Final Energy:  -454.48482321260462

   => Energetics <=

    Nuclear Repulsion Energy =            548.9906805901872531
    One-Electron Energy =               -1703.4940919813363962
    Two-Electron Energy =                 700.0185881785446327
    Total Energy =                       -454.4848232126046241
  Basis Set: (AUG-CC-PVTZ AUX)
    Blend: AUG-CC-PVTZ-RI
    Molecular point group: c1

    Geometry (in Angstrom), charge = 0, multiplicity = 1:

       Center              X                  Y                   Z               Mass
    ------------   -----------------  -----------------  -----------------  -----------------
         N            0.999209842480     0.036403511577     0.002229819479    14.003074004430
         N            1.663609742480    -0.968933588423    -0.382926880521    14.003074004430
         C           -0.419083157520     0.019466511577    -0.006677180521    12.000000000000
         C           -1.125101157520     1.199802511577    -0.252631180521    12.000000000000
         C           -1.085633157520    -1.183435488423     0.240230819479    12.000000000000
         C            1.818600842480     1.053965511577     0.408580819479    12.000000000000
         C           -2.519956157520     1.175108511577    -0.228996180521    12.000000000000
         C           -2.479524157520    -1.196162488423     0.238425819479    12.000000000000
         C            3.115058842480     0.601444511577     0.239237819479    12.000000000000
         C           -3.200274157520    -0.019621488423     0.015438819479    12.000000000000
         C            2.979056842480    -0.702048488423    -0.267431180521    12.000000000000
         H           -0.591587157520     2.116549511577    -0.488719180521     1.007825032230
         H           -0.505318157520    -2.083056488423     0.417541819479     1.007825032230
         H            1.419862842480     1.974476511577     0.810813819479     1.007825032230
         H           -3.074405157520     2.090357511577    -0.420632180521     1.007825032230
         H           -3.004888157520    -2.129145488423     0.426556819479     1.007825032230
         H            4.025214842480     1.138537511577     0.466700819479     1.007825032230
         H           -4.287007157520    -0.035634488423     0.023547819479     1.007825032230
         H            3.750477842480    -1.409045488423    -0.544431180521     1.007825032230

  Basis Set: AUG-CC-PVTZ
    Blend: AUG-CC-PVTZ
  Basis Set: (AUG-CC-PVTZ AUX)
    Blend: AUG-CC-PVTZ-JKFIT
	 Reference Energy          =    -454.4848232126046241 [Eh]
	 Singles Energy            =      -0.0000000000000000 [Eh]
	 Same-Spin Energy          =      -0.5095498213480921 [Eh]
	 Opposite-Spin Energy      =      -1.5452798067596869 [Eh]
	 Correlation Energy        =      -2.0548296281077789 [Eh]
	 Total Energy              =    -456.5396528407123924 [Eh]

	 ================> DF-SCS-MP2 Energies <==================
	-----------------------------------------------------------
	 SCS Same-Spin Scale       =       0.3333333333333333 [-]
	 SCS Opposite-Spin Scale   =       1.2000000000000000 [-]
	 SCS Same-Spin Energy      =      -0.1698499404493640 [Eh]
	 SCS Opposite-Spin Energy  =      -1.8543357681116241 [Eh]
	 SCS Correlation Energy    =      -2.0241857085609882 [Eh]
	 SCS Total Energy          =    -456.5090089211656164 [Eh]
	-----------------------------------------------------------

  Dipole Moment: [D]
     X:    -1.0452      Y:     1.4998      Z:     0.6801     Total:     1.9505

*** Psi4 exiting successfully. Buy a developer a beer!
