                               Psi4 1.3.2 release

  ==> Input File <==

--------------------------------------------------------------------------
#psi4
#
memory 32 gb

molecule  {
0 1
  N        1.0119030     0.0333230     0.0008060
  N        1.6933205    -1.0355338    -0.4098575
  C       -0.4063900     0.0163860    -0.0081010
  C       -1.1124080     1.1967220    -0.2540550
  C       -1.0729400    -1.1865160     0.2388070
  C        1.8312940     1.0508850     0.4071570
  C       -2.5072630     1.1720280    -0.2304200
  C       -2.4668310    -1.1992430     0.2370020
  C        3.1277520     0.5983640     0.2378140
  C       -3.1875810    -0.0227020     0.0140150
  C        2.9917500    -0.7051290    -0.2688550
  H       -0.5788940     2.1134690    -0.4901430
  H       -0.4926250    -2.0861370     0.4161180
  H        1.4325560     1.9713960     0.8093900
  H       -3.0617120     2.0872770    -0.4220560
  H       -2.9921950    -2.1322260     0.4251330
  H        4.0379080     1.1354570     0.4652770
  H       -4.2743140    -0.0387150     0.0221240
  H        3.7631710    -1.4121260    -0.5458550
units angstrom
no_reorient  #important for SAPT in psi4, default
symmetry c1  #important for SAPT in psi4, default
}

set PROPERTIES_ORIGIN ["COM"]
properties('MP2/aug-cc-pvtz', properties = ['dipole'])
--------------------------------------------------------------------------

    Molecular point group: c1
  Charge       = 0
  Multiplicity = 1
  Basis Set: AUG-CC-PVTZ
    Blend: AUG-CC-PVTZ
  Basis Set: (AUG-CC-PVTZ AUX)
    Blend: AUG-CC-PVTZ-JKFIT

    Orbital Energies [Eh]
    ---------------------

    Doubly Occupied:

       1A    -15.653230     2A    -15.588520     3A    -11.292190
       4A    -11.279529     5A    -11.257687     6A    -11.248672
       7A    -11.247318     8A    -11.246420     9A    -11.241723
      10A    -11.241515    11A    -11.227801    12A     -1.391420
      13A     -1.176156    14A     -1.109869    15A     -1.064420
      16A     -1.024835    17A     -0.999502    18A     -0.861563
      19A     -0.848938    20A     -0.799696    21A     -0.776863
      22A     -0.742492    23A     -0.687397    24A     -0.650805
      25A     -0.641355    26A     -0.617577    27A     -0.598173
      28A     -0.596535    29A     -0.589329    30A     -0.563396
      31A     -0.520960    32A     -0.511486    33A     -0.507244
      34A     -0.459702    35A     -0.394325    36A     -0.349140
      37A     -0.346169    38A     -0.313675

  @DF-RHF Final Energy:  -454.48888839399109

   => Energetics <=

    Nuclear Repulsion Energy =            547.0063568664469358
    One-Electron Energy =               -1699.6552366479481861
    Two-Electron Energy =                 698.1599913875102175
    Total Energy =                       -454.4888883939911466
  Basis Set: (AUG-CC-PVTZ AUX)
    Blend: AUG-CC-PVTZ-RI
    Molecular point group: c1

    Geometry (in Angstrom), charge = 0, multiplicity = 1:

       Center              X                  Y                   Z               Mass
    ------------   -----------------  -----------------  -----------------  -----------------
         N            0.997555779993     0.042577446386     0.004709008146    14.003074004430
         N            1.678973279993    -1.026279353614    -0.405954491854    14.003074004430
         C           -0.420737220007     0.025640446386    -0.004197991854    12.000000000000
         C           -1.126755220007     1.205976446386    -0.250151991854    12.000000000000
         C           -1.087287220007    -1.177261553614     0.242710008146    12.000000000000
         C            1.816946779993     1.060139446386     0.411060008146    12.000000000000
         C           -2.521610220007     1.181282446386    -0.226516991854    12.000000000000
         C           -2.481178220007    -1.189988553614     0.240905008146    12.000000000000
         C            3.113404779993     0.607618446386     0.241717008146    12.000000000000
         C           -3.201928220007    -0.013447553614     0.017918008146    12.000000000000
         C            2.977402779993    -0.695874553614    -0.264951991854    12.000000000000
         H           -0.593241220007     2.122723446386    -0.486239991854     1.007825032230
         H           -0.506972220007    -2.076882553614     0.420021008146     1.007825032230
         H            1.418208779993     1.980650446386     0.813293008146     1.007825032230
         H           -3.076059220007     2.096531446386    -0.418152991854     1.007825032230
         H           -3.006542220007    -2.122971553614     0.429036008146     1.007825032230
         H            4.023560779993     1.144711446386     0.469180008146     1.007825032230
         H           -4.288661220007    -0.029460553614     0.026027008146     1.007825032230
         H            3.748823779993    -1.402871553614    -0.541951991854     1.007825032230

  Basis Set: AUG-CC-PVTZ
    Blend: AUG-CC-PVTZ
  Basis Set: (AUG-CC-PVTZ AUX)
    Blend: AUG-CC-PVTZ-JKFIT
	 Reference Energy          =    -454.4888883939910897 [Eh]
	 Singles Energy            =      -0.0000000000000000 [Eh]
	 Same-Spin Energy          =      -0.5096371671204789 [Eh]
	 Opposite-Spin Energy      =      -1.5472291125230173 [Eh]
	 Correlation Energy        =      -2.0568662796434962 [Eh]
	 Total Energy              =    -456.5457546736345762 [Eh]

	 ================> DF-SCS-MP2 Energies <==================
	-----------------------------------------------------------
	 SCS Same-Spin Scale       =       0.3333333333333333 [-]
	 SCS Opposite-Spin Scale   =       1.2000000000000000 [-]
	 SCS Same-Spin Energy      =      -0.1698790557068263 [Eh]
	 SCS Opposite-Spin Energy  =      -1.8566749350276206 [Eh]
	 SCS Correlation Energy    =      -2.0265539907344468 [Eh]
	 SCS Total Energy          =    -456.5154423847255316 [Eh]
	-----------------------------------------------------------

  Dipole Moment: [D]
     X:    -0.9237      Y:     1.6084      Z:     0.7266     Total:     1.9920

*** Psi4 exiting successfully. Buy a developer a beer!
