                               Psi4 1.3.2 release

  ==> Input File <==

--------------------------------------------------------------------------
#psi4
#
memory 32 gb

molecule  {
0 1
  N        1.0119030     0.0333230     0.0008060
  N        1.7295595    -1.1395414    -0.4508688
  C       -0.4063900     0.0163860    -0.0081010
  C       -1.1124080     1.1967220    -0.2540550
  C       -1.0729400    -1.1865160     0.2388070
  C        1.8312940     1.0508850     0.4071570
  C       -2.5072630     1.1720280    -0.2304200
  C       -2.4668310    -1.1992430     0.2370020
  C        3.1277520     0.5983640     0.2378140
  C       -3.1875810    -0.0227020     0.0140150
  C        2.9917500    -0.7051290    -0.2688550
  H       -0.5788940     2.1134690    -0.4901430
  H       -0.4926250    -2.0861370     0.4161180
  H        1.4325560     1.9713960     0.8093900
  H       -3.0617120     2.0872770    -0.4220560
  H       -2.9921950    -2.1322260     0.4251330
  H        4.0379080     1.1354570     0.4652770
  H       -4.2743140    -0.0387150     0.0221240
  H        3.7631710    -1.4121260    -0.5458550
units angstrom
no_reorient  #important for SAPT in psi4, default
symmetry c1  #important for SAPT in psi4, default
}

set PROPERTIES_ORIGIN ["COM"]
properties('MP2/aug-cc-pvtz', properties = ['dipole'])
--------------------------------------------------------------------------

    Molecular point group: c1
  Charge       = 0
  Multiplicity = 1
  Basis Set: AUG-CC-PVTZ
    Blend: AUG-CC-PVTZ
  Basis Set: (AUG-CC-PVTZ AUX)
    Blend: AUG-CC-PVTZ-JKFIT

    Orbital Energies [Eh]
    ---------------------

    Doubly Occupied:

       1A    -15.645681     2A    -15.600095     3A    -11.293416
       4A    -11.289841     5A    -11.267462     6A    -11.246626
       7A    -11.244491     8A    -11.244370     9A    -11.238678
      10A    -11.238370    11A    -11.229048    12A     -1.351921
      13A     -1.173422    14A     -1.113190    15A     -1.062515
      16A     -1.022968    17A     -0.993122    18A     -0.858535
      19A     -0.844278    20A     -0.788727    21A     -0.780481
      22A     -0.742343    23A     -0.684517    24A     -0.644090
      25A     -0.635344    26A     -0.607241    27A     -0.594798
      28A     -0.591296    29A     -0.581279    30A     -0.561069
      31A     -0.518350    32A     -0.508370    33A     -0.506448
      34A     -0.472992    35A     -0.398722    36A     -0.354119
      37A     -0.345334    38A     -0.309514

  @DF-RHF Final Energy:  -454.47690787635918

   => Energetics <=

    Nuclear Repulsion Energy =            543.8882402202430058
    One-Electron Energy =               -1693.5641673900026944
    Two-Electron Energy =                 695.1990192934005108
    Total Energy =                       -454.4769078763591779
  Basis Set: (AUG-CC-PVTZ AUX)
    Blend: AUG-CC-PVTZ-RI
    Molecular point group: c1

    Geometry (in Angstrom), charge = 0, multiplicity = 1:

       Center              X                  Y                   Z               Mass
    ------------   -----------------  -----------------  -----------------  -----------------
         N            0.994033451903     0.052686690322     0.008695190270    14.003074004430
         N            1.711689951903    -1.120177709678    -0.442979609730    14.003074004430
         C           -0.424259548097     0.035749690322    -0.000211809730    12.000000000000
         C           -1.130277548097     1.216085690322    -0.246165809730    12.000000000000
         C           -1.090809548097    -1.167152309678     0.246696190270    12.000000000000
         C            1.813424451903     1.070248690322     0.415046190270    12.000000000000
         C           -2.525132548097     1.191391690322    -0.222530809730    12.000000000000
         C           -2.484700548097    -1.179879309678     0.244891190270    12.000000000000
         C            3.109882451903     0.617727690322     0.245703190270    12.000000000000
         C           -3.205450548097    -0.003338309678     0.021904190270    12.000000000000
         C            2.973880451903    -0.685765309678    -0.260965809730    12.000000000000
         H           -0.596763548097     2.132832690322    -0.482253809730     1.007825032230
         H           -0.510494548097    -2.066773309678     0.424007190270     1.007825032230
         H            1.414686451903     1.990759690322     0.817279190270     1.007825032230
         H           -3.079581548097     2.106640690322    -0.414166809730     1.007825032230
         H           -3.010064548097    -2.112862309678     0.433022190270     1.007825032230
         H            4.020038451903     1.154820690322     0.473166190270     1.007825032230
         H           -4.292183548097    -0.019351309678     0.030013190270     1.007825032230
         H            3.745301451903    -1.392762309678    -0.537965809730     1.007825032230

  Basis Set: AUG-CC-PVTZ
    Blend: AUG-CC-PVTZ
  Basis Set: (AUG-CC-PVTZ AUX)
    Blend: AUG-CC-PVTZ-JKFIT
	 Reference Energy          =    -454.4769078763591779 [Eh]
	 Singles Energy            =      -0.0000000000000000 [Eh]
	 Same-Spin Energy          =      -0.5098734457339482 [Eh]
	 Opposite-Spin Energy      =      -1.5507348590867185 [Eh]
	 Correlation Energy        =      -2.0606083048206667 [Eh]
	 Total Energy              =    -456.5375161811798534 [Eh]

	 ================> DF-SCS-MP2 Energies <==================
	-----------------------------------------------------------
	 SCS Same-Spin Scale       =       0.3333333333333333 [-]
	 SCS Opposite-Spin Scale   =       1.2000000000000000 [-]
	 SCS Same-Spin Energy      =      -0.1699578152446494 [Eh]
	 SCS Opposite-Spin Energy  =      -1.8608818309040620 [Eh]
	 SCS Correlation Energy    =      -2.0308396461487113 [Eh]
	 SCS Total Energy          =    -456.5077475225078842 [Eh]
	-----------------------------------------------------------

  Dipole Moment: [D]
     X:    -0.7473      Y:     1.7292      Z:     0.7763     Total:     2.0375

*** Psi4 exiting successfully. Buy a developer a beer!
