                               Psi4 1.3.2 release

  ==> Input File <==

--------------------------------------------------------------------------
#psi4
#
memory 32 gb

molecule  {
0 1
  N        1.0119030     0.0333230     0.0008060
  N        1.6997840    -1.0566340    -0.4179730
  C       -0.4063900     0.0163860    -0.0081010
  C       -1.1124080     1.1967220    -0.2540550
  C       -1.0729400    -1.1865160     0.2388070
  C        1.8312940     1.0508850     0.4071570
  C       -2.5072630     1.1720280    -0.2304200
  C       -2.4668310    -1.1992430     0.2370020
  C        3.1277520     0.5983640     0.2378140
  C       -3.1875810    -0.0227020     0.0140150
  C        2.9673686    -0.7025364    -0.2683868
  H       -0.5788940     2.1134690    -0.4901430
  H       -0.4926250    -2.0861370     0.4161180
  H        1.4325560     1.9713960     0.8093900
  H       -3.0617120     2.0872770    -0.4220560
  H       -2.9921950    -2.1322260     0.4251330
  H        4.0379080     1.1354570     0.4652770
  H       -4.2743140    -0.0387150     0.0221240
  H        3.7631710    -1.4121260    -0.5458550
units angstrom
no_reorient  #important for SAPT in psi4, default
symmetry c1  #important for SAPT in psi4, default
}

set PROPERTIES_ORIGIN ["COM"]
properties('MP2/aug-cc-pvtz', properties = ['dipole'])
--------------------------------------------------------------------------

    Molecular point group: c1
  Charge       = 0
  Multiplicity = 1
  Basis Set: AUG-CC-PVTZ
    Blend: AUG-CC-PVTZ
  Basis Set: (AUG-CC-PVTZ AUX)
    Blend: AUG-CC-PVTZ-JKFIT

    Orbital Energies [Eh]
    ---------------------

    Doubly Occupied:

       1A    -15.650123     2A    -15.589358     3A    -11.291440
       4A    -11.283223     5A    -11.259049     6A    -11.247984
       7A    -11.246368     8A    -11.245810     9A    -11.240685
      10A    -11.240518    11A    -11.227328    12A     -1.385847
      13A     -1.176824    14A     -1.113079    15A     -1.065346
      16A     -1.024354    17A     -0.997645    18A     -0.859844
      19A     -0.847707    20A     -0.797574    21A     -0.776658
      22A     -0.743449    23A     -0.686404    24A     -0.649317
      25A     -0.639492    26A     -0.616647    27A     -0.596931
      28A     -0.593644    29A     -0.590849    30A     -0.559078
      31A     -0.519982    32A     -0.510929    33A     -0.507028
      34A     -0.464518    35A     -0.396231    36A     -0.352124
      37A     -0.346471    38A     -0.312601

  @DF-RHF Final Energy:  -454.48893173748831

   => Energetics <=

    Nuclear Repulsion Energy =            546.9089934201961114
    One-Electron Energy =               -1699.4909348251219399
    Two-Electron Energy =                 698.0930096674375136
    Total Energy =                       -454.4889317374883149
  Basis Set: (AUG-CC-PVTZ AUX)
    Blend: AUG-CC-PVTZ-RI
    Molecular point group: c1

    Geometry (in Angstrom), charge = 0, multiplicity = 1:

       Center              X                  Y                   Z               Mass
    ------------   -----------------  -----------------  -----------------  -----------------
         N            0.998958359897     0.044412379120     0.005458813697    14.003074004430
         N            1.686839359897    -1.045544620880    -0.413320186303    14.003074004430
         C           -0.419334640103     0.027475379120    -0.003448186303    12.000000000000
         C           -1.125352640103     1.207811379120    -0.249402186303    12.000000000000
         C           -1.085884640103    -1.175426620880     0.243459813697    12.000000000000
         C            1.818349359897     1.061974379120     0.411809813697    12.000000000000
         C           -2.520207640103     1.183117379120    -0.225767186303    12.000000000000
         C           -2.479775640103    -1.188153620880     0.241654813697    12.000000000000
         C            3.114807359897     0.609453379120     0.242466813697    12.000000000000
         C           -3.200525640103    -0.011612620880     0.018667813697    12.000000000000
         C            2.954423959897    -0.691447020880    -0.263733986303    12.000000000000
         H           -0.591838640103     2.124558379120    -0.485490186303     1.007825032230
         H           -0.505569640103    -2.075047620880     0.420770813697     1.007825032230
         H            1.419611359897     1.982485379120     0.814042813697     1.007825032230
         H           -3.074656640103     2.098366379120    -0.417403186303     1.007825032230
         H           -3.005139640103    -2.121136620880     0.429785813697     1.007825032230
         H            4.024963359897     1.146546379120     0.469929813697     1.007825032230
         H           -4.287258640103    -0.027625620880     0.026776813697     1.007825032230
         H            3.750226359897    -1.401036620880    -0.541202186303     1.007825032230

  Basis Set: AUG-CC-PVTZ
    Blend: AUG-CC-PVTZ
  Basis Set: (AUG-CC-PVTZ AUX)
    Blend: AUG-CC-PVTZ-JKFIT
	 Reference Energy          =    -454.4889317374883149 [Eh]
	 Singles Energy            =      -0.0000000000000000 [Eh]
	 Same-Spin Energy          =      -0.5091443193841152 [Eh]
	 Opposite-Spin Energy      =      -1.5468680025591430 [Eh]
	 Correlation Energy        =      -2.0560123219432582 [Eh]
	 Total Energy              =    -456.5449440594316002 [Eh]

	 ================> DF-SCS-MP2 Energies <==================
	-----------------------------------------------------------
	 SCS Same-Spin Scale       =       0.3333333333333333 [-]
	 SCS Opposite-Spin Scale   =       1.2000000000000000 [-]
	 SCS Same-Spin Energy      =      -0.1697147731280384 [Eh]
	 SCS Opposite-Spin Energy  =      -1.8562416030709716 [Eh]
	 SCS Correlation Energy    =      -2.0259563761990100 [Eh]
	 SCS Total Energy          =    -456.5148881136873342 [Eh]
	-----------------------------------------------------------

  Dipole Moment: [D]
     X:    -0.8610      Y:     1.6415      Z:     0.7399     Total:     1.9958

*** Psi4 exiting successfully. Buy a developer a beer!
