                               Psi4 1.3.2 release

  ==> Input File <==

--------------------------------------------------------------------------
#psi4
#
memory 32 gb

molecule  {
0 1
  N        1.0119030     0.0333230     0.0008060
  N        1.7295518    -1.1399004    -0.4499562
  C       -0.4063900     0.0163860    -0.0081010
  C       -1.1124080     1.1967220    -0.2540550
  C       -1.0729400    -1.1865160     0.2388070
  C        1.8312940     1.0508850     0.4071570
  C       -2.5072630     1.1720280    -0.2304200
  C       -2.4668310    -1.1992430     0.2370020
  C        3.1277520     0.5983640     0.2378140
  C       -3.1875810    -0.0227020     0.0140150
  C        2.9917500    -0.7051290    -0.2688550
  H       -0.5788940     2.1134690    -0.4901430
  H       -0.4926250    -2.0861370     0.4161180
  H        1.4325560     1.9713960     0.8093900
  H       -3.0617120     2.0872770    -0.4220560
  H       -2.9921950    -2.1322260     0.4251330
  H        4.0379080     1.1354570     0.4652770
  H       -4.2743140    -0.0387150     0.0221240
  H        3.7631710    -1.4121260    -0.5458550
units angstrom
no_reorient  #important for SAPT in psi4, default
symmetry c1  #important for SAPT in psi4, default
}

set PROPERTIES_ORIGIN ["COM"]
properties('MP2/aug-cc-pvtz', properties = ['dipole'])
--------------------------------------------------------------------------

    Molecular point group: c1
  Charge       = 0
  Multiplicity = 1
  Basis Set: AUG-CC-PVTZ
    Blend: AUG-CC-PVTZ
  Basis Set: (AUG-CC-PVTZ AUX)
    Blend: AUG-CC-PVTZ-JKFIT

    Orbital Energies [Eh]
    ---------------------

    Doubly Occupied:

       1A    -15.645688     2A    -15.600098     3A    -11.293420
       4A    -11.289844     5A    -11.267469     6A    -11.246624
       7A    -11.244488     8A    -11.244367     9A    -11.238671
      10A    -11.238362    11A    -11.229052    12A     -1.351925
      13A     -1.173421    14A     -1.113191    15A     -1.062520
      16A     -1.022965    17A     -0.993121    18A     -0.858535
      19A     -0.844280    20A     -0.788726    21A     -0.780480
      22A     -0.742346    23A     -0.684513    24A     -0.644082
      25A     -0.635341    26A     -0.607257    27A     -0.594799
      28A     -0.591296    29A     -0.581286    30A     -0.561059
      31A     -0.518349    32A     -0.508371    33A     -0.506450
      34A     -0.472989    35A     -0.398737    36A     -0.354126
      37A     -0.345331    38A     -0.309499

  @DF-RHF Final Energy:  -454.47690876547830

   => Energetics <=

    Nuclear Repulsion Energy =            543.8888196670377511
    One-Electron Energy =               -1693.5652996095770959
    Two-Electron Energy =                 695.1995711770609887
    Total Energy =                       -454.4769087654783561
  Basis Set: (AUG-CC-PVTZ AUX)
    Blend: AUG-CC-PVTZ-RI
    Molecular point group: c1

    Geometry (in Angstrom), charge = 0, multiplicity = 1:

       Center              X                  Y                   Z               Mass
    ------------   -----------------  -----------------  -----------------  -----------------
         N            0.994034200321     0.052721584105     0.008606488136    14.003074004430
         N            1.711683000321    -1.120501815895    -0.442155711864    14.003074004430
         C           -0.424258799679     0.035784584105    -0.000300511864    12.000000000000
         C           -1.130276799679     1.216120584105    -0.246254511864    12.000000000000
         C           -1.090808799679    -1.167117415895     0.246607488136    12.000000000000
         C            1.813425200321     1.070283584105     0.414957488136    12.000000000000
         C           -2.525131799679     1.191426584105    -0.222619511864    12.000000000000
         C           -2.484699799679    -1.179844415895     0.244802488136    12.000000000000
         C            3.109883200321     0.617762584105     0.245614488136    12.000000000000
         C           -3.205449799679    -0.003303415895     0.021815488136    12.000000000000
         C            2.973881200321    -0.685730415895    -0.261054511864    12.000000000000
         H           -0.596762799679     2.132867584105    -0.482342511864     1.007825032230
         H           -0.510493799679    -2.066738415895     0.423918488136     1.007825032230
         H            1.414687200321     1.990794584105     0.817190488136     1.007825032230
         H           -3.079580799679     2.106675584105    -0.414255511864     1.007825032230
         H           -3.010063799679    -2.112827415895     0.432933488136     1.007825032230
         H            4.020039200321     1.154855584105     0.473077488136     1.007825032230
         H           -4.292182799679    -0.019316415895     0.029924488136     1.007825032230
         H            3.745302200321    -1.392727415895    -0.538054511864     1.007825032230

  Basis Set: AUG-CC-PVTZ
    Blend: AUG-CC-PVTZ
  Basis Set: (AUG-CC-PVTZ AUX)
    Blend: AUG-CC-PVTZ-JKFIT
	 Reference Energy          =    -454.4769087654782993 [Eh]
	 Singles Energy            =      -0.0000000000000000 [Eh]
	 Same-Spin Energy          =      -0.5098736995640631 [Eh]
	 Opposite-Spin Energy      =      -1.5507350892818534 [Eh]
	 Correlation Energy        =      -2.0606087888459168 [Eh]
	 Total Energy              =    -456.5375175543242108 [Eh]

	 ================> DF-SCS-MP2 Energies <==================
	-----------------------------------------------------------
	 SCS Same-Spin Scale       =       0.3333333333333333 [-]
	 SCS Opposite-Spin Scale   =       1.2000000000000000 [-]
	 SCS Same-Spin Energy      =      -0.1699578998546877 [Eh]
	 SCS Opposite-Spin Energy  =      -1.8608821071382240 [Eh]
	 SCS Correlation Energy    =      -2.0308400069929116 [Eh]
	 SCS Total Energy          =    -456.5077487724711887 [Eh]
	-----------------------------------------------------------

  Dipole Moment: [D]
     X:    -0.7466      Y:     1.7295      Z:     0.7755     Total:     2.0371

*** Psi4 exiting successfully. Buy a developer a beer!
