                               Psi4 1.3.2 release

  ==> Input File <==

--------------------------------------------------------------------------
#psi4
#
memory 32 gb

molecule  {
0 1
  N        1.0025839     0.1785167    -0.0287739
  N        1.6997840    -1.0566340    -0.4179730
  C       -0.4063900     0.0163860    -0.0081010
  C       -1.1124080     1.1967220    -0.2540550
  C       -1.0729400    -1.1865160     0.2388070
  C        1.8312940     1.0508850     0.4071570
  C       -2.5072630     1.1720280    -0.2304200
  C       -2.4668310    -1.1992430     0.2370020
  C        3.1277520     0.5983640     0.2378140
  C       -3.1875810    -0.0227020     0.0140150
  C        2.9917500    -0.7051290    -0.2688550
  H       -0.5788940     2.1134690    -0.4901430
  H       -0.4926250    -2.0861370     0.4161180
  H        1.4325560     1.9713960     0.8093900
  H       -3.0617120     2.0872770    -0.4220560
  H       -2.9921950    -2.1322260     0.4251330
  H        4.0379080     1.1354570     0.4652770
  H       -4.2743140    -0.0387150     0.0221240
  H        3.7631710    -1.4121260    -0.5458550
units angstrom
no_reorient  #important for SAPT in psi4, default
symmetry c1  #important for SAPT in psi4, default
}

set PROPERTIES_ORIGIN ["COM"]
properties('MP2/aug-cc-pvtz', properties = ['dipole'])
--------------------------------------------------------------------------

    Molecular point group: c1
  Charge       = 0
  Multiplicity = 1
  Basis Set: AUG-CC-PVTZ
    Blend: AUG-CC-PVTZ
  Basis Set: (AUG-CC-PVTZ AUX)
    Blend: AUG-CC-PVTZ-JKFIT

    Orbital Energies [Eh]
    ---------------------

    Doubly Occupied:

       1A    -15.645362     2A    -15.586644     3A    -11.293675
       4A    -11.284996     5A    -11.267580     6A    -11.246925
       7A    -11.246821     8A    -11.244448     9A    -11.243673
      10A    -11.241151    11A    -11.220170    12A     -1.365352
      13A     -1.174790    14A     -1.122237    15A     -1.062278
      16A     -1.024977    17A     -0.994933    18A     -0.864349
      19A     -0.847442    20A     -0.793028    21A     -0.778544
      22A     -0.745019    23A     -0.686166    24A     -0.648254
      25A     -0.638015    26A     -0.612501    27A     -0.602181
      28A     -0.596503    29A     -0.567912    30A     -0.565615
      31A     -0.521847    32A     -0.510171    33A     -0.505192
      34A     -0.456662    35A     -0.404749    36A     -0.350111
      37A     -0.346546    38A     -0.310421

  @DF-RHF Final Energy:  -454.46833981226388

   => Energetics <=

    Nuclear Repulsion Energy =            545.9459213234252957
    One-Electron Energy =               -1697.5940483041831612
    Two-Electron Energy =                 697.1797871684938173
    Total Energy =                       -454.4683398122639346
  Basis Set: (AUG-CC-PVTZ AUX)
    Blend: AUG-CC-PVTZ-RI
    Molecular point group: c1

    Geometry (in Angstrom), charge = 0, multiplicity = 1:

       Center              X                  Y                   Z               Mass
    ------------   -----------------  -----------------  -----------------  -----------------
         N            0.988514236219     0.175709609898    -0.021207005812    14.003074004430
         N            1.685714336219    -1.059441090102    -0.410406105812    14.003074004430
         C           -0.420459663781     0.013578909898    -0.000534105812    12.000000000000
         C           -1.126477663781     1.193914909898    -0.246488105812    12.000000000000
         C           -1.087009663781    -1.189323090102     0.246373894188    12.000000000000
         C            1.817224336219     1.048077909898     0.414723894188    12.000000000000
         C           -2.521332663781     1.169220909898    -0.222853105812    12.000000000000
         C           -2.480900663781    -1.202050090102     0.244568894188    12.000000000000
         C            3.113682336219     0.595556909898     0.245380894188    12.000000000000
         C           -3.201650663781    -0.025509090102     0.021581894188    12.000000000000
         C            2.977680336219    -0.707936090102    -0.261288105812    12.000000000000
         H           -0.592963663781     2.110661909898    -0.482576105812     1.007825032230
         H           -0.506694663781    -2.088944090102     0.423684894188     1.007825032230
         H            1.418486336219     1.968588909898     0.816956894188     1.007825032230
         H           -3.075781663781     2.084469909898    -0.414489105812     1.007825032230
         H           -3.006264663781    -2.135033090102     0.432699894188     1.007825032230
         H            4.023838336219     1.132649909898     0.472843894188     1.007825032230
         H           -4.288383663781    -0.041522090102     0.029690894188     1.007825032230
         H            3.749101336219    -1.414933090102    -0.538288105812     1.007825032230

  Basis Set: AUG-CC-PVTZ
    Blend: AUG-CC-PVTZ
  Basis Set: (AUG-CC-PVTZ AUX)
    Blend: AUG-CC-PVTZ-JKFIT
	 Reference Energy          =    -454.4683398122638778 [Eh]
	 Singles Energy            =      -0.0000000000000000 [Eh]
	 Same-Spin Energy          =      -0.5093540954297227 [Eh]
	 Opposite-Spin Energy      =      -1.5490843480719052 [Eh]
	 Correlation Energy        =      -2.0584384435016281 [Eh]
	 Total Energy              =    -456.5267782557655210 [Eh]

	 ================> DF-SCS-MP2 Energies <==================
	-----------------------------------------------------------
	 SCS Same-Spin Scale       =       0.3333333333333333 [-]
	 SCS Opposite-Spin Scale   =       1.2000000000000000 [-]
	 SCS Same-Spin Energy      =      -0.1697846984765742 [Eh]
	 SCS Opposite-Spin Energy  =      -1.8589012176862862 [Eh]
	 SCS Correlation Energy    =      -2.0286859161628605 [Eh]
	 SCS Total Energy          =    -456.4970257284267632 [Eh]
	-----------------------------------------------------------

  Dipole Moment: [D]
     X:    -0.9019      Y:     1.5641      Z:     0.7510     Total:     1.9555

*** Psi4 exiting successfully. Buy a developer a beer!
