                               Psi4 1.4a3.dev225

  ==> Input File <==

--------------------------------------------------------------------------
#psi4
#
memory 32 gb

molecule  {
0 1
  N        1.0119030     0.0333230     0.0008060
  N        1.6997840    -1.0566340    -0.4179730
  C       -0.4063900     0.0163860    -0.0081010
  C       -1.1225142     1.2136178    -0.2575757
  C       -1.0729400    -1.1865160     0.2388070
  C        1.8312940     1.0508850     0.4071570
  C       -2.5072630     1.1720280    -0.2304200
  C       -2.4668310    -1.1992430     0.2370020
  C        3.1277520     0.5983640     0.2378140
  C       -3.1875810    -0.0227020     0.0140150
  C        2.9917500    -0.7051290    -0.2688550
  H       -0.5788940     2.1134690    -0.4901430
  H       -0.4926250    -2.0861370     0.4161180
  H        1.4325560     1.9713960     0.8093900
  H       -3.0617120     2.0872770    -0.4220560
  H       -2.9921950    -2.1322260     0.4251330
  H        4.0379080     1.1354570     0.4652770
  H       -4.2743140    -0.0387150     0.0221240
  H        3.7631710    -1.4121260    -0.5458550
units angstrom
no_reorient  #important for SAPT in psi4, default
symmetry c1  #important for SAPT in psi4, default
}

set PROPERTIES_ORIGIN ["COM"]
properties('MP2/aug-cc-pvtz', properties = ['dipole'])
--------------------------------------------------------------------------

    Molecular point group: c1
  Charge       = 0
  Multiplicity = 1
  Basis Set: AUG-CC-PVTZ
    Blend: AUG-CC-PVTZ
  Basis Set: (AUG-CC-PVTZ AUX)
    Blend: AUG-CC-PVTZ-JKFIT

    Orbital Energies [Eh]
    ---------------------

    Doubly Occupied:

       1A    -15.652210     2A    -15.590889     3A    -11.293699
       4A    -11.282746     5A    -11.259844     6A    -11.247891
       7A    -11.246548     8A    -11.246165     9A    -11.240812
      10A    -11.240663    11A    -11.228267    12A     -1.382549
      13A     -1.174083    14A     -1.110527    15A     -1.064237
      16A     -1.025686    17A     -0.996566    18A     -0.861679
      19A     -0.846786    20A     -0.797630    21A     -0.777166
      22A     -0.742391    23A     -0.688043    24A     -0.648275
      25A     -0.640311    26A     -0.615190    27A     -0.598912
      28A     -0.593488    29A     -0.588875    30A     -0.564051
      31A     -0.521777    32A     -0.510104    33A     -0.505519
      34A     -0.462987    35A     -0.394687    36A     -0.350328
      37A     -0.347329    38A     -0.311490

  @DF-RHF Final Energy:  -454.48742389339480

   => Energetics <=

    Nuclear Repulsion Energy =            546.0643169889143564
    One-Electron Energy =               -1697.8026790886171966
    Two-Electron Energy =                 697.2509382063082057
    Total Energy =                       -454.4874238933947481
  Basis Set: (AUG-CC-PVTZ AUX)
    Blend: AUG-CC-PVTZ-RI
    Molecular point group: c1

    Geometry (in Angstrom), charge = 0, multiplicity = 1:

       Center              X                  Y                   Z               Mass
    ------------   -----------------  -----------------  -----------------  -----------------
         N            0.997769327563     0.043221014566     0.005791063408    14.003074004430
         N            1.685650327563    -1.046735985434    -0.412987936592    14.003074004430
         C           -0.420523672437     0.026284014566    -0.003115936592    12.000000000000
         C           -1.136647872437     1.223515814566    -0.252590636592    12.000000000000
         C           -1.087073672437    -1.176617985434     0.243792063408    12.000000000000
         C            1.817160327563     1.060783014566     0.412142063408    12.000000000000
         C           -2.521396672437     1.181926014566    -0.225434936592    12.000000000000
         C           -2.480964672437    -1.189344985434     0.241987063408    12.000000000000
         C            3.113618327563     0.608262014566     0.242799063408    12.000000000000
         C           -3.201714672437    -0.012803985434     0.019000063408    12.000000000000
         C            2.977616327563    -0.695230985434    -0.263869936592    12.000000000000
         H           -0.593027672437     2.123367014566    -0.485157936592     1.007825032230
         H           -0.506758672437    -2.076238985434     0.421103063408     1.007825032230
         H            1.418422327563     1.981294014566     0.814375063408     1.007825032230
         H           -3.075845672437     2.097175014566    -0.417070936592     1.007825032230
         H           -3.006328672437    -2.122327985434     0.430118063408     1.007825032230
         H            4.023774327563     1.145355014566     0.470262063408     1.007825032230
         H           -4.288447672437    -0.028816985434     0.027109063408     1.007825032230
         H            3.749037327563    -1.402227985434    -0.540869936592     1.007825032230

  Basis Set: AUG-CC-PVTZ
    Blend: AUG-CC-PVTZ
  Basis Set: (AUG-CC-PVTZ AUX)
    Blend: AUG-CC-PVTZ-JKFIT
	 Reference Energy          =    -454.4874238933948050 [Eh]
	 Singles Energy            =      -0.0000000000000000 [Eh]
	 Same-Spin Energy          =      -0.5096746167503747 [Eh]
	 Opposite-Spin Energy      =      -1.5479790610480442 [Eh]
	 Correlation Energy        =      -2.0576536777984189 [Eh]
	 Total Energy              =    -456.5450775711932465 [Eh]

	 ================> DF-SCS-MP2 Energies <==================
	-----------------------------------------------------------
	 SCS Same-Spin Scale       =       0.3333333333333333 [-]
	 SCS Opposite-Spin Scale   =       1.2000000000000000 [-]
	 SCS Same-Spin Energy      =      -0.1698915389167916 [Eh]
	 SCS Opposite-Spin Energy  =      -1.8575748732576529 [Eh]
	 SCS Correlation Energy    =      -2.0274664121744443 [Eh]
	 SCS Total Energy          =    -456.5148903055692244 [Eh]
	-----------------------------------------------------------

  Dipole Moment: [D]
     X:    -0.8686      Y:     1.6341      Z:     0.7385     Total:     1.9925

*** Psi4 exiting successfully. Buy a developer a beer!
