                               Psi4 1.3.2 release

  ==> Input File <==

--------------------------------------------------------------------------
#psi4
#
memory 32 gb

molecule  {
0 1
  N        0.9916307     0.0220363    -0.0037851
  N        1.6997840    -1.0566340    -0.4179730
  C       -0.4063900     0.0163860    -0.0081010
  C       -1.1124080     1.1967220    -0.2540550
  C       -1.0729400    -1.1865160     0.2388070
  C        1.8312940     1.0508850     0.4071570
  C       -2.5072630     1.1720280    -0.2304200
  C       -2.4668310    -1.1992430     0.2370020
  C        3.1277520     0.5983640     0.2378140
  C       -3.1875810    -0.0227020     0.0140150
  C        2.9917500    -0.7051290    -0.2688550
  H       -0.5788940     2.1134690    -0.4901430
  H       -0.4926250    -2.0861370     0.4161180
  H        1.4325560     1.9713960     0.8093900
  H       -3.0617120     2.0872770    -0.4220560
  H       -2.9921950    -2.1322260     0.4251330
  H        4.0379080     1.1354570     0.4652770
  H       -4.2743140    -0.0387150     0.0221240
  H        3.7631710    -1.4121260    -0.5458550
units angstrom
no_reorient  #important for SAPT in psi4, default
symmetry c1  #important for SAPT in psi4, default
}

set PROPERTIES_ORIGIN ["COM"]
properties('MP2/aug-cc-pvtz', properties = ['dipole'])
--------------------------------------------------------------------------

    Molecular point group: c1
  Charge       = 0
  Multiplicity = 1
  Basis Set: AUG-CC-PVTZ
    Blend: AUG-CC-PVTZ
  Basis Set: (AUG-CC-PVTZ AUX)
    Blend: AUG-CC-PVTZ-JKFIT

    Orbital Energies [Eh]
    ---------------------

    Doubly Occupied:

       1A    -15.651646     2A    -15.592450     3A    -11.290049
       4A    -11.284647     5A    -11.260881     6A    -11.247600
       7A    -11.245834     8A    -11.245254     9A    -11.239887
      10A    -11.239597    11A    -11.230675    12A     -1.380626
      13A     -1.177082    14A     -1.111210    15A     -1.062024
      16A     -1.023636    17A     -0.997421    18A     -0.863488
      19A     -0.848259    20A     -0.796144    21A     -0.777785
      22A     -0.741224    23A     -0.686151    24A     -0.649412
      25A     -0.641408    26A     -0.615212    27A     -0.598169
      28A     -0.596237    29A     -0.587042    30A     -0.564317
      31A     -0.520148    32A     -0.510093    33A     -0.506453
      34A     -0.460974    35A     -0.396910    36A     -0.349864
      37A     -0.345807    38A     -0.310764

  @DF-RHF Final Energy:  -454.48660337877578

   => Energetics <=

    Nuclear Repulsion Energy =            546.3818286205143977
    One-Electron Energy =               -1698.4441024891109464
    Two-Electron Energy =                 697.5756704898208227
    Total Energy =                       -454.4866033787757260
  Basis Set: (AUG-CC-PVTZ AUX)
    Blend: AUG-CC-PVTZ-RI
    Molecular point group: c1

    Geometry (in Angstrom), charge = 0, multiplicity = 1:

       Center              X                  Y                   Z               Mass
    ------------   -----------------  -----------------  -----------------  -----------------
         N            0.978625656215     0.034438661274     0.001352953653    14.003074004430
         N            1.686778956215    -1.044231638726    -0.412834946347    14.003074004430
         C           -0.419395043785     0.028788361274    -0.002962946347    12.000000000000
         C           -1.125413043785     1.209124361274    -0.248916946347    12.000000000000
         C           -1.085945043785    -1.174113638726     0.243945053653    12.000000000000
         C            1.818288956215     1.063287361274     0.412295053653    12.000000000000
         C           -2.520268043785     1.184430361274    -0.225281946347    12.000000000000
         C           -2.479836043785    -1.186840638726     0.242140053653    12.000000000000
         C            3.114746956215     0.610766361274     0.242952053653    12.000000000000
         C           -3.200586043785    -0.010299638726     0.019153053653    12.000000000000
         C            2.978744956215    -0.692726638726    -0.263716946347    12.000000000000
         H           -0.591899043785     2.125871361274    -0.485004946347     1.007825032230
         H           -0.505630043785    -2.073734638726     0.421256053653     1.007825032230
         H            1.419550956215     1.983798361274     0.814528053653     1.007825032230
         H           -3.074717043785     2.099679361274    -0.416917946347     1.007825032230
         H           -3.005200043785    -2.119823638726     0.430271053653     1.007825032230
         H            4.024902956215     1.147859361274     0.470415053653     1.007825032230
         H           -4.287319043785    -0.026312638726     0.027262053653     1.007825032230
         H            3.750165956215    -1.399723638726    -0.540716946347     1.007825032230

  Basis Set: AUG-CC-PVTZ
    Blend: AUG-CC-PVTZ
  Basis Set: (AUG-CC-PVTZ AUX)
    Blend: AUG-CC-PVTZ-JKFIT
	 Reference Energy          =    -454.4866033787757829 [Eh]
	 Singles Energy            =      -0.0000000000000000 [Eh]
	 Same-Spin Energy          =      -0.5098742992250596 [Eh]
	 Opposite-Spin Energy      =      -1.5483954867058092 [Eh]
	 Correlation Energy        =      -2.0582697859308690 [Eh]
	 Total Energy              =    -456.5448731647066438 [Eh]

	 ================> DF-SCS-MP2 Energies <==================
	-----------------------------------------------------------
	 SCS Same-Spin Scale       =       0.3333333333333333 [-]
	 SCS Opposite-Spin Scale   =       1.2000000000000000 [-]
	 SCS Same-Spin Energy      =      -0.1699580997416865 [Eh]
	 SCS Opposite-Spin Energy  =      -1.8580745840469710 [Eh]
	 SCS Correlation Energy    =      -2.0280326837886573 [Eh]
	 SCS Total Energy          =    -456.5146360625644206 [Eh]
	-----------------------------------------------------------

  Dipole Moment: [D]
     X:    -0.7880      Y:     1.6372      Z:     0.7365     Total:     1.9606

*** Psi4 exiting successfully. Buy a developer a beer!
