                               Psi4 1.4a3.dev225

  ==> Input File <==

--------------------------------------------------------------------------
#psi4
#
memory 32 gb

molecule  {
0 1
  N        1.0119030     0.0333230     0.0008060
  N        1.6997840    -1.0566340    -0.4179730
  C       -0.4063900     0.0163860    -0.0081010
  C       -1.1124080     1.1967220    -0.2540550
  C       -1.0729400    -1.1865160     0.2388070
  C        1.8312940     1.0508850     0.4071570
  C       -2.5072630     1.1720280    -0.2304200
  C       -2.4668310    -1.1992430     0.2370020
  C        3.1277520     0.5983640     0.2378140
  C       -3.1875810    -0.0227020     0.0140150
  C        2.9917500    -0.7051290    -0.2688550
  H       -0.5788940     2.1134690    -0.4901430
  H       -0.4926250    -2.0861370     0.4161180
  H        1.4399346     1.9543621     0.8019467
  H       -3.0617120     2.0872770    -0.4220560
  H       -2.9921950    -2.1322260     0.4251330
  H        4.0379080     1.1354570     0.4652770
  H       -4.2743140    -0.0387150     0.0221240
  H        3.7631710    -1.4121260    -0.5458550
units angstrom
no_reorient  #important for SAPT in psi4, default
symmetry c1  #important for SAPT in psi4, default
}

set PROPERTIES_ORIGIN ["COM"]
properties('MP2/aug-cc-pvtz', properties = ['dipole'])
--------------------------------------------------------------------------

    Molecular point group: c1
  Charge       = 0
  Multiplicity = 1
  Basis Set: AUG-CC-PVTZ
    Blend: AUG-CC-PVTZ
  Basis Set: (AUG-CC-PVTZ AUX)
    Blend: AUG-CC-PVTZ-JKFIT

    Orbital Energies [Eh]
    ---------------------

    Doubly Occupied:

       1A    -15.651735     2A    -15.590712     3A    -11.291764
       4A    -11.280375     5A    -11.259547     6A    -11.248264
       7A    -11.246794     8A    -11.246009     9A    -11.241060
      10A    -11.240901    11A    -11.227978    12A     -1.382396
      13A     -1.175544    14A     -1.110436    15A     -1.064494
      16A     -1.024492    17A     -0.998170    18A     -0.861022
      19A     -0.847976    20A     -0.798114    21A     -0.778622
      22A     -0.744705    23A     -0.687137    24A     -0.649180
      25A     -0.639901    26A     -0.615529    27A     -0.597301
      28A     -0.594531    29A     -0.589674    30A     -0.564584
      31A     -0.520337    32A     -0.510835    33A     -0.507008
      34A     -0.462937    35A     -0.394947    36A     -0.349826
      37A     -0.346347    38A     -0.312997

  @DF-RHF Final Energy:  -454.48820607810052

   => Energetics <=

    Nuclear Repulsion Energy =            546.4647011094899653
    One-Electron Energy =               -1698.5974489043790072
    Two-Electron Energy =                 697.6445417167883534
    Total Energy =                       -454.4882060781005748
  Basis Set: (AUG-CC-PVTZ AUX)
    Blend: AUG-CC-PVTZ-RI
    Molecular point group: c1

    Geometry (in Angstrom), charge = 0, multiplicity = 1:

       Center              X                  Y                   Z               Mass
    ------------   -----------------  -----------------  -----------------  -----------------
         N            0.996875929520     0.044747485737     0.005549880942    14.003074004430
         N            1.684756929520    -1.045209514263    -0.413229119058    14.003074004430
         C           -0.421417070480     0.027810485737    -0.003357119058    12.000000000000
         C           -1.127435070480     1.208146485737    -0.249311119058    12.000000000000
         C           -1.087967070480    -1.175091514263     0.243550880942    12.000000000000
         C            1.816266929520     1.062309485737     0.411900880942    12.000000000000
         C           -2.522290070480     1.183452485737    -0.225676119058    12.000000000000
         C           -2.481858070480    -1.187818514263     0.241745880942    12.000000000000
         C            3.112724929520     0.609788485737     0.242557880942    12.000000000000
         C           -3.202608070480    -0.011277514263     0.018758880942    12.000000000000
         C            2.976722929520    -0.693704514263    -0.264111119058    12.000000000000
         H           -0.593921070480     2.124893485737    -0.485399119058     1.007825032230
         H           -0.507652070480    -2.074712514263     0.420861880942     1.007825032230
         H            1.424907529520     1.965786585737     0.806690580942     1.007825032230
         H           -3.076739070480     2.098701485737    -0.417312119058     1.007825032230
         H           -3.007222070480    -2.120801514263     0.429876880942     1.007825032230
         H            4.022880929520     1.146881485737     0.470020880942     1.007825032230
         H           -4.289341070480    -0.027290514263     0.026867880942     1.007825032230
         H            3.748143929520    -1.400701514263    -0.541111119058     1.007825032230

  Basis Set: AUG-CC-PVTZ
    Blend: AUG-CC-PVTZ
  Basis Set: (AUG-CC-PVTZ AUX)
    Blend: AUG-CC-PVTZ-JKFIT
	 Reference Energy          =    -454.4882060781005180 [Eh]
	 Singles Energy            =      -0.0000000000000000 [Eh]
	 Same-Spin Energy          =      -0.5096196538677865 [Eh]
	 Opposite-Spin Energy      =      -1.5477556666952768 [Eh]
	 Correlation Energy        =      -2.0573753205630632 [Eh]
	 Total Energy              =    -456.5455813986635576 [Eh]

	 ================> DF-SCS-MP2 Energies <==================
	-----------------------------------------------------------
	 SCS Same-Spin Scale       =       0.3333333333333333 [-]
	 SCS Opposite-Spin Scale   =       1.2000000000000000 [-]
	 SCS Same-Spin Energy      =      -0.1698732179559288 [Eh]
	 SCS Opposite-Spin Energy  =      -1.8573068000343320 [Eh]
	 SCS Correlation Energy    =      -2.0271800179902608 [Eh]
	 SCS Total Energy          =    -456.5153860960907650 [Eh]
	-----------------------------------------------------------

  Dipole Moment: [D]
     X:    -0.8864      Y:     1.6363      Z:     0.7378     Total:     2.0019

*** Psi4 exiting successfully. Buy a developer a beer!
