                               Psi4 1.4a3.dev225

  ==> Input File <==

--------------------------------------------------------------------------
#psi4
#
memory 32 gb

molecule  {
0 1
  N        1.0119030     0.0333230     0.0008060
  N        1.6997840    -1.0566340    -0.4179730
  C       -0.4063900     0.0163860    -0.0081010
  C       -1.1124080     1.1967220    -0.2540550
  C       -1.0729400    -1.1865160     0.2388070
  C        1.8312940     1.0508850     0.4071570
  C       -2.5072630     1.1720280    -0.2304200
  C       -2.4668310    -1.1992430     0.2370020
  C        3.1277520     0.5983640     0.2378140
  C       -3.1875810    -0.0227020     0.0140150
  C        2.9917500    -0.7051290    -0.2688550
  H       -0.5788940     2.1134690    -0.4901430
  H       -0.4926250    -2.0861370     0.4161180
  H        1.4325560     1.9713960     0.8093900
  H       -3.0617120     2.0872770    -0.4220560
  H       -2.9921950    -2.1322260     0.4251330
  H        4.0800053     1.1602991     0.4757978
  H       -4.2743140    -0.0387150     0.0221240
  H        3.7631710    -1.4121260    -0.5458550
units angstrom
no_reorient  #important for SAPT in psi4, default
symmetry c1  #important for SAPT in psi4, default
}

set PROPERTIES_ORIGIN ["COM"]
properties('MP2/aug-cc-pvtz', properties = ['dipole'])
--------------------------------------------------------------------------

    Molecular point group: c1
  Charge       = 0
  Multiplicity = 1
  Basis Set: AUG-CC-PVTZ
    Blend: AUG-CC-PVTZ
  Basis Set: (AUG-CC-PVTZ AUX)
    Blend: AUG-CC-PVTZ-JKFIT

    Orbital Energies [Eh]
    ---------------------

    Doubly Occupied:

       1A    -15.652077     2A    -15.591073     3A    -11.291869
       4A    -11.282899     5A    -11.260058     6A    -11.248306
       7A    -11.246839     8A    -11.246067     9A    -11.241140
      10A    -11.240972    11A    -11.233591    12A     -1.382752
      13A     -1.175655    14A     -1.110504    15A     -1.063381
      16A     -1.024499    17A     -0.997798    18A     -0.859850
      19A     -0.847781    20A     -0.794973    21A     -0.777764
      22A     -0.741375    23A     -0.686076    24A     -0.649092
      25A     -0.639187    26A     -0.613648    27A     -0.597325
      28A     -0.593643    29A     -0.583349    30A     -0.563316
      31A     -0.520294    32A     -0.510900    33A     -0.506952
      34A     -0.462864    35A     -0.395169    36A     -0.350055
      37A     -0.346436    38A     -0.313145

  @DF-RHF Final Energy:  -454.48554926010411

   => Energetics <=

    Nuclear Repulsion Energy =            546.1133876052793994
    One-Electron Energy =               -1697.9125230642175666
    Two-Electron Energy =                 697.3135861988339457
    Total Energy =                       -454.4855492601041078
  Basis Set: (AUG-CC-PVTZ AUX)
    Blend: AUG-CC-PVTZ-RI
    Molecular point group: c1

    Geometry (in Angstrom), charge = 0, multiplicity = 1:

       Center              X                  Y                   Z               Mass
    ------------   -----------------  -----------------  -----------------  -----------------
         N            0.996633056757     0.044454544474     0.005424214065    14.003074004430
         N            1.684514056757    -1.045502455526    -0.413354785935    14.003074004430
         C           -0.421659943243     0.027517544474    -0.003482785935    12.000000000000
         C           -1.127677943243     1.207853544474    -0.249436785935    12.000000000000
         C           -1.088209943243    -1.175384455526     0.243425214065    12.000000000000
         C            1.816024056757     1.062016544474     0.411775214065    12.000000000000
         C           -2.522532943243     1.183159544474    -0.225801785935    12.000000000000
         C           -2.482100943243    -1.188111455526     0.241620214065    12.000000000000
         C            3.112482056757     0.609495544474     0.242432214065    12.000000000000
         C           -3.202850943243    -0.011570455526     0.018633214065    12.000000000000
         C            2.976480056757    -0.693997455526    -0.264236785935    12.000000000000
         H           -0.594163943243     2.124600544474    -0.485524785935     1.007825032230
         H           -0.507894943243    -2.075005455526     0.420736214065     1.007825032230
         H            1.417286056757     1.982527544474     0.814008214065     1.007825032230
         H           -3.076981943243     2.098408544474    -0.417437785935     1.007825032230
         H           -3.007464943243    -2.121094455526     0.429751214065     1.007825032230
         H            4.064735356757     1.171430644474     0.480416014065     1.007825032230
         H           -4.289583943243    -0.027583455526     0.026742214065     1.007825032230
         H            3.747901056757    -1.400994455526    -0.541236785935     1.007825032230

  Basis Set: AUG-CC-PVTZ
    Blend: AUG-CC-PVTZ
  Basis Set: (AUG-CC-PVTZ AUX)
    Blend: AUG-CC-PVTZ-JKFIT
	 Reference Energy          =    -454.4855492601041078 [Eh]
	 Singles Energy            =      -0.0000000000000000 [Eh]
	 Same-Spin Energy          =      -0.5097640613163753 [Eh]
	 Opposite-Spin Energy      =      -1.5482756301160494 [Eh]
	 Correlation Energy        =      -2.0580396914324246 [Eh]
	 Total Energy              =    -456.5435889515365488 [Eh]

	 ================> DF-SCS-MP2 Energies <==================
	-----------------------------------------------------------
	 SCS Same-Spin Scale       =       0.3333333333333333 [-]
	 SCS Opposite-Spin Scale   =       1.2000000000000000 [-]
	 SCS Same-Spin Energy      =      -0.1699213537721251 [Eh]
	 SCS Opposite-Spin Energy  =      -1.8579307561392593 [Eh]
	 SCS Correlation Energy    =      -2.0278521099113842 [Eh]
	 SCS Total Energy          =    -456.5134013700155151 [Eh]
	-----------------------------------------------------------

  Dipole Moment: [D]
     X:    -0.8920      Y:     1.6343      Z:     0.7373     Total:     2.0026

*** Psi4 exiting successfully. Buy a developer a beer!
