                               Psi4 1.3.2 release

  ==> Input File <==

--------------------------------------------------------------------------
#psi4
#
memory 32 gb

molecule  {
0 1
  N        1.0119030     0.0333230     0.0008060
  N        1.6997840    -1.0566340    -0.4179730
  C       -0.4063900     0.0163860    -0.0081010
  C       -1.1124080     1.1967220    -0.2540550
  C       -1.0729400    -1.1865160     0.2388070
  C        1.8681424     1.1334773     0.4410209
  C       -2.5072630     1.1720280    -0.2304200
  C       -2.4668310    -1.1992430     0.2370020
  C        3.1277520     0.5983640     0.2378140
  C       -3.1875810    -0.0227020     0.0140150
  C        2.9917500    -0.7051290    -0.2688550
  H       -0.5788940     2.1134690    -0.4901430
  H       -0.4926250    -2.0861370     0.4161180
  H        1.4325560     1.9713960     0.8093900
  H       -3.0617120     2.0872770    -0.4220560
  H       -2.9921950    -2.1322260     0.4251330
  H        4.0379080     1.1354570     0.4652770
  H       -4.2743140    -0.0387150     0.0221240
  H        3.7631710    -1.4121260    -0.5458550
units angstrom
no_reorient  #important for SAPT in psi4, default
symmetry c1  #important for SAPT in psi4, default
}

set PROPERTIES_ORIGIN ["COM"]
properties('MP2/aug-cc-pvtz', properties = ['dipole'])
--------------------------------------------------------------------------

    Molecular point group: c1
  Charge       = 0
  Multiplicity = 1
  Basis Set: AUG-CC-PVTZ
    Blend: AUG-CC-PVTZ
  Basis Set: (AUG-CC-PVTZ AUX)
    Blend: AUG-CC-PVTZ-JKFIT

    Orbital Energies [Eh]
    ---------------------

    Doubly Occupied:

       1A    -15.649121     2A    -15.601440     3A    -11.288908
       4A    -11.285979     5A    -11.260885     6A    -11.246325
       7A    -11.244216     8A    -11.244015     9A    -11.238322
      10A    -11.238126    11A    -11.237023    12A     -1.367834
      13A     -1.172829    14A     -1.103967    15A     -1.062713
      16A     -1.022438    17A     -0.993135    18A     -0.859292
      19A     -0.845529    20A     -0.801517    21A     -0.777187
      22A     -0.741363    23A     -0.685967    24A     -0.647136
      25A     -0.638484    26A     -0.610950    27A     -0.600451
      28A     -0.595235    29A     -0.583505    30A     -0.567879
      31A     -0.516407    32A     -0.508460    33A     -0.505207
      34A     -0.466160    35A     -0.393902    36A     -0.352630
      37A     -0.344904    38A     -0.307578

  @DF-RHF Final Energy:  -454.47247540536279

   => Energetics <=

    Nuclear Repulsion Energy =            544.3385190451352855
    One-Electron Energy =               -1694.4079572450416435
    Two-Electron Energy =                 695.5969627945436287
    Total Energy =                       -454.4724754053628430
  Basis Set: (AUG-CC-PVTZ AUX)
    Blend: AUG-CC-PVTZ-RI
    Molecular point group: c1

    Geometry (in Angstrom), charge = 0, multiplicity = 1:

       Center              X                  Y                   Z               Mass
    ------------   -----------------  -----------------  -----------------  -----------------
         N            0.993858311421     0.037748918713     0.002677166706    14.003074004430
         N            1.681739311421    -1.052208081287    -0.416101833294    14.003074004430
         C           -0.424434688579     0.020811918713    -0.006229833294    12.000000000000
         C           -1.130452688579     1.201147918713    -0.252183833294    12.000000000000
         C           -1.090984688579    -1.182090081287     0.240678166706    12.000000000000
         C            1.850097711421     1.137903218713     0.442892066706    12.000000000000
         C           -2.525307688579     1.176453918713    -0.228548833294    12.000000000000
         C           -2.484875688579    -1.194817081287     0.238873166706    12.000000000000
         C            3.109707311421     0.602789918713     0.239685166706    12.000000000000
         C           -3.205625688579    -0.018276081287     0.015886166706    12.000000000000
         C            2.973705311421    -0.700703081287    -0.266983833294    12.000000000000
         H           -0.596938688579     2.117894918713    -0.488271833294     1.007825032230
         H           -0.510669688579    -2.081711081287     0.417989166706     1.007825032230
         H            1.414511311421     1.975821918713     0.811261166706     1.007825032230
         H           -3.079756688579     2.091702918713    -0.420184833294     1.007825032230
         H           -3.010239688579    -2.127800081287     0.427004166706     1.007825032230
         H            4.019863311421     1.139882918713     0.467148166706     1.007825032230
         H           -4.292358688579    -0.034289081287     0.023995166706     1.007825032230
         H            3.745126311421    -1.407700081287    -0.543983833294     1.007825032230

  Basis Set: AUG-CC-PVTZ
    Blend: AUG-CC-PVTZ
  Basis Set: (AUG-CC-PVTZ AUX)
    Blend: AUG-CC-PVTZ-JKFIT
	 Reference Energy          =    -454.4724754053627862 [Eh]
	 Singles Energy            =      -0.0000000000000000 [Eh]
	 Same-Spin Energy          =      -0.5106883588539595 [Eh]
	 Opposite-Spin Energy      =      -1.5510158646172874 [Eh]
	 Correlation Energy        =      -2.0617042234712466 [Eh]
	 Total Energy              =    -456.5341796288340106 [Eh]

	 ================> DF-SCS-MP2 Energies <==================
	-----------------------------------------------------------
	 SCS Same-Spin Scale       =       0.3333333333333333 [-]
	 SCS Opposite-Spin Scale   =       1.2000000000000000 [-]
	 SCS Same-Spin Energy      =      -0.1702294529513198 [Eh]
	 SCS Opposite-Spin Energy  =      -1.8612190375407447 [Eh]
	 SCS Correlation Energy    =      -2.0314484904920644 [Eh]
	 SCS Total Energy          =    -456.5039238958548253 [Eh]
	-----------------------------------------------------------

  Dipole Moment: [D]
     X:    -0.6762      Y:     1.6248      Z:     0.7377     Total:     1.9083

*** Psi4 exiting successfully. Buy a developer a beer!
