                               Psi4 1.3.2 release

  ==> Input File <==

--------------------------------------------------------------------------
#psi4
#
memory 32 gb

molecule  {
0 1
  N        1.0119030     0.0333230     0.0008060
  N        1.7795586    -1.0092489    -0.3995827
  C       -0.4063900     0.0163860    -0.0081010
  C       -1.1124080     1.1967220    -0.2540550
  C       -1.0729400    -1.1865160     0.2388070
  C        1.8312940     1.0508850     0.4071570
  C       -2.5072630     1.1720280    -0.2304200
  C       -2.4668310    -1.1992430     0.2370020
  C        3.1277520     0.5983640     0.2378140
  C       -3.1875810    -0.0227020     0.0140150
  C        2.9917500    -0.7051290    -0.2688550
  H       -0.5788940     2.1134690    -0.4901430
  H       -0.4926250    -2.0861370     0.4161180
  H        1.4325560     1.9713960     0.8093900
  H       -3.0617120     2.0872770    -0.4220560
  H       -2.9921950    -2.1322260     0.4251330
  H        4.0379080     1.1354570     0.4652770
  H       -4.2743140    -0.0387150     0.0221240
  H        3.7631710    -1.4121260    -0.5458550
units angstrom
no_reorient  #important for SAPT in psi4, default
symmetry c1  #important for SAPT in psi4, default
}

set PROPERTIES_ORIGIN ["COM"]
properties('MP2/aug-cc-pvtz', properties = ['dipole'])
--------------------------------------------------------------------------

    Molecular point group: c1
  Charge       = 0
  Multiplicity = 1
  Basis Set: AUG-CC-PVTZ
    Blend: AUG-CC-PVTZ
  Basis Set: (AUG-CC-PVTZ AUX)
    Blend: AUG-CC-PVTZ-JKFIT

    Orbital Energies [Eh]
    ---------------------

    Doubly Occupied:

       1A    -15.646133     2A    -15.578833     3A    -11.293947
       4A    -11.279841     5A    -11.248793     6A    -11.248397
       7A    -11.247205     8A    -11.246555     9A    -11.241488
      10A    -11.241062    11A    -11.222419    12A     -1.391511
      13A     -1.184825    14A     -1.124818    15A     -1.056906
      16A     -1.025219    17A     -1.000291    18A     -0.860549
      19A     -0.850687    20A     -0.803717    21A     -0.775221
      22A     -0.740920    23A     -0.687951    24A     -0.651400
      25A     -0.645361    26A     -0.618159    27A     -0.602554
      28A     -0.597120    29A     -0.588017    30A     -0.567644
      31A     -0.521151    32A     -0.513393    33A     -0.507450
      34A     -0.446764    35A     -0.404116    36A     -0.352131
      37A     -0.347386    38A     -0.312709

  @DF-RHF Final Energy:  -454.48731080085093

   => Energetics <=

    Nuclear Repulsion Energy =            547.5883696709167907
    One-Electron Energy =               -1700.8060694073583363
    Two-Electron Energy =                 698.7303889355905540
    Total Energy =                       -454.4873108008509917
  Basis Set: (AUG-CC-PVTZ AUX)
    Blend: AUG-CC-PVTZ-RI
    Molecular point group: c1

    Geometry (in Angstrom), charge = 0, multiplicity = 1:

       Center              X                  Y                   Z               Mass
    ------------   -----------------  -----------------  -----------------  -----------------
         N            0.989173681093     0.040022628604     0.003710326708    14.003074004430
         N            1.756829281093    -1.002549271396    -0.396678373292    14.003074004430
         C           -0.429119318907     0.023085628604    -0.005196673292    12.000000000000
         C           -1.135137318907     1.203421628604    -0.251150673292    12.000000000000
         C           -1.095669318907    -1.179816371396     0.241711326708    12.000000000000
         C            1.808564681093     1.057584628604     0.410061326708    12.000000000000
         C           -2.529992318907     1.178727628604    -0.227515673292    12.000000000000
         C           -2.489560318907    -1.192543371396     0.239906326708    12.000000000000
         C            3.105022681093     0.605063628604     0.240718326708    12.000000000000
         C           -3.210310318907    -0.016002371396     0.016919326708    12.000000000000
         C            2.969020681093    -0.698429371396    -0.265950673292    12.000000000000
         H           -0.601623318907     2.120168628604    -0.487238673292     1.007825032230
         H           -0.515354318907    -2.079437371396     0.419022326708     1.007825032230
         H            1.409826681093     1.978095628604     0.812294326708     1.007825032230
         H           -3.084441318907     2.093976628604    -0.419151673292     1.007825032230
         H           -3.014924318907    -2.125526371396     0.428037326708     1.007825032230
         H            4.015178681093     1.142156628604     0.468181326708     1.007825032230
         H           -4.297043318907    -0.032015371396     0.025028326708     1.007825032230
         H            3.740441681093    -1.405426371396    -0.542950673292     1.007825032230

  Basis Set: AUG-CC-PVTZ
    Blend: AUG-CC-PVTZ
  Basis Set: (AUG-CC-PVTZ AUX)
    Blend: AUG-CC-PVTZ-JKFIT
	 Reference Energy          =    -454.4873108008509348 [Eh]
	 Singles Energy            =      -0.0000000000000000 [Eh]
	 Same-Spin Energy          =      -0.5071009891994105 [Eh]
	 Opposite-Spin Energy      =      -1.5428592843161102 [Eh]
	 Correlation Energy        =      -2.0499602735155209 [Eh]
	 Total Energy              =    -456.5372710743664584 [Eh]

	 ================> DF-SCS-MP2 Energies <==================
	-----------------------------------------------------------
	 SCS Same-Spin Scale       =       0.3333333333333333 [-]
	 SCS Opposite-Spin Scale   =       1.2000000000000000 [-]
	 SCS Same-Spin Energy      =      -0.1690336630664702 [Eh]
	 SCS Opposite-Spin Energy  =      -1.8514311411793321 [Eh]
	 SCS Correlation Energy    =      -2.0204648042458020 [Eh]
	 SCS Total Energy          =    -456.5077756050967537 [Eh]
	-----------------------------------------------------------

  Dipole Moment: [D]
     X:    -0.9521      Y:     1.4803      Z:     0.6732     Total:     1.8844

*** Psi4 exiting successfully. Buy a developer a beer!
