                               Psi4 1.3.2 release

  ==> Input File <==

--------------------------------------------------------------------------
#psi4
#
memory 32 gb

molecule  {
0 1
  N        1.0119030     0.0333230     0.0008060
  N        1.6997840    -1.0566340    -0.4179730
  C       -0.3966312    -0.1212605    -0.0628844
  C       -1.1124080     1.1967220    -0.2540550
  C       -1.0729400    -1.1865160     0.2388070
  C        1.8312940     1.0508850     0.4071570
  C       -2.5072630     1.1720280    -0.2304200
  C       -2.4668310    -1.1992430     0.2370020
  C        3.1277520     0.5983640     0.2378140
  C       -3.1875810    -0.0227020     0.0140150
  C        2.9917500    -0.7051290    -0.2688550
  H       -0.5788940     2.1134690    -0.4901430
  H       -0.4926250    -2.0861370     0.4161180
  H        1.4325560     1.9713960     0.8093900
  H       -3.0617120     2.0872770    -0.4220560
  H       -2.9921950    -2.1322260     0.4251330
  H        4.0379080     1.1354570     0.4652770
  H       -4.2743140    -0.0387150     0.0221240
  H        3.7631710    -1.4121260    -0.5458550
units angstrom
no_reorient  #important for SAPT in psi4, default
symmetry c1  #important for SAPT in psi4, default
}

set PROPERTIES_ORIGIN ["COM"]
properties('MP2/aug-cc-pvtz', properties = ['dipole'])
--------------------------------------------------------------------------

    Molecular point group: c1
  Charge       = 0
  Multiplicity = 1
  Basis Set: AUG-CC-PVTZ
    Blend: AUG-CC-PVTZ
  Basis Set: (AUG-CC-PVTZ AUX)
    Blend: AUG-CC-PVTZ-JKFIT

    Orbital Energies [Eh]
    ---------------------

    Doubly Occupied:

       1A    -15.651842     2A    -15.588344     3A    -11.290659
       4A    -11.285464     5A    -11.258228     6A    -11.255611
       7A    -11.247443     8A    -11.247120     9A    -11.241509
      10A    -11.229209    11A    -11.229028    12A     -1.383411
      13A     -1.174892    14A     -1.107863    15A     -1.068206
      16A     -1.028979    17A     -0.994351    18A     -0.862885
      19A     -0.845427    20A     -0.801043    21A     -0.773435
      22A     -0.743038    23A     -0.689112    24A     -0.648052
      25A     -0.638779    26A     -0.617283    27A     -0.602341
      28A     -0.592210    29A     -0.580450    30A     -0.563859
      31A     -0.525817    32A     -0.510764    33A     -0.492396
      34A     -0.463640    35A     -0.396337    36A     -0.351138
      37A     -0.347096    38A     -0.312019

  @DF-RHF Final Energy:  -454.46452466422545

   => Energetics <=

    Nuclear Repulsion Energy =            546.4117764016160663
    One-Electron Energy =               -1698.4740408897343968
    Two-Electron Energy =                 697.5977398238927663
    Total Energy =                       -454.4645246642254506
  Basis Set: (AUG-CC-PVTZ AUX)
    Blend: AUG-CC-PVTZ-RI
    Molecular point group: c1

    Geometry (in Angstrom), charge = 0, multiplicity = 1:

       Center              X                  Y                   Z               Mass
    ------------   -----------------  -----------------  -----------------  -----------------
         N            0.996114700846     0.056093394054     0.010060916567    14.003074004430
         N            1.683995700846    -1.033863605946    -0.408718083433    14.003074004430
         C           -0.412419499154    -0.098490105946    -0.053629483433    12.000000000000
         C           -1.128196299154     1.219492394054    -0.244800083433    12.000000000000
         C           -1.088728299154    -1.163745605946     0.248061916567    12.000000000000
         C            1.815505700846     1.073655394054     0.416411916567    12.000000000000
         C           -2.523051299154     1.194798394054    -0.221165083433    12.000000000000
         C           -2.482619299154    -1.176472605946     0.246256916567    12.000000000000
         C            3.111963700846     0.621134394054     0.247068916567    12.000000000000
         C           -3.203369299154     0.000068394054     0.023269916567    12.000000000000
         C            2.975961700846    -0.682358605946    -0.259600083433    12.000000000000
         H           -0.594682299154     2.136239394054    -0.480888083433     1.007825032230
         H           -0.508413299154    -2.063366605946     0.425372916567     1.007825032230
         H            1.416767700846     1.994166394054     0.818644916567     1.007825032230
         H           -3.077500299154     2.110047394054    -0.412801083433     1.007825032230
         H           -3.007983299154    -2.109455605946     0.434387916567     1.007825032230
         H            4.022119700846     1.158227394054     0.474531916567     1.007825032230
         H           -4.290102299154    -0.015944605946     0.031378916567     1.007825032230
         H            3.747382700846    -1.389355605946    -0.536600083433     1.007825032230

  Basis Set: AUG-CC-PVTZ
    Blend: AUG-CC-PVTZ
  Basis Set: (AUG-CC-PVTZ AUX)
    Blend: AUG-CC-PVTZ-JKFIT
	 Reference Energy          =    -454.4645246642254506 [Eh]
	 Singles Energy            =      -0.0000000000000000 [Eh]
	 Same-Spin Energy          =      -0.5095884261661984 [Eh]
	 Opposite-Spin Energy      =      -1.5495097569873415 [Eh]
	 Correlation Energy        =      -2.0590981831535400 [Eh]
	 Total Energy              =    -456.5236228473789879 [Eh]

	 ================> DF-SCS-MP2 Energies <==================
	-----------------------------------------------------------
	 SCS Same-Spin Scale       =       0.3333333333333333 [-]
	 SCS Opposite-Spin Scale   =       1.2000000000000000 [-]
	 SCS Same-Spin Energy      =      -0.1698628087220661 [Eh]
	 SCS Opposite-Spin Energy  =      -1.8594117083848096 [Eh]
	 SCS Correlation Energy    =      -2.0292745171068756 [Eh]
	 SCS Total Energy          =    -456.4937991813323492 [Eh]
	-----------------------------------------------------------

  Dipole Moment: [D]
     X:    -0.8779      Y:     1.6112      Z:     0.7599     Total:     1.9860

*** Psi4 exiting successfully. Buy a developer a beer!
