                               Psi4 1.3.2 release

  ==> Input File <==

--------------------------------------------------------------------------
#psi4
#
memory 32 gb

molecule  {
0 1
  N        1.0119030     0.0333230     0.0008060
  N        1.6997840    -1.0566340    -0.4179730
  C       -0.4063900     0.0163860    -0.0081010
  C       -1.1947924     1.1455723    -0.2437021
  C       -1.0729400    -1.1865160     0.2388070
  C        1.8312940     1.0508850     0.4071570
  C       -2.5072630     1.1720280    -0.2304200
  C       -2.4668310    -1.1992430     0.2370020
  C        3.1277520     0.5983640     0.2378140
  C       -3.1875810    -0.0227020     0.0140150
  C        2.9917500    -0.7051290    -0.2688550
  H       -0.5788940     2.1134690    -0.4901430
  H       -0.4926250    -2.0861370     0.4161180
  H        1.4325560     1.9713960     0.8093900
  H       -3.0617120     2.0872770    -0.4220560
  H       -2.9921950    -2.1322260     0.4251330
  H        4.0379080     1.1354570     0.4652770
  H       -4.2743140    -0.0387150     0.0221240
  H        3.7631710    -1.4121260    -0.5458550
units angstrom
no_reorient  #important for SAPT in psi4, default
symmetry c1  #important for SAPT in psi4, default
}

set PROPERTIES_ORIGIN ["COM"]
properties('MP2/aug-cc-pvtz', properties = ['dipole'])
--------------------------------------------------------------------------

    Molecular point group: c1
  Charge       = 0
  Multiplicity = 1
  Basis Set: AUG-CC-PVTZ
    Blend: AUG-CC-PVTZ
  Basis Set: (AUG-CC-PVTZ AUX)
    Blend: AUG-CC-PVTZ-JKFIT

    Orbital Energies [Eh]
    ---------------------

    Doubly Occupied:

       1A    -15.654450     2A    -15.591835     3A    -11.290498
       4A    -11.283424     5A    -11.260770     6A    -11.245948
       7A    -11.243619     8A    -11.240921     9A    -11.240412
      10A    -11.237194    11A    -11.228694    12A     -1.383362
      13A     -1.181418    14A     -1.114378    15A     -1.065616
      16A     -1.031323    17A     -0.997834    18A     -0.863236
      19A     -0.843755    20A     -0.796330    21A     -0.782457
      22A     -0.743396    23A     -0.685916    24A     -0.652094
      25A     -0.634483    26A     -0.616213    27A     -0.601579
      28A     -0.590277    29A     -0.586251    30A     -0.564218
      31A     -0.526057    32A     -0.517911    33A     -0.489256
      34A     -0.462985    35A     -0.395695    36A     -0.355982
      37A     -0.349631    38A     -0.311228

  @DF-RHF Final Energy:  -454.47599900865077

   => Energetics <=

    Nuclear Repulsion Energy =            547.2454288612989330
    One-Electron Energy =               -1700.1215635670666870
    Two-Electron Energy =                 698.4001356971169798
    Total Energy =                       -454.4759990086507742
  Basis Set: (AUG-CC-PVTZ AUX)
    Blend: AUG-CC-PVTZ-RI
    Molecular point group: c1

    Geometry (in Angstrom), charge = 0, multiplicity = 1:

       Center              X                  Y                   Z               Mass
    ------------   -----------------  -----------------  -----------------  -----------------
         N            1.003789636689     0.048888767009     0.004635481771    14.003074004430
         N            1.691670636689    -1.041068232991    -0.414143518229    14.003074004430
         C           -0.414503363311     0.031951767009    -0.004271518229    12.000000000000
         C           -1.202905763311     1.161138067009    -0.239872618229    12.000000000000
         C           -1.081053363311    -1.170950232991     0.242636481771    12.000000000000
         C            1.823180636689     1.066450767009     0.410986481771    12.000000000000
         C           -2.515376363311     1.187593767009    -0.226590518229    12.000000000000
         C           -2.474944363311    -1.183677232991     0.240831481771    12.000000000000
         C            3.119638636689     0.613929767009     0.241643481771    12.000000000000
         C           -3.195694363311    -0.007136232991     0.017844481771    12.000000000000
         C            2.983636636689    -0.689563232991    -0.265025518229    12.000000000000
         H           -0.587007363311     2.129034767009    -0.486313518229     1.007825032230
         H           -0.500738363311    -2.070571232991     0.419947481771     1.007825032230
         H            1.424442636689     1.986961767009     0.813219481771     1.007825032230
         H           -3.069825363311     2.102842767009    -0.418226518229     1.007825032230
         H           -3.000308363311    -2.116660232991     0.428962481771     1.007825032230
         H            4.029794636689     1.151022767009     0.469106481771     1.007825032230
         H           -4.282427363311    -0.023149232991     0.025953481771     1.007825032230
         H            3.755057636689    -1.396560232991    -0.542025518229     1.007825032230

  Basis Set: AUG-CC-PVTZ
    Blend: AUG-CC-PVTZ
  Basis Set: (AUG-CC-PVTZ AUX)
    Blend: AUG-CC-PVTZ-JKFIT
	 Reference Energy          =    -454.4759990086507742 [Eh]
	 Singles Energy            =      -0.0000000000000000 [Eh]
	 Same-Spin Energy          =      -0.5098523982717174 [Eh]
	 Opposite-Spin Energy      =      -1.5480480870811388 [Eh]
	 Correlation Energy        =      -2.0579004853528562 [Eh]
	 Total Energy              =    -456.5338994940036059 [Eh]

	 ================> DF-SCS-MP2 Energies <==================
	-----------------------------------------------------------
	 SCS Same-Spin Scale       =       0.3333333333333333 [-]
	 SCS Opposite-Spin Scale   =       1.2000000000000000 [-]
	 SCS Same-Spin Energy      =      -0.1699507994239058 [Eh]
	 SCS Opposite-Spin Energy  =      -1.8576577044973666 [Eh]
	 SCS Correlation Energy    =      -2.0276085039212726 [Eh]
	 SCS Total Energy          =    -456.5036075125720458 [Eh]
	-----------------------------------------------------------

  Dipole Moment: [D]
     X:    -0.8402      Y:     1.6209      Z:     0.7505     Total:     1.9739

*** Psi4 exiting successfully. Buy a developer a beer!
