                               Psi4 1.3.2 release

  ==> Input File <==

--------------------------------------------------------------------------
#psi4
#
memory 32 gb

molecule  {
0 1
  N        1.0119030     0.0333230     0.0008060
  N        1.6997840    -1.0566340    -0.4179730
  C       -0.6063718     0.0139979    -0.0093569
  C       -1.1124080     1.1967220    -0.2540550
  C       -1.0729400    -1.1865160     0.2388070
  C        1.8312940     1.0508850     0.4071570
  C       -2.5072630     1.1720280    -0.2304200
  C       -2.4668310    -1.1992430     0.2370020
  C        3.1277520     0.5983640     0.2378140
  C       -3.1875810    -0.0227020     0.0140150
  C        2.9917500    -0.7051290    -0.2688550
  H       -0.5788940     2.1134690    -0.4901430
  H       -0.4926250    -2.0861370     0.4161180
  H        1.4325560     1.9713960     0.8093900
  H       -3.0617120     2.0872770    -0.4220560
  H       -2.9921950    -2.1322260     0.4251330
  H        4.0379080     1.1354570     0.4652770
  H       -4.2743140    -0.0387150     0.0221240
  H        3.7631710    -1.4121260    -0.5458550
units angstrom
no_reorient  #important for SAPT in psi4, default
symmetry c1  #important for SAPT in psi4, default
}

set PROPERTIES_ORIGIN ["COM"]
properties('MP2/aug-cc-pvtz', properties = ['dipole'])
--------------------------------------------------------------------------

    Molecular point group: c1
  Charge       = 0
  Multiplicity = 1
  Basis Set: AUG-CC-PVTZ
    Blend: AUG-CC-PVTZ
  Basis Set: (AUG-CC-PVTZ AUX)
    Blend: AUG-CC-PVTZ-JKFIT

    Orbital Energies [Eh]
    ---------------------

    Doubly Occupied:

       1A    -15.634653     2A    -15.578571     3A    -11.294931
       4A    -11.268261     5A    -11.256674     6A    -11.254868
       7A    -11.247615     8A    -11.247402     9A    -11.245469
      10A    -11.241845    11A    -11.214854    12A     -1.353580
      13A     -1.199413    14A     -1.084551    15A     -1.055189
      16A     -1.042966    17A     -1.007138    18A     -0.862493
      19A     -0.839850    20A     -0.786577    21A     -0.770540
      22A     -0.738280    23A     -0.684278    24A     -0.664281
      25A     -0.641984    26A     -0.620089    27A     -0.594780
      28A     -0.578438    29A     -0.577305    30A     -0.552260
      31A     -0.535746    32A     -0.529644    33A     -0.495743
      34A     -0.449764    35A     -0.383546    36A     -0.358924
      37A     -0.336303    38A     -0.327666

  @DF-RHF Final Energy:  -454.44598490283943

   => Energetics <=

    Nuclear Repulsion Energy =            546.2802205198315733
    One-Electron Energy =               -1698.3394648917076211
    Two-Electron Energy =                 697.6132594690366204
    Total Energy =                       -454.4459849028394274
  Basis Set: (AUG-CC-PVTZ AUX)
    Blend: AUG-CC-PVTZ-RI
    Molecular point group: c1

    Geometry (in Angstrom), charge = 0, multiplicity = 1:

       Center              X                  Y                   Z               Mass
    ------------   -----------------  -----------------  -----------------  -----------------
         N            1.013584743657     0.044827239391     0.005602420136    14.003074004430
         N            1.701465743657    -1.045129760609    -0.413176579864    14.003074004430
         C           -0.604690056343     0.025502139391    -0.004560479864    12.000000000000
         C           -1.110726256343     1.208226239391    -0.249258579864    12.000000000000
         C           -1.071258256343    -1.175011760609     0.243603420136    12.000000000000
         C            1.832975743657     1.062389239391     0.411953420136    12.000000000000
         C           -2.505581256343     1.183532239391    -0.225623579864    12.000000000000
         C           -2.465149256343    -1.187738760609     0.241798420136    12.000000000000
         C            3.129433743657     0.609868239391     0.242610420136    12.000000000000
         C           -3.185899256343    -0.011197760609     0.018811420136    12.000000000000
         C            2.993431743657    -0.693624760609    -0.264058579864    12.000000000000
         H           -0.577212256343     2.124973239391    -0.485346579864     1.007825032230
         H           -0.490943256343    -2.074632760609     0.420914420136     1.007825032230
         H            1.434237743657     1.982900239391     0.814186420136     1.007825032230
         H           -3.060030256343     2.098781239391    -0.417259579864     1.007825032230
         H           -2.990513256343    -2.120721760609     0.429929420136     1.007825032230
         H            4.039589743657     1.146961239391     0.470073420136     1.007825032230
         H           -4.272632256343    -0.027210760609     0.026920420136     1.007825032230
         H            3.764852743657    -1.400621760609    -0.541058579864     1.007825032230

  Basis Set: AUG-CC-PVTZ
    Blend: AUG-CC-PVTZ
  Basis Set: (AUG-CC-PVTZ AUX)
    Blend: AUG-CC-PVTZ-JKFIT
	 Reference Energy          =    -454.4459849028394274 [Eh]
	 Singles Energy            =      -0.0000000000000000 [Eh]
	 Same-Spin Energy          =      -0.5107734239777023 [Eh]
	 Opposite-Spin Energy      =      -1.5498049760881960 [Eh]
	 Correlation Energy        =      -2.0605784000658982 [Eh]
	 Total Energy              =    -456.5065633029053060 [Eh]

	 ================> DF-SCS-MP2 Energies <==================
	-----------------------------------------------------------
	 SCS Same-Spin Scale       =       0.3333333333333333 [-]
	 SCS Opposite-Spin Scale   =       1.2000000000000000 [-]
	 SCS Same-Spin Energy      =      -0.1702578079925674 [Eh]
	 SCS Opposite-Spin Energy  =      -1.8597659713058352 [Eh]
	 SCS Correlation Energy    =      -2.0300237792984026 [Eh]
	 SCS Total Energy          =    -456.4760086821378309 [Eh]
	-----------------------------------------------------------

  Dipole Moment: [D]
     X:    -2.0746      Y:     1.6373      Z:     0.7277     Total:     2.7413

*** Psi4 exiting successfully. Buy a developer a beer!
