                               Psi4 1.3.2 release

  ==> Input File <==

--------------------------------------------------------------------------
#psi4
#
memory 32 gb

molecule  {
0 1
  N        1.0311387     0.0205147    -0.0052067
  N        1.6997840    -1.0566340    -0.4179730
  C       -0.4063900     0.0163860    -0.0081010
  C       -1.1124080     1.1967220    -0.2540550
  C       -1.0729400    -1.1865160     0.2388070
  C        1.8312940     1.0508850     0.4071570
  C       -2.5072630     1.1720280    -0.2304200
  C       -2.4668310    -1.1992430     0.2370020
  C        3.1277520     0.5983640     0.2378140
  C       -3.1875810    -0.0227020     0.0140150
  C        2.9917500    -0.7051290    -0.2688550
  H       -0.5788940     2.1134690    -0.4901430
  H       -0.4926250    -2.0861370     0.4161180
  H        1.4325560     1.9713960     0.8093900
  H       -3.0617120     2.0872770    -0.4220560
  H       -2.9921950    -2.1322260     0.4251330
  H        4.0379080     1.1354570     0.4652770
  H       -4.2743140    -0.0387150     0.0221240
  H        3.7631710    -1.4121260    -0.5458550
units angstrom
no_reorient  #important for SAPT in psi4, default
symmetry c1  #important for SAPT in psi4, default
}

set PROPERTIES_ORIGIN ["COM"]
properties('MP2/aug-cc-pvtz', properties = ['dipole'])
--------------------------------------------------------------------------

    Molecular point group: c1
  Charge       = 0
  Multiplicity = 1
  Basis Set: AUG-CC-PVTZ
    Blend: AUG-CC-PVTZ
  Basis Set: (AUG-CC-PVTZ AUX)
    Blend: AUG-CC-PVTZ-JKFIT

    Orbital Energies [Eh]
    ---------------------

    Doubly Occupied:

       1A    -15.653253     2A    -15.590233     3A    -11.293102
       4A    -11.279995     5A    -11.256831     6A    -11.249123
       7A    -11.247887     8A    -11.246576     9A    -11.241999
      10A    -11.241828    11A    -11.227334    12A     -1.389669
      13A     -1.174583    14A     -1.107728    15A     -1.065997
      16A     -1.025200    17A     -0.998871    18A     -0.857988
      19A     -0.847931    20A     -0.799337    21A     -0.777037
      22A     -0.743272    23A     -0.687514    24A     -0.649401
      25A     -0.639456    26A     -0.616763    27A     -0.597791
      28A     -0.594049    29A     -0.589474    30A     -0.562548
      31A     -0.520014    32A     -0.511786    33A     -0.507610
      34A     -0.464530    35A     -0.392350    36A     -0.350029
      37A     -0.346727    38A     -0.314419

  @DF-RHF Final Energy:  -454.48781629375424

   => Energetics <=

    Nuclear Repulsion Energy =            546.4306386071668840
    One-Electron Energy =               -1698.5164450412046335
    Two-Electron Energy =                 697.5979901402835139
    Total Energy =                       -454.4878162937542356
  Basis Set: (AUG-CC-PVTZ AUX)
    Blend: AUG-CC-PVTZ-RI
    Molecular point group: c1

    Geometry (in Angstrom), charge = 0, multiplicity = 1:

       Center              X                  Y                   Z               Mass
    ------------   -----------------  -----------------  -----------------  -----------------
         N            1.014293590591     0.033064956481     0.000069529143    14.003074004430
         N            1.682938890591    -1.044083743519    -0.412696770857    14.003074004430
         C           -0.423235109409     0.028936256481    -0.002824770857    12.000000000000
         C           -1.129253109409     1.209272256481    -0.248778770857    12.000000000000
         C           -1.089785109409    -1.173965743519     0.244083229143    12.000000000000
         C            1.814448890591     1.063435256481     0.412433229143    12.000000000000
         C           -2.524108109409     1.184578256481    -0.225143770857    12.000000000000
         C           -2.483676109409    -1.186692743519     0.242278229143    12.000000000000
         C            3.110906890591     0.610914256481     0.243090229143    12.000000000000
         C           -3.204426109409    -0.010151743519     0.019291229143    12.000000000000
         C            2.974904890591    -0.692578743519    -0.263578770857    12.000000000000
         H           -0.595739109409     2.126019256481    -0.484866770857     1.007825032230
         H           -0.509470109409    -2.073586743519     0.421394229143     1.007825032230
         H            1.415710890591     1.983946256481     0.814666229143     1.007825032230
         H           -3.078557109409     2.099827256481    -0.416779770857     1.007825032230
         H           -3.009040109409    -2.119675743519     0.430409229143     1.007825032230
         H            4.021062890591     1.148007256481     0.470553229143     1.007825032230
         H           -4.291159109409    -0.026164743519     0.027400229143     1.007825032230
         H            3.746325890591    -1.399575743519    -0.540578770857     1.007825032230

  Basis Set: AUG-CC-PVTZ
    Blend: AUG-CC-PVTZ
  Basis Set: (AUG-CC-PVTZ AUX)
    Blend: AUG-CC-PVTZ-JKFIT
	 Reference Energy          =    -454.4878162937542356 [Eh]
	 Singles Energy            =      -0.0000000000000000 [Eh]
	 Same-Spin Energy          =      -0.5096942358545890 [Eh]
	 Opposite-Spin Energy      =      -1.5475656216412192 [Eh]
	 Correlation Energy        =      -2.0572598574958083 [Eh]
	 Total Energy              =    -456.5450761512500435 [Eh]

	 ================> DF-SCS-MP2 Energies <==================
	-----------------------------------------------------------
	 SCS Same-Spin Scale       =       0.3333333333333333 [-]
	 SCS Opposite-Spin Scale   =       1.2000000000000000 [-]
	 SCS Same-Spin Energy      =      -0.1698980786181963 [Eh]
	 SCS Opposite-Spin Energy  =      -1.8570787459694631 [Eh]
	 SCS Correlation Energy    =      -2.0269768245876594 [Eh]
	 SCS Total Energy          =    -456.5147931183419132 [Eh]
	-----------------------------------------------------------

  Dipole Moment: [D]
     X:    -0.9724      Y:     1.6477      Z:     0.7385     Total:     2.0509

*** Psi4 exiting successfully. Buy a developer a beer!
