                               Psi4 1.3.2 release

  ==> Input File <==

--------------------------------------------------------------------------
#psi4
#
memory 32 gb

molecule  {
0 1
  N        1.0119030     0.0333230     0.0008060
  N        1.6997840    -1.0566340    -0.4179730
  C       -0.4063900     0.0163860    -0.0081010
  C       -1.1124080     1.1967220    -0.2540550
  C       -1.0729400    -1.1865160     0.2388070
  C        1.8312940     1.0508850     0.4071570
  C       -2.5072630     1.1720280    -0.2304200
  C       -2.4668310    -1.1992430     0.2370020
  C        3.2214561     0.5656571     0.2255744
  C       -3.1875810    -0.0227020     0.0140150
  C        2.9917500    -0.7051290    -0.2688550
  H       -0.5788940     2.1134690    -0.4901430
  H       -0.4926250    -2.0861370     0.4161180
  H        1.4325560     1.9713960     0.8093900
  H       -3.0617120     2.0872770    -0.4220560
  H       -2.9921950    -2.1322260     0.4251330
  H        4.0379080     1.1354570     0.4652770
  H       -4.2743140    -0.0387150     0.0221240
  H        3.7631710    -1.4121260    -0.5458550
units angstrom
no_reorient  #important for SAPT in psi4, default
symmetry c1  #important for SAPT in psi4, default
}

set PROPERTIES_ORIGIN ["COM"]
properties('MP2/aug-cc-pvtz', properties = ['dipole'])
--------------------------------------------------------------------------

    Molecular point group: c1
  Charge       = 0
  Multiplicity = 1
  Basis Set: AUG-CC-PVTZ
    Blend: AUG-CC-PVTZ
  Basis Set: (AUG-CC-PVTZ AUX)
    Blend: AUG-CC-PVTZ-JKFIT

    Orbital Energies [Eh]
    ---------------------

    Doubly Occupied:

       1A    -15.660441     2A    -15.585288     3A    -11.293708
       4A    -11.293645     5A    -11.258651     6A    -11.250028
       7A    -11.248821     8A    -11.247479     9A    -11.243376
      10A    -11.243154    11A    -11.231175    12A     -1.380826
      13A     -1.176731    14A     -1.112207    15A     -1.051904
      16A     -1.025258    17A     -1.001857    18A     -0.867310
      19A     -0.848029    20A     -0.801455    21A     -0.775549
      22A     -0.742531    23A     -0.688482    24A     -0.651255
      25A     -0.639619    26A     -0.624564    27A     -0.603562
      28A     -0.598320    29A     -0.592170    30A     -0.538373
      31A     -0.522193    32A     -0.511343    33A     -0.508950
      34A     -0.463405    35A     -0.397535    36A     -0.348614
      37A     -0.335547    38A     -0.317322

  @DF-RHF Final Energy:  -454.47359794883971

   => Energetics <=

    Nuclear Repulsion Energy =            544.8294594152787340
    One-Electron Energy =               -1695.2447601173446401
    Two-Electron Energy =                 695.9417027532261955
    Total Energy =                       -454.4735979488397106
  Basis Set: (AUG-CC-PVTZ AUX)
    Blend: AUG-CC-PVTZ-RI
    Molecular point group: c1

    Geometry (in Angstrom), charge = 0, multiplicity = 1:

       Center              X                  Y                   Z               Mass
    ------------   -----------------  -----------------  -----------------  -----------------
         N            0.989122597339     0.047352600404     0.006517291693    14.003074004430
         N            1.677003597339    -1.042604399596    -0.412261708307    14.003074004430
         C           -0.429170402661     0.030415600404    -0.002389708307    12.000000000000
         C           -1.135188402661     1.210751600404    -0.248343708307    12.000000000000
         C           -1.095720402661    -1.172486399596     0.244518291693    12.000000000000
         C            1.808513597339     1.064914600404     0.412868291693    12.000000000000
         C           -2.530043402661     1.186057600404    -0.224708708307    12.000000000000
         C           -2.489611402661    -1.185213399596     0.242713291693    12.000000000000
         C            3.198675697339     0.579686700404     0.231285691693    12.000000000000
         C           -3.210361402661    -0.008672399596     0.019726291693    12.000000000000
         C            2.968969597339    -0.691099399596    -0.263143708307    12.000000000000
         H           -0.601674402661     2.127498600404    -0.484431708307     1.007825032230
         H           -0.515405402661    -2.072107399596     0.421829291693     1.007825032230
         H            1.409775597339     1.985425600404     0.815101291693     1.007825032230
         H           -3.084492402661     2.101306600404    -0.416344708307     1.007825032230
         H           -3.014975402661    -2.118196399596     0.430844291693     1.007825032230
         H            4.015127597339     1.149486600404     0.470988291693     1.007825032230
         H           -4.297094402661    -0.024685399596     0.027835291693     1.007825032230
         H            3.740390597339    -1.398096399596    -0.540143708307     1.007825032230

  Basis Set: AUG-CC-PVTZ
    Blend: AUG-CC-PVTZ
  Basis Set: (AUG-CC-PVTZ AUX)
    Blend: AUG-CC-PVTZ-JKFIT
	 Reference Energy          =    -454.4735979488397106 [Eh]
	 Singles Energy            =      -0.0000000000000000 [Eh]
	 Same-Spin Energy          =      -0.5106224883953677 [Eh]
	 Opposite-Spin Energy      =      -1.5500178479068178 [Eh]
	 Correlation Energy        =      -2.0606403363021855 [Eh]
	 Total Energy              =    -456.5342382851418961 [Eh]

	 ================> DF-SCS-MP2 Energies <==================
	-----------------------------------------------------------
	 SCS Same-Spin Scale       =       0.3333333333333333 [-]
	 SCS Opposite-Spin Scale   =       1.2000000000000000 [-]
	 SCS Same-Spin Energy      =      -0.1702074961317892 [Eh]
	 SCS Opposite-Spin Energy  =      -1.8600214174881813 [Eh]
	 SCS Correlation Energy    =      -2.0302289136199705 [Eh]
	 SCS Total Energy          =    -456.5038268624596753 [Eh]
	-----------------------------------------------------------

  Dipole Moment: [D]
     X:    -1.0746      Y:     1.6392      Z:     0.7406     Total:     2.0953

*** Psi4 exiting successfully. Buy a developer a beer!
