                               Psi4 1.3.2 release

  ==> Input File <==

--------------------------------------------------------------------------
#psi4
#
memory 32 gb

molecule  {
0 1
  N        1.0119030     0.0333230     0.0008060
  N        1.6997840    -1.0566340    -0.4179730
  C       -0.4063900     0.0163860    -0.0081010
  C       -1.1124080     1.1967220    -0.2540550
  C       -1.0729400    -1.1865160     0.2388070
  C        1.8312940     1.0508850     0.4071570
  C       -2.5072630     1.1720280    -0.2304200
  C       -2.4668310    -1.1992430     0.2370020
  C        3.1277520     0.5983640     0.2378140
  C       -3.1875810    -0.0227020     0.0140150
  C        2.9917500    -0.7051290    -0.2688550
  H       -0.5788940     2.1134690    -0.4901430
  H       -0.4926250    -2.0861370     0.4161180
  H        1.4694489     1.8862264     0.7721737
  H       -3.0617120     2.0872770    -0.4220560
  H       -2.9921950    -2.1322260     0.4251330
  H        4.0379080     1.1354570     0.4652770
  H       -4.2743140    -0.0387150     0.0221240
  H        3.7631710    -1.4121260    -0.5458550
units angstrom
no_reorient  #important for SAPT in psi4, default
symmetry c1  #important for SAPT in psi4, default
}

set PROPERTIES_ORIGIN ["COM"]
properties('MP2/aug-cc-pvtz', properties = ['dipole'])
--------------------------------------------------------------------------

    Molecular point group: c1
  Charge       = 0
  Multiplicity = 1
  Basis Set: AUG-CC-PVTZ
    Blend: AUG-CC-PVTZ
  Basis Set: (AUG-CC-PVTZ AUX)
    Blend: AUG-CC-PVTZ-JKFIT

    Orbital Energies [Eh]
    ---------------------

    Doubly Occupied:

       1A    -15.651432     2A    -15.590595     3A    -11.291857
       4A    -11.271463     5A    -11.259204     6A    -11.248407
       7A    -11.246967     8A    -11.246114     9A    -11.241145
      10A    -11.240988    11A    -11.227715    12A     -1.382227
      13A     -1.175609    14A     -1.110930    15A     -1.067075
      16A     -1.024688    17A     -0.998152    18A     -0.862726
      19A     -0.848068    20A     -0.804009    21A     -0.782990
      22A     -0.751792    23A     -0.688383    24A     -0.649489
      25A     -0.640221    26A     -0.616211    27A     -0.597590
      28A     -0.595588    29A     -0.592444    30A     -0.567084
      31A     -0.520425    32A     -0.510925    33A     -0.507130
      34A     -0.463038    35A     -0.394831    36A     -0.349824
      37A     -0.346445    38A     -0.312953

  @DF-RHF Final Energy:  -454.48193781607608

   => Energetics <=

    Nuclear Repulsion Energy =            546.8929723034488006
    One-Electron Energy =               -1699.3963465566973809
    Two-Electron Energy =                 698.0214364371726106
    Total Energy =                       -454.4819378160760834
  Basis Set: (AUG-CC-PVTZ AUX)
    Blend: AUG-CC-PVTZ-RI
    Molecular point group: c1

    Geometry (in Angstrom), charge = 0, multiplicity = 1:

       Center              X                  Y                   Z               Mass
    ------------   -----------------  -----------------  -----------------  -----------------
         N            0.996669463852     0.045224125292     0.005758156332    14.003074004430
         N            1.684550463852    -1.044732874708    -0.413020843668    14.003074004430
         C           -0.421623536148     0.028287125292    -0.003148843668    12.000000000000
         C           -1.127641536148     1.208623125292    -0.249102843668    12.000000000000
         C           -1.088173536148    -1.174614874708     0.243759156332    12.000000000000
         C            1.816060463852     1.062786125292     0.412109156332    12.000000000000
         C           -2.522496536148     1.183929125292    -0.225467843668    12.000000000000
         C           -2.482064536148    -1.187341874708     0.241954156332    12.000000000000
         C            3.112518463852     0.610265125292     0.242766156332    12.000000000000
         C           -3.202814536148    -0.010800874708     0.018967156332    12.000000000000
         C            2.976516463852    -0.693227874708    -0.263902843668    12.000000000000
         H           -0.594127536148     2.125370125292    -0.485190843668     1.007825032230
         H           -0.507858536148    -2.074235874708     0.421070156332     1.007825032230
         H            1.454215363852     1.898127525292     0.777125856332     1.007825032230
         H           -3.076945536148     2.099178125292    -0.417103843668     1.007825032230
         H           -3.007428536148    -2.120324874708     0.430085156332     1.007825032230
         H            4.022674463852     1.147358125292     0.470229156332     1.007825032230
         H           -4.289547536148    -0.026813874708     0.027076156332     1.007825032230
         H            3.747937463852    -1.400224874708    -0.540902843668     1.007825032230

  Basis Set: AUG-CC-PVTZ
    Blend: AUG-CC-PVTZ
  Basis Set: (AUG-CC-PVTZ AUX)
    Blend: AUG-CC-PVTZ-JKFIT
	 Reference Energy          =    -454.4819378160760834 [Eh]
	 Singles Energy            =      -0.0000000000000000 [Eh]
	 Same-Spin Energy          =      -0.5094516975456523 [Eh]
	 Opposite-Spin Energy      =      -1.5473404535435180 [Eh]
	 Correlation Energy        =      -2.0567921510891702 [Eh]
	 Total Energy              =    -456.5387299671652386 [Eh]

	 ================> DF-SCS-MP2 Energies <==================
	-----------------------------------------------------------
	 SCS Same-Spin Scale       =       0.3333333333333333 [-]
	 SCS Opposite-Spin Scale   =       1.2000000000000000 [-]
	 SCS Same-Spin Energy      =      -0.1698172325152174 [Eh]
	 SCS Opposite-Spin Energy  =      -1.8568085442522215 [Eh]
	 SCS Correlation Energy    =      -2.0266257767674389 [Eh]
	 SCS Total Energy          =    -456.5085635928435295 [Eh]
	-----------------------------------------------------------

  Dipole Moment: [D]
     X:    -0.8895      Y:     1.6272      Z:     0.7328     Total:     1.9940

*** Psi4 exiting successfully. Buy a developer a beer!
