                               Psi4 1.3.2 release

  ==> Input File <==

--------------------------------------------------------------------------
#psi4
#
memory 32 gb

molecule  {
0 1
  N        1.0119030     0.0333230     0.0008060
  N        1.6997840    -1.0566340    -0.4179730
  C       -0.4063900     0.0163860    -0.0081010
  C       -1.1124080     1.1967220    -0.2540550
  C       -1.0729400    -1.1865160     0.2388070
  C        1.8399204     1.0717557     0.4157068
  C       -2.5072630     1.1720280    -0.2304200
  C       -2.4668310    -1.1992430     0.2370020
  C        3.1277520     0.5983640     0.2378140
  C       -3.1875810    -0.0227020     0.0140150
  C        2.9917500    -0.7051290    -0.2688550
  H       -0.5788940     2.1134690    -0.4901430
  H       -0.4926250    -2.0861370     0.4161180
  H        1.4325560     1.9713960     0.8093900
  H       -3.0617120     2.0872770    -0.4220560
  H       -2.9921950    -2.1322260     0.4251330
  H        4.0379080     1.1354570     0.4652770
  H       -4.2743140    -0.0387150     0.0221240
  H        3.7631710    -1.4121260    -0.5458550
units angstrom
no_reorient  #important for SAPT in psi4, default
symmetry c1  #important for SAPT in psi4, default
}

set PROPERTIES_ORIGIN ["COM"]
properties('MP2/aug-cc-pvtz', properties = ['dipole'])
--------------------------------------------------------------------------

    Molecular point group: c1
  Charge       = 0
  Multiplicity = 1
  Basis Set: AUG-CC-PVTZ
    Blend: AUG-CC-PVTZ
  Basis Set: (AUG-CC-PVTZ AUX)
    Blend: AUG-CC-PVTZ-JKFIT

    Orbital Energies [Eh]
    ---------------------

    Doubly Occupied:

       1A    -15.651330     2A    -15.593465     3A    -11.291022
       4A    -11.283311     5A    -11.259944     6A    -11.247726
       7A    -11.246066     8A    -11.245529     9A    -11.240327
      10A    -11.240177    11A    -11.230195    12A     -1.378298
      13A     -1.174819    14A     -1.108575    15A     -1.063557
      16A     -1.023926    17A     -0.996875    18A     -0.859960
      19A     -0.847322    20A     -0.797165    21A     -0.778249
      22A     -0.742817    23A     -0.686558    24A     -0.648094
      25A     -0.639431    26A     -0.613700    27A     -0.596798
      28A     -0.594465    29A     -0.588035    30A     -0.566936
      31A     -0.519374    32A     -0.510212    33A     -0.506517
      34A     -0.463939    35A     -0.394564    36A     -0.350438
      37A     -0.346021    38A     -0.311703

  @DF-RHF Final Energy:  -454.48616933982811

   => Energetics <=

    Nuclear Repulsion Energy =            545.8447223096266043
    One-Electron Energy =               -1697.3869131227927483
    Two-Electron Energy =                 697.0560214733379780
    Total Energy =                       -454.4861693398281659
  Basis Set: (AUG-CC-PVTZ AUX)
    Blend: AUG-CC-PVTZ-RI
    Molecular point group: c1

    Geometry (in Angstrom), charge = 0, multiplicity = 1:

       Center              X                  Y                   Z               Mass
    ------------   -----------------  -----------------  -----------------  -----------------
         N            0.996209022482     0.042889930965     0.004785668402    14.003074004430
         N            1.684090022482    -1.047067069035    -0.413993331598    14.003074004430
         C           -0.422083977518     0.025952930965    -0.004121331598    12.000000000000
         C           -1.128101977518     1.206288930965    -0.250075331598    12.000000000000
         C           -1.088633977518    -1.176949069035     0.242786668402    12.000000000000
         C            1.824226422482     1.081322630965     0.419686468402    12.000000000000
         C           -2.522956977518     1.181594930965    -0.226440331598    12.000000000000
         C           -2.482524977518    -1.189676069035     0.240981668402    12.000000000000
         C            3.112058022482     0.607930930965     0.241793668402    12.000000000000
         C           -3.203274977518    -0.013135069035     0.017994668402    12.000000000000
         C            2.976056022482    -0.695562069035    -0.264875331598    12.000000000000
         H           -0.594587977518     2.123035930965    -0.486163331598     1.007825032230
         H           -0.508318977518    -2.076570069035     0.420097668402     1.007825032230
         H            1.416862022482     1.980962930965     0.813369668402     1.007825032230
         H           -3.077405977518     2.096843930965    -0.418076331598     1.007825032230
         H           -3.007888977518    -2.122659069035     0.429112668402     1.007825032230
         H            4.022214022482     1.145023930965     0.469256668402     1.007825032230
         H           -4.290007977518    -0.029148069035     0.026103668402     1.007825032230
         H            3.747477022482    -1.402559069035    -0.541875331598     1.007825032230

  Basis Set: AUG-CC-PVTZ
    Blend: AUG-CC-PVTZ
  Basis Set: (AUG-CC-PVTZ AUX)
    Blend: AUG-CC-PVTZ-JKFIT
	 Reference Energy          =    -454.4861693398281091 [Eh]
	 Singles Energy            =      -0.0000000000000000 [Eh]
	 Same-Spin Energy          =      -0.5099022640268557 [Eh]
	 Opposite-Spin Energy      =      -1.5486079112052373 [Eh]
	 Correlation Energy        =      -2.0585101752320929 [Eh]
	 Total Energy              =    -456.5446795150601815 [Eh]

	 ================> DF-SCS-MP2 Energies <==================
	-----------------------------------------------------------
	 SCS Same-Spin Scale       =       0.3333333333333333 [-]
	 SCS Opposite-Spin Scale   =       1.2000000000000000 [-]
	 SCS Same-Spin Energy      =      -0.1699674213422852 [Eh]
	 SCS Opposite-Spin Energy  =      -1.8583294934462846 [Eh]
	 SCS Correlation Energy    =      -2.0282969147885699 [Eh]
	 SCS Total Energy          =    -456.5144662546167069 [Eh]
	-----------------------------------------------------------

  Dipole Moment: [D]
     X:    -0.8317      Y:     1.6349      Z:     0.7386     Total:     1.9774

*** Psi4 exiting successfully. Buy a developer a beer!
