                               Psi4 1.3.2 release

  ==> Input File <==

--------------------------------------------------------------------------
#psi4
#
memory 32 gb

molecule  {
0 1
  N        1.0119030     0.0333230     0.0008060
  N        1.6997840    -1.0566340    -0.4179730
  C       -0.4922052    -0.0286518     0.0027628
  C       -1.1124080     1.1967220    -0.2540550
  C       -1.0729400    -1.1865160     0.2388070
  C        1.8312940     1.0508850     0.4071570
  C       -2.5072630     1.1720280    -0.2304200
  C       -2.4668310    -1.1992430     0.2370020
  C        3.1277520     0.5983640     0.2378140
  C       -3.1875810    -0.0227020     0.0140150
  C        2.9917500    -0.7051290    -0.2688550
  H       -0.5788940     2.1134690    -0.4901430
  H       -0.4926250    -2.0861370     0.4161180
  H        1.4325560     1.9713960     0.8093900
  H       -3.0617120     2.0872770    -0.4220560
  H       -2.9921950    -2.1322260     0.4251330
  H        4.0379080     1.1354570     0.4652770
  H       -4.2743140    -0.0387150     0.0221240
  H        3.7631710    -1.4121260    -0.5458550
units angstrom
no_reorient  #important for SAPT in psi4, default
symmetry c1  #important for SAPT in psi4, default
}

set PROPERTIES_ORIGIN ["COM"]
properties('MP2/aug-cc-pvtz', properties = ['dipole'])
--------------------------------------------------------------------------

    Molecular point group: c1
  Charge       = 0
  Multiplicity = 1
  Basis Set: AUG-CC-PVTZ
    Blend: AUG-CC-PVTZ
  Basis Set: (AUG-CC-PVTZ AUX)
    Blend: AUG-CC-PVTZ-JKFIT

    Orbital Energies [Eh]
    ---------------------

    Doubly Occupied:

       1A    -15.645958     2A    -15.585183     3A    -11.291113
       4A    -11.277421     5A    -11.253241     6A    -11.251461
       7A    -11.250217     8A    -11.250041     9A    -11.243718
      10A    -11.235676    11A    -11.222631    12A     -1.368963
      13A     -1.183076    14A     -1.098023    15A     -1.059484
      16A     -1.033151    17A     -1.002928    18A     -0.856013
      19A     -0.846227    20A     -0.794243    21A     -0.774518
      22A     -0.740054    23A     -0.687061    24A     -0.650813
      25A     -0.639818    26A     -0.615519    27A     -0.600707
      28A     -0.586353    29A     -0.584143    30A     -0.558944
      31A     -0.521876    32A     -0.519812    33A     -0.509249
      34A     -0.458135    35A     -0.388889    36A     -0.352282
      37A     -0.343419    38A     -0.321607

  @DF-RHF Final Energy:  -454.47646068368653

   => Energetics <=

    Nuclear Repulsion Energy =            546.2786037877286844
    One-Electron Energy =               -1698.3061925937824981
    Two-Electron Energy =                 697.5511281223671176
    Total Energy =                       -454.4764606836865823
  Basis Set: (AUG-CC-PVTZ AUX)
    Blend: AUG-CC-PVTZ-RI
    Molecular point group: c1

    Geometry (in Angstrom), charge = 0, multiplicity = 1:

       Center              X                  Y                   Z               Mass
    ------------   -----------------  -----------------  -----------------  -----------------
         N            1.004075400260     0.048379685055     0.004592927087    14.003074004430
         N            1.691956400260    -1.041577314945    -0.414186072913    14.003074004430
         C           -0.500032799740    -0.013595114945     0.006549727087    12.000000000000
         C           -1.120235599740     1.211778685055    -0.250268072913    12.000000000000
         C           -1.080767599740    -1.171459314945     0.242593927087    12.000000000000
         C            1.823466400260     1.065941685055     0.410943927087    12.000000000000
         C           -2.515090599740     1.187084685055    -0.226633072913    12.000000000000
         C           -2.474658599740    -1.184186314945     0.240788927087    12.000000000000
         C            3.119924400260     0.613420685055     0.241600927087    12.000000000000
         C           -3.195408599740    -0.007645314945     0.017801927087    12.000000000000
         C            2.983922400260    -0.690072314945    -0.265068072913    12.000000000000
         H           -0.586721599740     2.128525685055    -0.486356072913     1.007825032230
         H           -0.500452599740    -2.071080314945     0.419904927087     1.007825032230
         H            1.424728400260     1.986452685055     0.813176927087     1.007825032230
         H           -3.069539599740     2.102333685055    -0.418269072913     1.007825032230
         H           -3.000022599740    -2.117169314945     0.428919927087     1.007825032230
         H            4.030080400260     1.150513685055     0.469063927087     1.007825032230
         H           -4.282141599740    -0.023658314945     0.025910927087     1.007825032230
         H            3.755343400260    -1.397069314945    -0.542068072913     1.007825032230

  Basis Set: AUG-CC-PVTZ
    Blend: AUG-CC-PVTZ
  Basis Set: (AUG-CC-PVTZ AUX)
    Blend: AUG-CC-PVTZ-JKFIT
	 Reference Energy          =    -454.4764606836865255 [Eh]
	 Singles Energy            =      -0.0000000000000000 [Eh]
	 Same-Spin Energy          =      -0.5096082640195786 [Eh]
	 Opposite-Spin Energy      =      -1.5480911397792814 [Eh]
	 Correlation Energy        =      -2.0576994037988601 [Eh]
	 Total Energy              =    -456.5341600874853611 [Eh]

	 ================> DF-SCS-MP2 Energies <==================
	-----------------------------------------------------------
	 SCS Same-Spin Scale       =       0.3333333333333333 [-]
	 SCS Opposite-Spin Scale   =       1.2000000000000000 [-]
	 SCS Same-Spin Energy      =      -0.1698694213398595 [Eh]
	 SCS Opposite-Spin Energy  =      -1.8577093677351375 [Eh]
	 SCS Correlation Energy    =      -2.0275787890749970 [Eh]
	 SCS Total Energy          =    -456.5040394727615194 [Eh]
	-----------------------------------------------------------

  Dipole Moment: [D]
     X:    -1.3887      Y:     1.6211      Z:     0.7461     Total:     2.2612

*** Psi4 exiting successfully. Buy a developer a beer!
