                               Psi4 1.3.2 release

  ==> Input File <==

--------------------------------------------------------------------------
#psi4
#
memory 32 gb

molecule  {
0 1
  N        1.0119030     0.0333230     0.0008060
  N        1.7467634    -1.1802262    -0.4669940
  C       -0.4063900     0.0163860    -0.0081010
  C       -1.1124080     1.1967220    -0.2540550
  C       -1.0729400    -1.1865160     0.2388070
  C        1.8312940     1.0508850     0.4071570
  C       -2.5072630     1.1720280    -0.2304200
  C       -2.4668310    -1.1992430     0.2370020
  C        3.1277520     0.5983640     0.2378140
  C       -3.1875810    -0.0227020     0.0140150
  C        2.9917500    -0.7051290    -0.2688550
  H       -0.5788940     2.1134690    -0.4901430
  H       -0.4926250    -2.0861370     0.4161180
  H        1.4325560     1.9713960     0.8093900
  H       -3.0617120     2.0872770    -0.4220560
  H       -2.9921950    -2.1322260     0.4251330
  H        4.0379080     1.1354570     0.4652770
  H       -4.2743140    -0.0387150     0.0221240
  H        3.7631710    -1.4121260    -0.5458550
units angstrom
no_reorient  #important for SAPT in psi4, default
symmetry c1  #important for SAPT in psi4, default
}

set PROPERTIES_ORIGIN ["COM"]
properties('MP2/aug-cc-pvtz', properties = ['dipole'])
--------------------------------------------------------------------------

    Molecular point group: c1
  Charge       = 0
  Multiplicity = 1
  Basis Set: AUG-CC-PVTZ
    Blend: AUG-CC-PVTZ
  Basis Set: (AUG-CC-PVTZ AUX)
    Blend: AUG-CC-PVTZ-JKFIT

    Orbital Energies [Eh]
    ---------------------

    Doubly Occupied:

       1A    -15.642239     2A    -15.605004     3A    -11.298121
       4A    -11.288834     5A    -11.271375     6A    -11.245888
       7A    -11.243638     8A    -11.243369     9A    -11.237614
      10A    -11.237190    11A    -11.229486    12A     -1.339516
      13A     -1.172610    14A     -1.115032    15A     -1.061936
      16A     -1.022246    17A     -0.990815    18A     -0.857935
      19A     -0.842624    20A     -0.786751    21A     -0.780092
      22A     -0.741863    23A     -0.683482    24A     -0.642230
      25A     -0.633839    26A     -0.604208    27A     -0.593820
      28A     -0.590133    29A     -0.578640    30A     -0.556635
      31A     -0.517890    32A     -0.507794    33A     -0.506155
      34A     -0.475892    35A     -0.401227    36A     -0.356034
      37A     -0.344667    38A     -0.307527

  @DF-RHF Final Energy:  -454.46784741159649

   => Energetics <=

    Nuclear Repulsion Energy =            542.7050630801156785
    One-Electron Energy =               -1691.2371153320470967
    Two-Electron Energy =                 694.0642048403349236
    Total Energy =                       -454.4678474115964946
  Basis Set: (AUG-CC-PVTZ AUX)
    Blend: AUG-CC-PVTZ-RI
    Molecular point group: c1

    Geometry (in Angstrom), charge = 0, multiplicity = 1:

       Center              X                  Y                   Z               Mass
    ------------   -----------------  -----------------  -----------------  -----------------
         N            0.992361281583     0.056641137572     0.010262514007    14.003074004430
         N            1.727221681583    -1.156908062428    -0.457537485993    14.003074004430
         C           -0.425931718417     0.039704137572     0.001355514007    12.000000000000
         C           -1.131949718417     1.220040137572    -0.244598485993    12.000000000000
         C           -1.092481718417    -1.163197862428     0.248263514007    12.000000000000
         C            1.811752281583     1.074203137572     0.416613514007    12.000000000000
         C           -2.526804718417     1.195346137572    -0.220963485993    12.000000000000
         C           -2.486372718417    -1.175924862428     0.246458514007    12.000000000000
         C            3.108210281583     0.621682137572     0.247270514007    12.000000000000
         C           -3.207122718417     0.000616137572     0.023471514007    12.000000000000
         C            2.972208281583    -0.681810862428    -0.259398485993    12.000000000000
         H           -0.598435718417     2.136787137572    -0.480686485993     1.007825032230
         H           -0.512166718417    -2.062818862428     0.425574514007     1.007825032230
         H            1.413014281583     1.994714137572     0.818846514007     1.007825032230
         H           -3.081253718417     2.110595137572    -0.412599485993     1.007825032230
         H           -3.011736718417    -2.108907862428     0.434589514007     1.007825032230
         H            4.018366281583     1.158775137572     0.474733514007     1.007825032230
         H           -4.293855718417    -0.015396862428     0.031580514007     1.007825032230
         H            3.743629281583    -1.388807862428    -0.536398485993     1.007825032230

  Basis Set: AUG-CC-PVTZ
    Blend: AUG-CC-PVTZ
  Basis Set: (AUG-CC-PVTZ AUX)
    Blend: AUG-CC-PVTZ-JKFIT
	 Reference Energy          =    -454.4678474115964946 [Eh]
	 Singles Energy            =      -0.0000000000000000 [Eh]
	 Same-Spin Energy          =      -0.5100085467579578 [Eh]
	 Opposite-Spin Energy      =      -1.5521808455063506 [Eh]
	 Correlation Energy        =      -2.0621893922643082 [Eh]
	 Total Energy              =    -456.5300368038608099 [Eh]

	 ================> DF-SCS-MP2 Energies <==================
	-----------------------------------------------------------
	 SCS Same-Spin Scale       =       0.3333333333333333 [-]
	 SCS Opposite-Spin Scale   =       1.2000000000000000 [-]
	 SCS Same-Spin Energy      =      -0.1700028489193193 [Eh]
	 SCS Opposite-Spin Energy  =      -1.8626170146076206 [Eh]
	 SCS Correlation Energy    =      -2.0326198635269401 [Eh]
	 SCS Total Energy          =    -456.5004672751234125 [Eh]
	-----------------------------------------------------------

  Dipole Moment: [D]
     X:    -0.6889      Y:     1.7639      Z:     0.7899     Total:     2.0518

*** Psi4 exiting successfully. Buy a developer a beer!
