                               Psi4 1.3.2 release

  ==> Input File <==

--------------------------------------------------------------------------
#psi4
#
memory 32 gb

molecule  {
0 1
  N        1.0119030     0.0333230     0.0008060
  N        1.6669711    -0.9286526    -0.3686857
  C       -0.4063900     0.0163860    -0.0081010
  C       -1.1124080     1.1967220    -0.2540550
  C       -1.0729400    -1.1865160     0.2388070
  C        1.8312940     1.0508850     0.4071570
  C       -2.5072630     1.1720280    -0.2304200
  C       -2.4668310    -1.1992430     0.2370020
  C        3.1277520     0.5983640     0.2378140
  C       -3.1875810    -0.0227020     0.0140150
  C        2.9917500    -0.7051290    -0.2688550
  H       -0.5788940     2.1134690    -0.4901430
  H       -0.4926250    -2.0861370     0.4161180
  H        1.4325560     1.9713960     0.8093900
  H       -3.0617120     2.0872770    -0.4220560
  H       -2.9921950    -2.1322260     0.4251330
  H        4.0379080     1.1354570     0.4652770
  H       -4.2743140    -0.0387150     0.0221240
  H        3.7631710    -1.4121260    -0.5458550
units angstrom
no_reorient  #important for SAPT in psi4, default
symmetry c1  #important for SAPT in psi4, default
}

set PROPERTIES_ORIGIN ["COM"]
properties('MP2/aug-cc-pvtz', properties = ['dipole'])
--------------------------------------------------------------------------

    Molecular point group: c1
  Charge       = 0
  Multiplicity = 1
  Basis Set: AUG-CC-PVTZ
    Blend: AUG-CC-PVTZ
  Basis Set: (AUG-CC-PVTZ AUX)
    Blend: AUG-CC-PVTZ-JKFIT

    Orbital Energies [Eh]
    ---------------------

    Doubly Occupied:

       1A    -15.659483     2A    -15.577874     3A    -11.294141
       4A    -11.262928     5A    -11.251348     6A    -11.250008
       7A    -11.248848     8A    -11.247965     9A    -11.245568
      10A    -11.244852    11A    -11.226384    12A     -1.444897
      13A     -1.179803    14A     -1.109354    15A     -1.067256
      16A     -1.027014    17A     -1.005837    18A     -0.868084
      19A     -0.853866    20A     -0.811428    21A     -0.774843
      22A     -0.740326    23A     -0.690641    24A     -0.664847
      25A     -0.651071    26A     -0.627198    27A     -0.610818
      28A     -0.600272    29A     -0.589066    30A     -0.558907
      31A     -0.524858    32A     -0.514978    33A     -0.509163
      34A     -0.440172    35A     -0.392611    36A     -0.350097
      37A     -0.342817    38A     -0.313864

  @DF-RHF Final Energy:  -454.47528986602725

   => Energetics <=

    Nuclear Repulsion Energy =            550.3605431419133538
    One-Electron Energy =               -1706.1246864556107994
    Two-Electron Energy =                 701.2888534476700215
    Total Energy =                       -454.4752898660273104
  Basis Set: (AUG-CC-PVTZ AUX)
    Blend: AUG-CC-PVTZ-RI
    Molecular point group: c1

    Geometry (in Angstrom), charge = 0, multiplicity = 1:

       Center              X                  Y                   Z               Mass
    ------------   -----------------  -----------------  -----------------  -----------------
         N            1.000116866992     0.032188896674     0.000707225878    14.003074004430
         N            1.655184966992    -0.929786703326    -0.368784474122    14.003074004430
         C           -0.418176133008     0.015251896674    -0.008199774122    12.000000000000
         C           -1.124194133008     1.195587896674    -0.254153774122    12.000000000000
         C           -1.084726133008    -1.187650103326     0.238708225878    12.000000000000
         C            1.819507866992     1.049750896674     0.407058225878    12.000000000000
         C           -2.519049133008     1.170893896674    -0.230518774122    12.000000000000
         C           -2.478617133008    -1.200377103326     0.236903225878    12.000000000000
         C            3.115965866992     0.597229896674     0.237715225878    12.000000000000
         C           -3.199367133008    -0.023836103326     0.013916225878    12.000000000000
         C            2.979963866992    -0.706263103326    -0.268953774122    12.000000000000
         H           -0.590680133008     2.112334896674    -0.490241774122     1.007825032230
         H           -0.504411133008    -2.087271103326     0.416019225878     1.007825032230
         H            1.420769866992     1.970261896674     0.809291225878     1.007825032230
         H           -3.073498133008     2.086142896674    -0.422154774122     1.007825032230
         H           -3.003981133008    -2.133360103326     0.425034225878     1.007825032230
         H            4.026121866992     1.134322896674     0.465178225878     1.007825032230
         H           -4.286100133008    -0.039849103326     0.022025225878     1.007825032230
         H            3.751384866992    -1.413260103326    -0.545953774122     1.007825032230

  Basis Set: AUG-CC-PVTZ
    Blend: AUG-CC-PVTZ
  Basis Set: (AUG-CC-PVTZ AUX)
    Blend: AUG-CC-PVTZ-JKFIT
	 Reference Energy          =    -454.4752898660272535 [Eh]
	 Singles Energy            =      -0.0000000000000000 [Eh]
	 Same-Spin Energy          =      -0.5094939923548003 [Eh]
	 Opposite-Spin Energy      =      -1.5440578932978495 [Eh]
	 Correlation Energy        =      -2.0535518856526496 [Eh]
	 Total Energy              =    -456.5288417516799200 [Eh]

	 ================> DF-SCS-MP2 Energies <==================
	-----------------------------------------------------------
	 SCS Same-Spin Scale       =       0.3333333333333333 [-]
	 SCS Opposite-Spin Scale   =       1.2000000000000000 [-]
	 SCS Same-Spin Energy      =      -0.1698313307849334 [Eh]
	 SCS Opposite-Spin Energy  =      -1.8528694719574192 [Eh]
	 SCS Correlation Energy    =      -2.0227008027423525 [Eh]
	 SCS Total Energy          =    -456.4979906687696030 [Eh]
	-----------------------------------------------------------

  Dipole Moment: [D]
     X:    -1.1338      Y:     1.4072      Z:     0.6417     Total:     1.9177

*** Psi4 exiting successfully. Buy a developer a beer!
