                               Psi4 1.3.2 release

  ==> Input File <==

--------------------------------------------------------------------------
#psi4
#
memory 32 gb

molecule  {
0 1
  N        1.0119030     0.0333230     0.0008060
  N        1.7467519    -1.1807643    -0.4656265
  C       -0.4063900     0.0163860    -0.0081010
  C       -1.1124080     1.1967220    -0.2540550
  C       -1.0729400    -1.1865160     0.2388070
  C        1.8312940     1.0508850     0.4071570
  C       -2.5072630     1.1720280    -0.2304200
  C       -2.4668310    -1.1992430     0.2370020
  C        3.1277520     0.5983640     0.2378140
  C       -3.1875810    -0.0227020     0.0140150
  C        2.9917500    -0.7051290    -0.2688550
  H       -0.5788940     2.1134690    -0.4901430
  H       -0.4926250    -2.0861370     0.4161180
  H        1.4325560     1.9713960     0.8093900
  H       -3.0617120     2.0872770    -0.4220560
  H       -2.9921950    -2.1322260     0.4251330
  H        4.0379080     1.1354570     0.4652770
  H       -4.2743140    -0.0387150     0.0221240
  H        3.7631710    -1.4121260    -0.5458550
units angstrom
no_reorient  #important for SAPT in psi4, default
symmetry c1  #important for SAPT in psi4, default
}

set PROPERTIES_ORIGIN ["COM"]
properties('MP2/aug-cc-pvtz', properties = ['dipole'])
--------------------------------------------------------------------------

    Molecular point group: c1
  Charge       = 0
  Multiplicity = 1
  Basis Set: AUG-CC-PVTZ
    Blend: AUG-CC-PVTZ
  Basis Set: (AUG-CC-PVTZ AUX)
    Blend: AUG-CC-PVTZ-JKFIT

    Orbital Energies [Eh]
    ---------------------

    Doubly Occupied:

       1A    -15.642249     2A    -15.605009     3A    -11.298128
       4A    -11.288839     5A    -11.271385     6A    -11.245886
       7A    -11.243633     8A    -11.243364     9A    -11.237604
      10A    -11.237179    11A    -11.229493    12A     -1.339523
      13A     -1.172608    14A     -1.115034    15A     -1.061942
      16A     -1.022240    17A     -0.990813    18A     -0.857935
      19A     -0.842627    20A     -0.786751    21A     -0.780091
      22A     -0.741867    23A     -0.683475    24A     -0.642219
      25A     -0.633837    26A     -0.604226    27A     -0.593820
      28A     -0.590145    29A     -0.578645    30A     -0.556618
      31A     -0.517892    32A     -0.507794    33A     -0.506160
      34A     -0.475884    35A     -0.401251    36A     -0.356044
      37A     -0.344663    38A     -0.307506

  @DF-RHF Final Energy:  -454.46784865270473

   => Energetics <=

    Nuclear Repulsion Energy =            542.7059276404793309
    One-Electron Energy =               -1691.2387976673117009
    Two-Electron Energy =                 694.0650213741276957
    Total Energy =                       -454.4678486527046744
  Basis Set: (AUG-CC-PVTZ AUX)
    Blend: AUG-CC-PVTZ-RI
    Molecular point group: c1

    Geometry (in Angstrom), charge = 0, multiplicity = 1:

       Center              X                  Y                   Z               Mass
    ------------   -----------------  -----------------  -----------------  -----------------
         N            0.992362399351     0.056693439366     0.010129596883    14.003074004430
         N            1.727211299351    -1.157393860634    -0.456302903117    14.003074004430
         C           -0.425930600649     0.039756439366     0.001222596883    12.000000000000
         C           -1.131948600649     1.220092439366    -0.244731403117    12.000000000000
         C           -1.092480600649    -1.163145560634     0.248130596883    12.000000000000
         C            1.811753399351     1.074255439366     0.416480596883    12.000000000000
         C           -2.526803600649     1.195398439366    -0.221096403117    12.000000000000
         C           -2.486371600649    -1.175872560634     0.246325596883    12.000000000000
         C            3.108211399351     0.621734439366     0.247137596883    12.000000000000
         C           -3.207121600649     0.000668439366     0.023338596883    12.000000000000
         C            2.972209399351    -0.681758560634    -0.259531403117    12.000000000000
         H           -0.598434600649     2.136839439366    -0.480819403117     1.007825032230
         H           -0.512165600649    -2.062766560634     0.425441596883     1.007825032230
         H            1.413015399351     1.994766439366     0.818713596883     1.007825032230
         H           -3.081252600649     2.110647439366    -0.412732403117     1.007825032230
         H           -3.011735600649    -2.108855560634     0.434456596883     1.007825032230
         H            4.018367399351     1.158827439366     0.474600596883     1.007825032230
         H           -4.293854600649    -0.015344560634     0.031447596883     1.007825032230
         H            3.743630399351    -1.388755560634    -0.536531403117     1.007825032230

  Basis Set: AUG-CC-PVTZ
    Blend: AUG-CC-PVTZ
  Basis Set: (AUG-CC-PVTZ AUX)
    Blend: AUG-CC-PVTZ-JKFIT
	 Reference Energy          =    -454.4678486527047312 [Eh]
	 Singles Energy            =      -0.0000000000000000 [Eh]
	 Same-Spin Energy          =      -0.5100088929517723 [Eh]
	 Opposite-Spin Energy      =      -1.5521811400375403 [Eh]
	 Correlation Energy        =      -2.0621900329893128 [Eh]
	 Total Energy              =    -456.5300386856940236 [Eh]

	 ================> DF-SCS-MP2 Energies <==================
	-----------------------------------------------------------
	 SCS Same-Spin Scale       =       0.3333333333333333 [-]
	 SCS Opposite-Spin Scale   =       1.2000000000000000 [-]
	 SCS Same-Spin Energy      =      -0.1700029643172574 [Eh]
	 SCS Opposite-Spin Energy  =      -1.8626173680450482 [Eh]
	 SCS Correlation Energy    =      -2.0326203323623058 [Eh]
	 SCS Total Energy          =    -456.5004689850670161 [Eh]
	-----------------------------------------------------------

  Dipole Moment: [D]
     X:    -0.6879      Y:     1.7643      Z:     0.7889     Total:     2.0514

*** Psi4 exiting successfully. Buy a developer a beer!
