                               Psi4 1.4a3.dev225

  ==> Input File <==

--------------------------------------------------------------------------
#psi4
#
memory 32 gb

molecule  {
0 1
  N        1.0119030     0.0333230     0.0008060
  N        1.6997840    -1.0566340    -0.4179730
  C       -0.4063900     0.0163860    -0.0081010
  C       -1.1124080     1.1967220    -0.2540550
  C       -1.0729400    -1.1865160     0.2388070
  C        1.8612383     1.0880713     0.4220069
  C       -2.5072630     1.1720280    -0.2304200
  C       -2.4668310    -1.1992430     0.2370020
  C        3.1277520     0.5983640     0.2378140
  C       -3.1875810    -0.0227020     0.0140150
  C        2.9917500    -0.7051290    -0.2688550
  H       -0.5788940     2.1134690    -0.4901430
  H       -0.4926250    -2.0861370     0.4161180
  H        1.4325560     1.9713960     0.8093900
  H       -3.0617120     2.0872770    -0.4220560
  H       -2.9921950    -2.1322260     0.4251330
  H        4.0379080     1.1354570     0.4652770
  H       -4.2743140    -0.0387150     0.0221240
  H        3.7631710    -1.4121260    -0.5458550
units angstrom
no_reorient  #important for SAPT in psi4, default
symmetry c1  #important for SAPT in psi4, default
}

set PROPERTIES_ORIGIN ["COM"]
properties('MP2/aug-cc-pvtz', properties = ['dipole'])
--------------------------------------------------------------------------

    Molecular point group: c1
  Charge       = 0
  Multiplicity = 1
  Basis Set: AUG-CC-PVTZ
    Blend: AUG-CC-PVTZ
  Basis Set: (AUG-CC-PVTZ AUX)
    Blend: AUG-CC-PVTZ-JKFIT

    Orbital Energies [Eh]
    ---------------------

    Doubly Occupied:

       1A    -15.649401     2A    -15.596407     3A    -11.290304
       4A    -11.283588     5A    -11.260195     6A    -11.247057
       7A    -11.245127     8A    -11.244932     9A    -11.239413
      10A    -11.239269    11A    -11.231371    12A     -1.374176
      13A     -1.173987    14A     -1.106259    15A     -1.065138
      16A     -1.023321    17A     -0.995487    18A     -0.859017
      19A     -0.846651    20A     -0.796842    21A     -0.778364
      22A     -0.741618    23A     -0.686216    24A     -0.647230
      25A     -0.639453    26A     -0.611799    27A     -0.596562
      28A     -0.595951    29A     -0.584870    30A     -0.570050
      31A     -0.518234    32A     -0.509584    33A     -0.505910
      34A     -0.464687    35A     -0.394579    36A     -0.352713
      37A     -0.345590    38A     -0.309899

  @DF-RHF Final Energy:  -454.48338548385345

   => Energetics <=

    Nuclear Repulsion Energy =            545.3767651120184610
    One-Electron Energy =               -1696.4777987193142508
    Two-Electron Energy =                 696.6176481234424500
    Total Energy =                       -454.4833854838534535
  Basis Set: (AUG-CC-PVTZ AUX)
    Blend: AUG-CC-PVTZ-RI
    Molecular point group: c1

    Geometry (in Angstrom), charge = 0, multiplicity = 1:

       Center              X                  Y                   Z               Mass
    ------------   -----------------  -----------------  -----------------  -----------------
         N            0.994433378540     0.041530946436     0.004260910598    14.003074004430
         N            1.682314378540    -1.048426053564    -0.414518089402    14.003074004430
         C           -0.423859621460     0.024593946436    -0.004646089402    12.000000000000
         C           -1.129877621460     1.204929946436    -0.250600089402    12.000000000000
         C           -1.090409621460    -1.178308053564     0.242261910598    12.000000000000
         C            1.843768678540     1.096279246436     0.425461810598    12.000000000000
         C           -2.524732621460     1.180235946436    -0.226965089402    12.000000000000
         C           -2.484300621460    -1.191035053564     0.240456910598    12.000000000000
         C            3.110282378540     0.606571946436     0.241268910598    12.000000000000
         C           -3.205050621460    -0.014494053564     0.017469910598    12.000000000000
         C            2.974280378540    -0.696921053564    -0.265400089402    12.000000000000
         H           -0.596363621460     2.121676946436    -0.486688089402     1.007825032230
         H           -0.510094621460    -2.077929053564     0.419572910598     1.007825032230
         H            1.415086378540     1.979603946436     0.812844910598     1.007825032230
         H           -3.079181621460     2.095484946436    -0.418601089402     1.007825032230
         H           -3.009664621460    -2.124018053564     0.428587910598     1.007825032230
         H            4.020438378540     1.143664946436     0.468731910598     1.007825032230
         H           -4.291783621460    -0.030507053564     0.025578910598     1.007825032230
         H            3.745701378540    -1.403918053564    -0.542400089402     1.007825032230

  Basis Set: AUG-CC-PVTZ
    Blend: AUG-CC-PVTZ
  Basis Set: (AUG-CC-PVTZ AUX)
    Blend: AUG-CC-PVTZ-JKFIT
	 Reference Energy          =    -454.4833854838534535 [Eh]
	 Singles Energy            =      -0.0000000000000000 [Eh]
	 Same-Spin Energy          =      -0.5100066649227700 [Eh]
	 Opposite-Spin Energy      =      -1.5491382814131756 [Eh]
	 Correlation Energy        =      -2.0591449463359455 [Eh]
	 Total Energy              =    -456.5425304301894016 [Eh]

	 ================> DF-SCS-MP2 Energies <==================
	-----------------------------------------------------------
	 SCS Same-Spin Scale       =       0.3333333333333333 [-]
	 SCS Opposite-Spin Scale   =       1.2000000000000000 [-]
	 SCS Same-Spin Energy      =      -0.1700022216409233 [Eh]
	 SCS Opposite-Spin Energy  =      -1.8589659376958105 [Eh]
	 SCS Correlation Energy    =      -2.0289681593367339 [Eh]
	 SCS Total Energy          =    -456.5123536431901812 [Eh]
	-----------------------------------------------------------

  Dipole Moment: [D]
     X:    -0.7543      Y:     1.6421      Z:     0.7424     Total:     1.9536

*** Psi4 exiting successfully. Buy a developer a beer!
