                               Psi4 1.3.2 release

  ==> Input File <==

--------------------------------------------------------------------------
#psi4
#
memory 32 gb

molecule  {
0 1
  N        1.0119030     0.0333230     0.0008060
  N        1.6997840    -1.0566340    -0.4179730
  C       -0.4063900     0.0163860    -0.0081010
  C       -1.1124080     1.1967220    -0.2540550
  C       -1.0729400    -1.1865160     0.2388070
  C        1.8312940     1.0508850     0.4071570
  C       -2.5072630     1.1720280    -0.2304200
  C       -2.4668310    -1.1992430     0.2370020
  C        3.1582214     0.6816935     0.2759438
  C       -3.1875810    -0.0227020     0.0140150
  C        2.9917500    -0.7051290    -0.2688550
  H       -0.5788940     2.1134690    -0.4901430
  H       -0.4926250    -2.0861370     0.4161180
  H        1.4325560     1.9713960     0.8093900
  H       -3.0617120     2.0872770    -0.4220560
  H       -2.9921950    -2.1322260     0.4251330
  H        4.0379080     1.1354570     0.4652770
  H       -4.2743140    -0.0387150     0.0221240
  H        3.7631710    -1.4121260    -0.5458550
units angstrom
no_reorient  #important for SAPT in psi4, default
symmetry c1  #important for SAPT in psi4, default
}

set PROPERTIES_ORIGIN ["COM"]
properties('MP2/aug-cc-pvtz', properties = ['dipole'])
--------------------------------------------------------------------------

    Molecular point group: c1
  Charge       = 0
  Multiplicity = 1
  Basis Set: AUG-CC-PVTZ
    Blend: AUG-CC-PVTZ
  Basis Set: (AUG-CC-PVTZ AUX)
    Blend: AUG-CC-PVTZ-JKFIT

    Orbital Energies [Eh]
    ---------------------

    Doubly Occupied:

       1A    -15.649095     2A    -15.595778     3A    -11.292000
       4A    -11.286298     5A    -11.270552     6A    -11.247758
       7A    -11.246009     8A    -11.245736     9A    -11.240565
      10A    -11.240205    11A    -11.232595    12A     -1.379952
      13A     -1.173739    14A     -1.107983    15A     -1.062480
      16A     -1.024147    17A     -0.994872    18A     -0.858976
      19A     -0.848276    20A     -0.804570    21A     -0.773818
      22A     -0.741789    23A     -0.687054    24A     -0.650007
      25A     -0.643423    26A     -0.624472    27A     -0.602195
      28A     -0.596147    29A     -0.589558    30A     -0.548338
      31A     -0.520073    32A     -0.509987    33A     -0.506252
      34A     -0.462575    35A     -0.389713    36A     -0.355460
      37A     -0.346423    38A     -0.309189

  @DF-RHF Final Energy:  -454.47718707896934

   => Energetics <=

    Nuclear Repulsion Energy =            544.8452381905561879
    One-Electron Energy =               -1695.3287315184204544
    Two-Electron Energy =                 696.0063062488950436
    Total Energy =                       -454.4771870789693367
  Basis Set: (AUG-CC-PVTZ AUX)
    Blend: AUG-CC-PVTZ-RI
    Molecular point group: c1

    Geometry (in Angstrom), charge = 0, multiplicity = 1:

       Center              X                  Y                   Z               Mass
    ------------   -----------------  -----------------  -----------------  -----------------
         N            0.994389641088     0.037687514695     0.002321844677    14.003074004430
         N            1.682270641088    -1.052269485305    -0.416457155323    14.003074004430
         C           -0.423903358912     0.020750514695    -0.006585155323    12.000000000000
         C           -1.129921358912     1.201086514695    -0.252539155323    12.000000000000
         C           -1.090453358912    -1.182151485305     0.240322844677    12.000000000000
         C            1.813780641088     1.055249514695     0.408672844677    12.000000000000
         C           -2.524776358912     1.176392514695    -0.228904155323    12.000000000000
         C           -2.484344358912    -1.194878485305     0.238517844677    12.000000000000
         C            3.140708041088     0.686058014695     0.277459644677    12.000000000000
         C           -3.205094358912    -0.018337485305     0.015530844677    12.000000000000
         C            2.974236641088    -0.700764485305    -0.267339155323    12.000000000000
         H           -0.596407358912     2.117833514695    -0.488627155323     1.007825032230
         H           -0.510138358912    -2.081772485305     0.417633844677     1.007825032230
         H            1.415042641088     1.975760514695     0.810905844677     1.007825032230
         H           -3.079225358912     2.091641514695    -0.420540155323     1.007825032230
         H           -3.009708358912    -2.127861485305     0.426648844677     1.007825032230
         H            4.020394641088     1.139821514695     0.466792844677     1.007825032230
         H           -4.291827358912    -0.034350485305     0.023639844677     1.007825032230
         H            3.745657641088    -1.407761485305    -0.544339155323     1.007825032230

  Basis Set: AUG-CC-PVTZ
    Blend: AUG-CC-PVTZ
  Basis Set: (AUG-CC-PVTZ AUX)
    Blend: AUG-CC-PVTZ-JKFIT
	 Reference Energy          =    -454.4771870789693367 [Eh]
	 Singles Energy            =      -0.0000000000000000 [Eh]
	 Same-Spin Energy          =      -0.5087907983461936 [Eh]
	 Opposite-Spin Energy      =      -1.5480499682031537 [Eh]
	 Correlation Energy        =      -2.0568407665493473 [Eh]
	 Total Energy              =    -456.5340278455186649 [Eh]

	 ================> DF-SCS-MP2 Energies <==================
	-----------------------------------------------------------
	 SCS Same-Spin Scale       =       0.3333333333333333 [-]
	 SCS Opposite-Spin Scale   =       1.2000000000000000 [-]
	 SCS Same-Spin Energy      =      -0.1695969327820645 [Eh]
	 SCS Opposite-Spin Energy  =      -1.8576599618437843 [Eh]
	 SCS Correlation Energy    =      -2.0272568946258489 [Eh]
	 SCS Total Energy          =    -456.5044439735951869 [Eh]
	-----------------------------------------------------------

  Dipole Moment: [D]
     X:    -0.8325      Y:     1.6036      Z:     0.7168     Total:     1.9438

*** Psi4 exiting successfully. Buy a developer a beer!
