                               Psi4 1.3.2 release

  ==> Input File <==

--------------------------------------------------------------------------
#psi4
#
memory 32 gb

molecule  {
0 1
  N        1.0119030     0.0333230     0.0008060
  N        1.6997840    -1.0566340    -0.4179730
  C       -0.4063900     0.0163860    -0.0081010
  C       -1.1124080     1.1967220    -0.2540550
  C       -1.0729400    -1.1865160     0.2388070
  C        1.8312940     1.0508850     0.4071570
  C       -2.5072630     1.1720280    -0.2304200
  C       -2.4668310    -1.1992430     0.2370020
  C        3.1277520     0.5983640     0.2378140
  C       -3.1875810    -0.0227020     0.0140150
  C        3.0161728    -0.7073245    -0.2691688
  H       -0.5788940     2.1134690    -0.4901430
  H       -0.4926250    -2.0861370     0.4161180
  H        1.4325560     1.9713960     0.8093900
  H       -3.0617120     2.0872770    -0.4220560
  H       -2.9921950    -2.1322260     0.4251330
  H        4.0379080     1.1354570     0.4652770
  H       -4.2743140    -0.0387150     0.0221240
  H        3.7631710    -1.4121260    -0.5458550
units angstrom
no_reorient  #important for SAPT in psi4, default
symmetry c1  #important for SAPT in psi4, default
}

set PROPERTIES_ORIGIN ["COM"]
properties('MP2/aug-cc-pvtz', properties = ['dipole'])
--------------------------------------------------------------------------

    Molecular point group: c1
  Charge       = 0
  Multiplicity = 1
  Basis Set: AUG-CC-PVTZ
    Blend: AUG-CC-PVTZ
  Basis Set: (AUG-CC-PVTZ AUX)
    Blend: AUG-CC-PVTZ-JKFIT

    Orbital Energies [Eh]
    ---------------------

    Doubly Occupied:

       1A    -15.653609     2A    -15.592094     3A    -11.292068
       4A    -11.281889     5A    -11.260272     6A    -11.248502
       7A    -11.247145     8A    -11.246179     9A    -11.241428
      10A    -11.241265    11A    -11.228919    12A     -1.379451
      13A     -1.174426    14A     -1.107715    15A     -1.062645
      16A     -1.024552    17A     -0.998727    18A     -0.861843
      19A     -0.848159    20A     -0.797570    21A     -0.778165
      22A     -0.741840    23A     -0.687204    24A     -0.649041
      25A     -0.640095    26A     -0.614336    27A     -0.597957
      28A     -0.595161    29A     -0.586551    30A     -0.568204
      31A     -0.520666    32A     -0.510729    33A     -0.506926
      34A     -0.460814    35A     -0.393977    36A     -0.348340
      37A     -0.345400    38A     -0.313407

  @DF-RHF Final Energy:  -454.48550992253178

   => Energetics <=

    Nuclear Repulsion Energy =            545.8328002568429156
    One-Electron Energy =               -1697.3420820512790215
    Two-Electron Energy =                 697.0237718719041595
    Total Energy =                       -454.4855099225318327
  Basis Set: (AUG-CC-PVTZ AUX)
    Blend: AUG-CC-PVTZ-RI
    Molecular point group: c1

    Geometry (in Angstrom), charge = 0, multiplicity = 1:

       Center              X                  Y                   Z               Mass
    ------------   -----------------  -----------------  -----------------  -----------------
         N            0.994893283973     0.044811197050     0.005523949266    14.003074004430
         N            1.682774283973    -1.045145802950    -0.413255050734    14.003074004430
         C           -0.423399716027     0.027874197050    -0.003383050734    12.000000000000
         C           -1.129417716027     1.208210197050    -0.249337050734    12.000000000000
         C           -1.089949716027    -1.175027802950     0.243524949266    12.000000000000
         C            1.814284283973     1.062373197050     0.411874949266    12.000000000000
         C           -2.524272716027     1.183516197050    -0.225702050734    12.000000000000
         C           -2.483840716027    -1.187754802950     0.241719949266    12.000000000000
         C            3.110742283973     0.609852197050     0.242531949266    12.000000000000
         C           -3.204590716027    -0.011213802950     0.018732949266    12.000000000000
         C            2.999163083973    -0.695836302950    -0.264450850734    12.000000000000
         H           -0.595903716027     2.124957197050    -0.485425050734     1.007825032230
         H           -0.509634716027    -2.074648802950     0.420835949266     1.007825032230
         H            1.415546283973     1.982884197050     0.814107949266     1.007825032230
         H           -3.078721716027     2.098765197050    -0.417338050734     1.007825032230
         H           -3.009204716027    -2.120737802950     0.429850949266     1.007825032230
         H            4.020898283973     1.146945197050     0.469994949266     1.007825032230
         H           -4.291323716027    -0.027226802950     0.026841949266     1.007825032230
         H            3.746161283973    -1.400637802950    -0.541137050734     1.007825032230

  Basis Set: AUG-CC-PVTZ
    Blend: AUG-CC-PVTZ
  Basis Set: (AUG-CC-PVTZ AUX)
    Blend: AUG-CC-PVTZ-JKFIT
	 Reference Energy          =    -454.4855099225317758 [Eh]
	 Singles Energy            =      -0.0000000000000000 [Eh]
	 Same-Spin Energy          =      -0.5102351411557537 [Eh]
	 Opposite-Spin Energy      =      -1.5490420863465111 [Eh]
	 Correlation Energy        =      -2.0592772275022648 [Eh]
	 Total Energy              =    -456.5447871500340398 [Eh]

	 ================> DF-SCS-MP2 Energies <==================
	-----------------------------------------------------------
	 SCS Same-Spin Scale       =       0.3333333333333333 [-]
	 SCS Opposite-Spin Scale   =       1.2000000000000000 [-]
	 SCS Same-Spin Energy      =      -0.1700783803852512 [Eh]
	 SCS Opposite-Spin Energy  =      -1.8588505036158132 [Eh]
	 SCS Correlation Energy    =      -2.0289288840010644 [Eh]
	 SCS Total Energy          =    -456.5144388065328371 [Eh]
	-----------------------------------------------------------

  Dipole Moment: [D]
     X:    -0.9125      Y:     1.6361      Z:     0.7383     Total:     2.0136

*** Psi4 exiting successfully. Buy a developer a beer!
