                               Psi4 1.4a3.dev225

  ==> Input File <==

--------------------------------------------------------------------------
#psi4
#
memory 32 gb

molecule  {
0 1
  N        1.0119030     0.0333230     0.0008060
  N        1.7251633    -1.0968479    -0.4334238
  C       -0.4063900     0.0163860    -0.0081010
  C       -1.1124080     1.1967220    -0.2540550
  C       -1.0729400    -1.1865160     0.2388070
  C        1.8312940     1.0508850     0.4071570
  C       -2.5072630     1.1720280    -0.2304200
  C       -2.4668310    -1.1992430     0.2370020
  C        3.1277520     0.5983640     0.2378140
  C       -3.1875810    -0.0227020     0.0140150
  C        2.9917500    -0.7051290    -0.2688550
  H       -0.5788940     2.1134690    -0.4901430
  H       -0.4926250    -2.0861370     0.4161180
  H        1.4325560     1.9713960     0.8093900
  H       -3.0617120     2.0872770    -0.4220560
  H       -2.9921950    -2.1322260     0.4251330
  H        4.0379080     1.1354570     0.4652770
  H       -4.2743140    -0.0387150     0.0221240
  H        3.7631710    -1.4121260    -0.5458550
units angstrom
no_reorient  #important for SAPT in psi4, default
symmetry c1  #important for SAPT in psi4, default
}

set PROPERTIES_ORIGIN ["COM"]
properties('MP2/aug-cc-pvtz', properties = ['dipole'])
--------------------------------------------------------------------------

    Molecular point group: c1
  Charge       = 0
  Multiplicity = 1
  Basis Set: AUG-CC-PVTZ
    Blend: AUG-CC-PVTZ
  Basis Set: (AUG-CC-PVTZ AUX)
    Blend: AUG-CC-PVTZ-JKFIT

    Orbital Energies [Eh]
    ---------------------

    Doubly Occupied:

       1A    -15.647903     2A    -15.594504     3A    -11.290974
       4A    -11.288351     5A    -11.262534     6A    -11.247395
       7A    -11.245561     8A    -11.245152     9A    -11.239720
      10A    -11.239547    11A    -11.227940    12A     -1.365802
      13A     -1.175300    14A     -1.113617    15A     -1.062375
      16A     -1.023729    17A     -0.995507    18A     -0.859290
      19A     -0.846121    20A     -0.793082    21A     -0.778910
      22A     -0.742467    23A     -0.685599    24A     -0.646262
      25A     -0.637503    26A     -0.611009    27A     -0.596055
      28A     -0.592083    29A     -0.585780    30A     -0.563877
      31A     -0.519231    32A     -0.509738    33A     -0.506634
      34A     -0.467556    35A     -0.397854    36A     -0.352530
      37A     -0.346005    38A     -0.311154

  @DF-RHF Final Energy:  -454.48470568943492

   => Energetics <=

    Nuclear Repulsion Energy =            545.1314520332584834
    One-Electron Energy =               -1696.0030101571385330
    Two-Electron Energy =                 696.3868524344451316
    Total Energy =                       -454.4847056894349180
  Basis Set: (AUG-CC-PVTZ AUX)
    Blend: AUG-CC-PVTZ-RI
    Molecular point group: c1

    Geometry (in Angstrom), charge = 0, multiplicity = 1:

       Center              X                  Y                   Z               Mass
    ------------   -----------------  -----------------  -----------------  -----------------
         N            0.994460750083     0.048537003127     0.006999585713    14.003074004430
         N            1.707721050083    -1.081633896873    -0.427230214287    14.003074004430
         C           -0.423832249917     0.031600003127    -0.001907414287    12.000000000000
         C           -1.129850249917     1.211936003127    -0.247861414287    12.000000000000
         C           -1.090382249917    -1.171301996873     0.245000585713    12.000000000000
         C            1.813851750083     1.066099003127     0.413350585713    12.000000000000
         C           -2.524705249917     1.187242003127    -0.224226414287    12.000000000000
         C           -2.484273249917    -1.184028996873     0.243195585713    12.000000000000
         C            3.110309750083     0.613578003127     0.244007585713    12.000000000000
         C           -3.205023249917    -0.007487996873     0.020208585713    12.000000000000
         C            2.974307750083    -0.689914996873    -0.262661414287    12.000000000000
         H           -0.596336249917     2.128683003127    -0.483949414287     1.007825032230
         H           -0.510067249917    -2.070922996873     0.422311585713     1.007825032230
         H            1.415113750083     1.986610003127     0.815583585713     1.007825032230
         H           -3.079154249917     2.102491003127    -0.415862414287     1.007825032230
         H           -3.009637249917    -2.117011996873     0.431326585713     1.007825032230
         H            4.020465750083     1.150671003127     0.471470585713     1.007825032230
         H           -4.291756249917    -0.023500996873     0.028317585713     1.007825032230
         H            3.745728750083    -1.396911996873    -0.539661414287     1.007825032230

  Basis Set: AUG-CC-PVTZ
    Blend: AUG-CC-PVTZ
  Basis Set: (AUG-CC-PVTZ AUX)
    Blend: AUG-CC-PVTZ-JKFIT
	 Reference Energy          =    -454.4847056894349180 [Eh]
	 Singles Energy            =      -0.0000000000000000 [Eh]
	 Same-Spin Energy          =      -0.5094069809406110 [Eh]
	 Opposite-Spin Energy      =      -1.5487079623145730 [Eh]
	 Correlation Energy        =      -2.0581149432551840 [Eh]
	 Total Energy              =    -456.5428206326901091 [Eh]

	 ================> DF-SCS-MP2 Energies <==================
	-----------------------------------------------------------
	 SCS Same-Spin Scale       =       0.3333333333333333 [-]
	 SCS Opposite-Spin Scale   =       1.2000000000000000 [-]
	 SCS Same-Spin Energy      =      -0.1698023269802036 [Eh]
	 SCS Opposite-Spin Energy  =      -1.8584495547774875 [Eh]
	 SCS Correlation Energy    =      -2.0282518817576913 [Eh]
	 SCS Total Energy          =    -456.5129575711926009 [Eh]
	-----------------------------------------------------------

  Dipole Moment: [D]
     X:    -0.8109      Y:     1.6764      Z:     0.7543     Total:     2.0092

*** Psi4 exiting successfully. Buy a developer a beer!
