                               Psi4 1.3.2 release

  ==> Input File <==

--------------------------------------------------------------------------
#psi4
#
memory 32 gb

molecule  {
0 1
  N        1.0119030     0.0333230     0.0008060
  N        1.6763105    -0.9716551    -0.3852633
  C       -0.4063900     0.0163860    -0.0081010
  C       -1.1124080     1.1967220    -0.2540550
  C       -1.0729400    -1.1865160     0.2388070
  C        1.8312940     1.0508850     0.4071570
  C       -2.5072630     1.1720280    -0.2304200
  C       -2.4668310    -1.1992430     0.2370020
  C        3.1277520     0.5983640     0.2378140
  C       -3.1875810    -0.0227020     0.0140150
  C        2.9917500    -0.7051290    -0.2688550
  H       -0.5788940     2.1134690    -0.4901430
  H       -0.4926250    -2.0861370     0.4161180
  H        1.4325560     1.9713960     0.8093900
  H       -3.0617120     2.0872770    -0.4220560
  H       -2.9921950    -2.1322260     0.4251330
  H        4.0379080     1.1354570     0.4652770
  H       -4.2743140    -0.0387150     0.0221240
  H        3.7631710    -1.4121260    -0.5458550
units angstrom
no_reorient  #important for SAPT in psi4, default
symmetry c1  #important for SAPT in psi4, default
}

set PROPERTIES_ORIGIN ["COM"]
properties('MP2/aug-cc-pvtz', properties = ['dipole'])
--------------------------------------------------------------------------

    Molecular point group: c1
  Charge       = 0
  Multiplicity = 1
  Basis Set: AUG-CC-PVTZ
    Blend: AUG-CC-PVTZ
  Basis Set: (AUG-CC-PVTZ AUX)
    Blend: AUG-CC-PVTZ-JKFIT

    Orbital Energies [Eh]
    ---------------------

    Doubly Occupied:

       1A    -15.657119     2A    -15.582021     3A    -11.293437
       4A    -11.269841     5A    -11.251822     6A    -11.250182
       7A    -11.248973     8A    -11.247827     9A    -11.243959
      10A    -11.243477    11A    -11.226963    12A     -1.421763
      13A     -1.178245    14A     -1.109136    15A     -1.065980
      16A     -1.026079    17A     -1.003427    18A     -0.864951
      19A     -0.851927    20A     -0.806863    21A     -0.775231
      22A     -0.741514    23A     -0.689311    24A     -0.657826
      25A     -0.646920    26A     -0.623696    27A     -0.605666
      28A     -0.599150    29A     -0.589405    30A     -0.561172
      31A     -0.523180    32A     -0.513565    33A     -0.508303
      34A     -0.448656    35A     -0.392999    36A     -0.349307
      37A     -0.343974    38A     -0.314589

  @DF-RHF Final Energy:  -454.48482169344732

   => Energetics <=

    Nuclear Repulsion Energy =            548.9901292634174297
    One-Electron Energy =               -1703.4929895163579658
    Two-Electron Energy =                 700.0180385594932204
    Total Energy =                       -454.4848216934473157
  Basis Set: (AUG-CC-PVTZ AUX)
    Blend: AUG-CC-PVTZ-RI
    Molecular point group: c1

    Geometry (in Angstrom), charge = 0, multiplicity = 1:

       Center              X                  Y                   Z               Mass
    ------------   -----------------  -----------------  -----------------  -----------------
         N            0.999209103782     0.036368617794     0.002318521612    14.003074004430
         N            1.663616603782    -0.968609482206    -0.383750778388    14.003074004430
         C           -0.419083896218     0.019431617794    -0.006588478388    12.000000000000
         C           -1.125101896218     1.199767617794    -0.252542478388    12.000000000000
         C           -1.085633896218    -1.183470382206     0.240319521612    12.000000000000
         C            1.818600103782     1.053930617794     0.408669521612    12.000000000000
         C           -2.519956896218     1.175073617794    -0.228907478388    12.000000000000
         C           -2.479524896218    -1.196197382206     0.238514521612    12.000000000000
         C            3.115058103782     0.601409617794     0.239326521612    12.000000000000
         C           -3.200274896218    -0.019656382206     0.015527521612    12.000000000000
         C            2.979056103782    -0.702083382206    -0.267342478388    12.000000000000
         H           -0.591587896218     2.116514617794    -0.488630478388     1.007825032230
         H           -0.505318896218    -2.083091382206     0.417630521612     1.007825032230
         H            1.419862103782     1.974441617794     0.810902521612     1.007825032230
         H           -3.074405896218     2.090322617794    -0.420543478388     1.007825032230
         H           -3.004888896218    -2.129180382206     0.426645521612     1.007825032230
         H            4.025214103782     1.138502617794     0.466789521612     1.007825032230
         H           -4.287007896218    -0.035669382206     0.023636521612     1.007825032230
         H            3.750477103782    -1.409080382206    -0.544342478388     1.007825032230

  Basis Set: AUG-CC-PVTZ
    Blend: AUG-CC-PVTZ
  Basis Set: (AUG-CC-PVTZ AUX)
    Blend: AUG-CC-PVTZ-JKFIT
	 Reference Energy          =    -454.4848216934473157 [Eh]
	 Singles Energy            =      -0.0000000000000000 [Eh]
	 Same-Spin Energy          =      -0.5095493415518630 [Eh]
	 Opposite-Spin Energy      =      -1.5452792063432605 [Eh]
	 Correlation Energy        =      -2.0548285478951236 [Eh]
	 Total Energy              =    -456.5396502413424287 [Eh]

	 ================> DF-SCS-MP2 Energies <==================
	-----------------------------------------------------------
	 SCS Same-Spin Scale       =       0.3333333333333333 [-]
	 SCS Opposite-Spin Scale   =       1.2000000000000000 [-]
	 SCS Same-Spin Energy      =      -0.1698497805172877 [Eh]
	 SCS Opposite-Spin Energy  =      -1.8543350476119125 [Eh]
	 SCS Correlation Energy    =      -2.0241848281292003 [Eh]
	 SCS Total Energy          =    -456.5090065215765094 [Eh]
	-----------------------------------------------------------

  Dipole Moment: [D]
     X:    -1.0458      Y:     1.4996      Z:     0.6810     Total:     1.9509

*** Psi4 exiting successfully. Buy a developer a beer!
