                               Psi4 1.3.2 release

  ==> Input File <==

--------------------------------------------------------------------------
#psi4
#
memory 32 gb

molecule  {
0 1
  N        1.0323849     0.0442777     0.0052695
  N        1.6997840    -1.0566340    -0.4179730
  C       -0.4063900     0.0163860    -0.0081010
  C       -1.1124080     1.1967220    -0.2540550
  C       -1.0729400    -1.1865160     0.2388070
  C        1.8312940     1.0508850     0.4071570
  C       -2.5072630     1.1720280    -0.2304200
  C       -2.4668310    -1.1992430     0.2370020
  C        3.1277520     0.5983640     0.2378140
  C       -3.1875810    -0.0227020     0.0140150
  C        2.9917500    -0.7051290    -0.2688550
  H       -0.5788940     2.1134690    -0.4901430
  H       -0.4926250    -2.0861370     0.4161180
  H        1.4325560     1.9713960     0.8093900
  H       -3.0617120     2.0872770    -0.4220560
  H       -2.9921950    -2.1322260     0.4251330
  H        4.0379080     1.1354570     0.4652770
  H       -4.2743140    -0.0387150     0.0221240
  H        3.7631710    -1.4121260    -0.5458550
units angstrom
no_reorient  #important for SAPT in psi4, default
symmetry c1  #important for SAPT in psi4, default
}

set PROPERTIES_ORIGIN ["COM"]
properties('MP2/aug-cc-pvtz', properties = ['dipole'])
--------------------------------------------------------------------------

    Molecular point group: c1
  Charge       = 0
  Multiplicity = 1
  Basis Set: AUG-CC-PVTZ
    Blend: AUG-CC-PVTZ
  Basis Set: (AUG-CC-PVTZ AUX)
    Blend: AUG-CC-PVTZ-JKFIT

    Orbital Energies [Eh]
    ---------------------

    Doubly Occupied:

       1A    -15.651992     2A    -15.589098     3A    -11.293414
       4A    -11.280417     5A    -11.258471     6A    -11.248882
       7A    -11.247600     8A    -11.246697     9A    -11.242315
      10A    -11.241947    11A    -11.225477    12A     -1.384688
      13A     -1.174254    14A     -1.110083    15A     -1.065718
      16A     -1.025252    17A     -0.998742    18A     -0.858113
      19A     -0.847633    20A     -0.798512    21A     -0.777249
      22A     -0.744012    23A     -0.687431    24A     -0.648985
      25A     -0.638562    26A     -0.615881    27A     -0.597758
      28A     -0.591596    29A     -0.589501    30A     -0.563088
      31A     -0.520301    32A     -0.511500    33A     -0.507465
      34A     -0.464747    35A     -0.393189    36A     -0.349963
      37A     -0.346860    38A     -0.314987

  @DF-RHF Final Energy:  -454.48783420575671

   => Energetics <=

    Nuclear Repulsion Energy =            546.3596203154463637
    One-Electron Energy =               -1698.3901484587024697
    Two-Electron Energy =                 697.5426939374993935
    Total Energy =                       -454.4878342057567124
  Basis Set: (AUG-CC-PVTZ AUX)
    Blend: AUG-CC-PVTZ-RI
    Molecular point group: c1

    Geometry (in Angstrom), charge = 0, multiplicity = 1:

       Center              X                  Y                   Z               Mass
    ------------   -----------------  -----------------  -----------------  -----------------
         N            1.015418663483     0.054518260231     0.009527472196    14.003074004430
         N            1.682817763483    -1.046393439769    -0.413715027804    14.003074004430
         C           -0.423356236517     0.026626560231    -0.003843027804    12.000000000000
         C           -1.129374236517     1.206962560231    -0.249797027804    12.000000000000
         C           -1.089906236517    -1.176275439769     0.243064972196    12.000000000000
         C            1.814327763483     1.061125560231     0.411414972196    12.000000000000
         C           -2.524229236517     1.182268560231    -0.226162027804    12.000000000000
         C           -2.483797236517    -1.189002439769     0.241259972196    12.000000000000
         C            3.110785763483     0.608604560231     0.242071972196    12.000000000000
         C           -3.204547236517    -0.012461439769     0.018272972196    12.000000000000
         C            2.974783763483    -0.694888439769    -0.264597027804    12.000000000000
         H           -0.595860236517     2.123709560231    -0.485885027804     1.007825032230
         H           -0.509591236517    -2.075896439769     0.420375972196     1.007825032230
         H            1.415589763483     1.981636560231     0.813647972196     1.007825032230
         H           -3.078678236517     2.097517560231    -0.417798027804     1.007825032230
         H           -3.009161236517    -2.121985439769     0.429390972196     1.007825032230
         H            4.020941763483     1.145697560231     0.469534972196     1.007825032230
         H           -4.291280236517    -0.028474439769     0.026381972196     1.007825032230
         H            3.746204763483    -1.401885439769    -0.541597027804     1.007825032230

  Basis Set: AUG-CC-PVTZ
    Blend: AUG-CC-PVTZ
  Basis Set: (AUG-CC-PVTZ AUX)
    Blend: AUG-CC-PVTZ-JKFIT
	 Reference Energy          =    -454.4878342057567124 [Eh]
	 Singles Energy            =      -0.0000000000000000 [Eh]
	 Same-Spin Energy          =      -0.5095084967596519 [Eh]
	 Opposite-Spin Energy      =      -1.5475100682805432 [Eh]
	 Correlation Energy        =      -2.0570185650401953 [Eh]
	 Total Energy              =    -456.5448527707969220 [Eh]

	 ================> DF-SCS-MP2 Energies <==================
	-----------------------------------------------------------
	 SCS Same-Spin Scale       =       0.3333333333333333 [-]
	 SCS Opposite-Spin Scale   =       1.2000000000000000 [-]
	 SCS Same-Spin Energy      =      -0.1698361655865506 [Eh]
	 SCS Opposite-Spin Energy  =      -1.8570120819366518 [Eh]
	 SCS Correlation Energy    =      -2.0268482475232026 [Eh]
	 SCS Total Energy          =    -456.5146824532799315 [Eh]
	-----------------------------------------------------------

  Dipole Moment: [D]
     X:    -0.9825      Y:     1.6396      Z:     0.7415     Total:     2.0502

*** Psi4 exiting successfully. Buy a developer a beer!
