                               Psi4 1.3.2 release

  ==> Input File <==

--------------------------------------------------------------------------
#psi4
#
memory 32 gb

molecule  {
0 1
  N        1.0119030     0.0333230     0.0008060
  N        1.6997840    -1.0566340    -0.4179730
  C       -0.4063900     0.0163860    -0.0081010
  C       -1.1124080     1.1967220    -0.2540550
  C       -1.0729400    -1.1865160     0.2388070
  C        1.8312940     1.0508850     0.4071570
  C       -2.5072630     1.1720280    -0.2304200
  C       -2.4668310    -1.1992430     0.2370020
  C        3.1277520     0.5983640     0.2378140
  C       -3.1875810    -0.0227020     0.0140150
  C        2.8463425    -0.6836496    -0.2637376
  H       -0.5788940     2.1134690    -0.4901430
  H       -0.4926250    -2.0861370     0.4161180
  H        1.4325560     1.9713960     0.8093900
  H       -3.0617120     2.0872770    -0.4220560
  H       -2.9921950    -2.1322260     0.4251330
  H        4.0379080     1.1354570     0.4652770
  H       -4.2743140    -0.0387150     0.0221240
  H        3.7631710    -1.4121260    -0.5458550
units angstrom
no_reorient  #important for SAPT in psi4, default
symmetry c1  #important for SAPT in psi4, default
}

set PROPERTIES_ORIGIN ["COM"]
properties('MP2/aug-cc-pvtz', properties = ['dipole'])
--------------------------------------------------------------------------

    Molecular point group: c1
  Charge       = 0
  Multiplicity = 1
  Basis Set: AUG-CC-PVTZ
    Blend: AUG-CC-PVTZ
  Basis Set: (AUG-CC-PVTZ AUX)
    Blend: AUG-CC-PVTZ-JKFIT

    Orbital Energies [Eh]
    ---------------------

    Doubly Occupied:

       1A    -15.643033     2A    -15.581824     3A    -11.290461
       4A    -11.287206     5A    -11.256926     6A    -11.247312
       7A    -11.245410     8A    -11.244898     9A    -11.239511
      10A    -11.239174    11A    -11.225514    12A     -1.409659
      13A     -1.186496    14A     -1.127000    15A     -1.072708
      16A     -1.024208    17A     -0.995335    18A     -0.859176
      19A     -0.845500    20A     -0.803667    21A     -0.769317
      22A     -0.748229    23A     -0.685278    24A     -0.653599
      25A     -0.637259    26A     -0.624776    27A     -0.601886
      28A     -0.596143    29A     -0.589707    30A     -0.542521
      31A     -0.519029    32A     -0.512548    33A     -0.506446
      34A     -0.459653    35A     -0.406710    36A     -0.363378
      37A     -0.346227    38A     -0.310833

  @DF-RHF Final Energy:  -454.46428377695997

   => Energetics <=

    Nuclear Repulsion Energy =            549.8402746394787073
    One-Electron Energy =               -1705.2120071024321533
    Two-Electron Energy =                 700.9074486859933586
    Total Energy =                       -454.4642837769599737
  Basis Set: (AUG-CC-PVTZ AUX)
    Blend: AUG-CC-PVTZ-RI
    Molecular point group: c1

    Geometry (in Angstrom), charge = 0, multiplicity = 1:

       Center              X                  Y                   Z               Mass
    ------------   -----------------  -----------------  -----------------  -----------------
         N            1.009039055519     0.042839230170     0.005071565243    14.003074004430
         N            1.696920055519    -1.047117769830    -0.413707434757    14.003074004430
         C           -0.409253944481     0.025902230170    -0.003835434757    12.000000000000
         C           -1.115271944481     1.206238230170    -0.249789434757    12.000000000000
         C           -1.075803944481    -1.176999769830     0.243072565243    12.000000000000
         C            1.828430055519     1.060401230170     0.411422565243    12.000000000000
         C           -2.510126944481     1.181544230170    -0.226154434757    12.000000000000
         C           -2.469694944481    -1.189726769830     0.241267565243    12.000000000000
         C            3.124888055519     0.607880230170     0.242079565243    12.000000000000
         C           -3.190444944481    -0.013185769830     0.018280565243    12.000000000000
         C            2.843478555519    -0.674133369830    -0.259472034757    12.000000000000
         H           -0.581757944481     2.122985230170    -0.485877434757     1.007825032230
         H           -0.495488944481    -2.076620769830     0.420383565243     1.007825032230
         H            1.429692055519     1.980912230170     0.813655565243     1.007825032230
         H           -3.064575944481     2.096793230170    -0.417790434757     1.007825032230
         H           -2.995058944481    -2.122709769830     0.429398565243     1.007825032230
         H            4.035044055519     1.144973230170     0.469542565243     1.007825032230
         H           -4.277177944481    -0.029198769830     0.026389565243     1.007825032230
         H            3.760307055519    -1.402609769830    -0.541589434757     1.007825032230

  Basis Set: AUG-CC-PVTZ
    Blend: AUG-CC-PVTZ
  Basis Set: (AUG-CC-PVTZ AUX)
    Blend: AUG-CC-PVTZ-JKFIT
	 Reference Energy          =    -454.4642837769599737 [Eh]
	 Singles Energy            =      -0.0000000000000000 [Eh]
	 Same-Spin Energy          =      -0.5070787211666937 [Eh]
	 Opposite-Spin Energy      =      -1.5431145635439054 [Eh]
	 Correlation Energy        =      -2.0501932847105993 [Eh]
	 Total Energy              =    -456.5144770616705614 [Eh]

	 ================> DF-SCS-MP2 Energies <==================
	-----------------------------------------------------------
	 SCS Same-Spin Scale       =       0.3333333333333333 [-]
	 SCS Opposite-Spin Scale   =       1.2000000000000000 [-]
	 SCS Same-Spin Energy      =      -0.1690262403888979 [Eh]
	 SCS Opposite-Spin Energy  =      -1.8517374762526864 [Eh]
	 SCS Correlation Energy    =      -2.0207637166415844 [Eh]
	 SCS Total Energy          =    -456.4850474936015416 [Eh]
	-----------------------------------------------------------

  Dipole Moment: [D]
     X:    -0.8053      Y:     1.6978      Z:     0.7599     Total:     2.0270

*** Psi4 exiting successfully. Buy a developer a beer!
