                               Psi4 1.3.2 release

  ==> Input File <==

--------------------------------------------------------------------------
#psi4
#
memory 32 gb

molecule  {
0 1
  N        1.0119030     0.0333230     0.0008060
  N        1.6997840    -1.0566340    -0.4179730
  C       -0.4006097     0.1542181     0.0467800
  C       -1.1124080     1.1967220    -0.2540550
  C       -1.0729400    -1.1865160     0.2388070
  C        1.8312940     1.0508850     0.4071570
  C       -2.5072630     1.1720280    -0.2304200
  C       -2.4668310    -1.1992430     0.2370020
  C        3.1277520     0.5983640     0.2378140
  C       -3.1875810    -0.0227020     0.0140150
  C        2.9917500    -0.7051290    -0.2688550
  H       -0.5788940     2.1134690    -0.4901430
  H       -0.4926250    -2.0861370     0.4161180
  H        1.4325560     1.9713960     0.8093900
  H       -3.0617120     2.0872770    -0.4220560
  H       -2.9921950    -2.1322260     0.4251330
  H        4.0379080     1.1354570     0.4652770
  H       -4.2743140    -0.0387150     0.0221240
  H        3.7631710    -1.4121260    -0.5458550
units angstrom
no_reorient  #important for SAPT in psi4, default
symmetry c1  #important for SAPT in psi4, default
}

set PROPERTIES_ORIGIN ["COM"]
properties('MP2/aug-cc-pvtz', properties = ['dipole'])
--------------------------------------------------------------------------

    Molecular point group: c1
  Charge       = 0
  Multiplicity = 1
  Basis Set: AUG-CC-PVTZ
    Blend: AUG-CC-PVTZ
  Basis Set: (AUG-CC-PVTZ AUX)
    Blend: AUG-CC-PVTZ-JKFIT

    Orbital Energies [Eh]
    ---------------------

    Doubly Occupied:

       1A    -15.652300     2A    -15.593633     3A    -11.291017
       4A    -11.279997     5A    -11.261131     6A    -11.251438
       7A    -11.247649     8A    -11.243525     9A    -11.242042
      10A    -11.236951    11A    -11.227169    12A     -1.382123
      13A     -1.179069    14A     -1.112758    15A     -1.060492
      16A     -1.031530    17A     -0.993848    18A     -0.859498
      19A     -0.849305    20A     -0.798902    21A     -0.776276
      22A     -0.741283    23A     -0.689302    24A     -0.647029
      25A     -0.640122    26A     -0.614546    27A     -0.605884
      28A     -0.592248    29A     -0.582219    30A     -0.563797
      31A     -0.525318    32A     -0.512279    33A     -0.495137
      34A     -0.461191    35A     -0.398257    36A     -0.349658
      37A     -0.348236    38A     -0.311017

  @DF-RHF Final Energy:  -454.46571499231254

   => Energetics <=

    Nuclear Repulsion Energy =            546.2821612309564898
    One-Electron Energy =               -1698.1993997650181427
    Two-Electron Energy =                 697.4515235417491112
    Total Energy =                       -454.4657149923125417
  Basis Set: (AUG-CC-PVTZ AUX)
    Blend: AUG-CC-PVTZ-RI
    Molecular point group: c1

    Geometry (in Angstrom), charge = 0, multiplicity = 1:

       Center              X                  Y                   Z               Mass
    ------------   -----------------  -----------------  -----------------  -----------------
         N            0.996446084304     0.033147798706     0.000926577470    14.003074004430
         N            1.684327084304    -1.056809201294    -0.417852422530    14.003074004430
         C           -0.416066615696     0.154042898706     0.046900577470    12.000000000000
         C           -1.127864915696     1.196546798706    -0.253934422530    12.000000000000
         C           -1.088396915696    -1.186691201294     0.238927577470    12.000000000000
         C            1.815837084304     1.050709798706     0.407277577470    12.000000000000
         C           -2.522719915696     1.171852798706    -0.230299422530    12.000000000000
         C           -2.482287915696    -1.199418201294     0.237122577470    12.000000000000
         C            3.112295084304     0.598188798706     0.237934577470    12.000000000000
         C           -3.203037915696    -0.022877201294     0.014135577470    12.000000000000
         C            2.976293084304    -0.705304201294    -0.268734422530    12.000000000000
         H           -0.594350915696     2.113293798706    -0.490022422530     1.007825032230
         H           -0.508081915696    -2.086312201294     0.416238577470     1.007825032230
         H            1.417099084304     1.971220798706     0.809510577470     1.007825032230
         H           -3.077168915696     2.087101798706    -0.421935422530     1.007825032230
         H           -3.007651915696    -2.132401201294     0.425253577470     1.007825032230
         H            4.022451084304     1.135281798706     0.465397577470     1.007825032230
         H           -4.289770915696    -0.038890201294     0.022244577470     1.007825032230
         H            3.747714084304    -1.412301201294    -0.545734422530     1.007825032230

  Basis Set: AUG-CC-PVTZ
    Blend: AUG-CC-PVTZ
  Basis Set: (AUG-CC-PVTZ AUX)
    Blend: AUG-CC-PVTZ-JKFIT
	 Reference Energy          =    -454.4657149923125417 [Eh]
	 Singles Energy            =      -0.0000000000000000 [Eh]
	 Same-Spin Energy          =      -0.5092550348753060 [Eh]
	 Opposite-Spin Energy      =      -1.5488514191022646 [Eh]
	 Correlation Energy        =      -2.0581064539775706 [Eh]
	 Total Energy              =    -456.5238214462901283 [Eh]

	 ================> DF-SCS-MP2 Energies <==================
	-----------------------------------------------------------
	 SCS Same-Spin Scale       =       0.3333333333333333 [-]
	 SCS Opposite-Spin Scale   =       1.2000000000000000 [-]
	 SCS Same-Spin Energy      =      -0.1697516782917687 [Eh]
	 SCS Opposite-Spin Energy  =      -1.8586217029227174 [Eh]
	 SCS Correlation Energy    =      -2.0283733812144860 [Eh]
	 SCS Total Energy          =    -456.4940883735270063 [Eh]
	-----------------------------------------------------------

  Dipole Moment: [D]
     X:    -0.8725      Y:     1.6629      Z:     0.7151     Total:     2.0094

*** Psi4 exiting successfully. Buy a developer a beer!
