                               Psi4 1.3.2 release

  ==> Input File <==

--------------------------------------------------------------------------
#psi4
#
memory 32 gb

molecule  {
0 1
  N        1.0119030     0.0333230     0.0008060
  N        1.6997840    -1.0566340    -0.4179730
  C       -0.4063900     0.0163860    -0.0081010
  C       -1.1124080     1.1967220    -0.2540550
  C       -1.0729400    -1.1865160     0.2388070
  C        1.8312940     1.0508850     0.4071570
  C       -2.5072630     1.1720280    -0.2304200
  C       -2.4668310    -1.1992430     0.2370020
  C        3.1277520     0.5983640     0.2378140
  C       -3.1875810    -0.0227020     0.0140150
  C        2.9917500    -0.7051290    -0.2688550
  H       -0.5788940     2.1134690    -0.4901430
  H       -0.4926250    -2.0861370     0.4161180
  H        1.5063419     1.8010568     0.7349574
  H       -3.0617120     2.0872770    -0.4220560
  H       -2.9921950    -2.1322260     0.4251330
  H        4.0379080     1.1354570     0.4652770
  H       -4.2743140    -0.0387150     0.0221240
  H        3.7631710    -1.4121260    -0.5458550
units angstrom
no_reorient  #important for SAPT in psi4, default
symmetry c1  #important for SAPT in psi4, default
}

set PROPERTIES_ORIGIN ["COM"]
properties('MP2/aug-cc-pvtz', properties = ['dipole'])
--------------------------------------------------------------------------

    Molecular point group: c1
  Charge       = 0
  Multiplicity = 1
  Basis Set: AUG-CC-PVTZ
    Blend: AUG-CC-PVTZ
  Basis Set: (AUG-CC-PVTZ AUX)
    Blend: AUG-CC-PVTZ-JKFIT

    Orbital Energies [Eh]
    ---------------------

    Doubly Occupied:

       1A    -15.651282     2A    -15.590617     3A    -11.291980
       4A    -11.260389     5A    -11.258893     6A    -11.248570
       7A    -11.247165     8A    -11.246241     9A    -11.241266
      10A    -11.241109    11A    -11.227621    12A     -1.382193
      13A     -1.175725    14A     -1.112048    15A     -1.071699
      16A     -1.024963    17A     -0.998180    18A     -0.867279
      19A     -0.848215    20A     -0.818534    21A     -0.786693
      22A     -0.757124    23A     -0.689626    24A     -0.649923
      25A     -0.640620    26A     -0.617394    27A     -0.599800
      28A     -0.596939    29A     -0.593241    30A     -0.568837
      31A     -0.520536    32A     -0.511040    33A     -0.507271
      34A     -0.463252    35A     -0.394742    36A     -0.349991
      37A     -0.346599    38A     -0.312934

  @DF-RHF Final Energy:  -454.45174253514756

   => Energetics <=

    Nuclear Repulsion Energy =            547.4989976581608744
    One-Electron Energy =               -1700.4804213550708027
    Two-Electron Energy =                 698.5296811617624826
    Total Energy =                       -454.4517425351475595
  Basis Set: (AUG-CC-PVTZ AUX)
    Blend: AUG-CC-PVTZ-RI
    Molecular point group: c1

    Geometry (in Angstrom), charge = 0, multiplicity = 1:

       Center              X                  Y                   Z               Mass
    ------------   -----------------  -----------------  -----------------  -----------------
         N            0.996411380892     0.045819924560     0.006018500919    14.003074004430
         N            1.684292380892    -1.044137075440    -0.412760499081    14.003074004430
         C           -0.421881619108     0.028882924560    -0.002888499081    12.000000000000
         C           -1.127899619108     1.209218924560    -0.248842499081    12.000000000000
         C           -1.088431619108    -1.174019075440     0.244019500919    12.000000000000
         C            1.815802380892     1.063381924560     0.412369500919    12.000000000000
         C           -2.522754619108     1.184524924560    -0.225207499081    12.000000000000
         C           -2.482322619108    -1.186746075440     0.242214500919    12.000000000000
         C            3.112260380892     0.610860924560     0.243026500919    12.000000000000
         C           -3.203072619108    -0.010205075440     0.019227500919    12.000000000000
         C            2.976258380892    -0.692632075440    -0.263642499081    12.000000000000
         H           -0.594385619108     2.125965924560    -0.484930499081     1.007825032230
         H           -0.508116619108    -2.073640075440     0.421330500919     1.007825032230
         H            1.490850280892     1.813553724560     0.740169900919     1.007825032230
         H           -3.077203619108     2.099773924560    -0.416843499081     1.007825032230
         H           -3.007686619108    -2.119729075440     0.430345500919     1.007825032230
         H            4.022416380892     1.147953924560     0.470489500919     1.007825032230
         H           -4.289805619108    -0.026218075440     0.027336500919     1.007825032230
         H            3.747679380892    -1.399629075440    -0.540642499081     1.007825032230

  Basis Set: AUG-CC-PVTZ
    Blend: AUG-CC-PVTZ
  Basis Set: (AUG-CC-PVTZ AUX)
    Blend: AUG-CC-PVTZ-JKFIT
	 Reference Energy          =    -454.4517425351475595 [Eh]
	 Singles Energy            =      -0.0000000000000000 [Eh]
	 Same-Spin Energy          =      -0.5093612739256500 [Eh]
	 Opposite-Spin Energy      =      -1.5472751741217465 [Eh]
	 Correlation Energy        =      -2.0566364480473966 [Eh]
	 Total Energy              =    -456.5083789831949730 [Eh]

	 ================> DF-SCS-MP2 Energies <==================
	-----------------------------------------------------------
	 SCS Same-Spin Scale       =       0.3333333333333333 [-]
	 SCS Opposite-Spin Scale   =       1.2000000000000000 [-]
	 SCS Same-Spin Energy      =      -0.1697870913085500 [Eh]
	 SCS Opposite-Spin Energy  =      -1.8567302089460958 [Eh]
	 SCS Correlation Energy    =      -2.0265173002546457 [Eh]
	 SCS Total Energy          =    -456.4782598354021843 [Eh]
	-----------------------------------------------------------

  Dipole Moment: [D]
     X:    -0.8924      Y:     1.6092      Z:     0.7236     Total:     1.9773

*** Psi4 exiting successfully. Buy a developer a beer!
