                               Psi4 1.4a3.dev225

  ==> Input File <==

--------------------------------------------------------------------------
#psi4
#
memory 32 gb

molecule  {
0 1
  N        1.0119030     0.0333230     0.0008060
  N        1.6997840    -1.0566340    -0.4179730
  C       -0.4063900     0.0163860    -0.0081010
  C       -1.1124080     1.1967220    -0.2540550
  C       -1.0729400    -1.1865160     0.2388070
  C        1.8312940     1.0508850     0.4071570
  C       -2.5072630     1.1720280    -0.2304200
  C       -2.4668310    -1.1992430     0.2370020
  C        3.1277520     0.5983640     0.2378140
  C       -3.1875810    -0.0227020     0.0140150
  C        2.9917500    -0.7051290    -0.2688550
  H       -0.5788940     2.1134690    -0.4901430
  H       -0.4926250    -2.0861370     0.4161180
  H        1.4325560     1.9713960     0.8093900
  H       -3.0617120     2.0872770    -0.4220560
  H       -2.9921950    -2.1322260     0.4251330
  H        4.0547469     1.1453938     0.4694853
  H       -4.2743140    -0.0387150     0.0221240
  H        3.7631710    -1.4121260    -0.5458550
units angstrom
no_reorient  #important for SAPT in psi4, default
symmetry c1  #important for SAPT in psi4, default
}

set PROPERTIES_ORIGIN ["COM"]
properties('MP2/aug-cc-pvtz', properties = ['dipole'])
--------------------------------------------------------------------------

    Molecular point group: c1
  Charge       = 0
  Multiplicity = 1
  Basis Set: AUG-CC-PVTZ
    Blend: AUG-CC-PVTZ
  Basis Set: (AUG-CC-PVTZ AUX)
    Blend: AUG-CC-PVTZ-JKFIT

    Orbital Energies [Eh]
    ---------------------

    Doubly Occupied:

       1A    -15.651926     2A    -15.590881     3A    -11.291790
       4A    -11.282678     5A    -11.259804     6A    -11.248256
       7A    -11.246783     8A    -11.246014     9A    -11.241078
      10A    -11.240915    11A    -11.230302    12A     -1.382570
      13A     -1.175578    14A     -1.110407    15A     -1.063714
      16A     -1.024465    17A     -0.998013    18A     -0.860341
      19A     -0.847880    20A     -0.796312    21A     -0.777665
      22A     -0.742102    23A     -0.686484    24A     -0.649091
      25A     -0.639534    26A     -0.614597    27A     -0.597281
      28A     -0.593978    29A     -0.586853    30A     -0.563607
      31A     -0.520308    32A     -0.510846    33A     -0.506968
      34A     -0.462900    35A     -0.395053    36A     -0.349923
      37A     -0.346367    38A     -0.313061

  @DF-RHF Final Energy:  -454.48741602931057

   => Energetics <=

    Nuclear Repulsion Energy =            546.2620519610919700
    One-Electron Energy =               -1698.2062879834513751
    Two-Electron Energy =                 697.4568199930487253
    Total Energy =                       -454.4874160293105660
  Basis Set: (AUG-CC-PVTZ AUX)
    Blend: AUG-CC-PVTZ-RI
    Molecular point group: c1

    Geometry (in Angstrom), charge = 0, multiplicity = 1:

       Center              X                  Y                   Z               Mass
    ------------   -----------------  -----------------  -----------------  -----------------
         N            0.996809750510     0.044558813683     0.005468372813    14.003074004430
         N            1.684690750510    -1.045398186317    -0.413310627187    14.003074004430
         C           -0.421483249490     0.027621813683    -0.003438627187    12.000000000000
         C           -1.127501249490     1.207957813683    -0.249392627187    12.000000000000
         C           -1.088033249490    -1.175280186317     0.243469372813    12.000000000000
         C            1.816200750510     1.062120813683     0.411819372813    12.000000000000
         C           -2.522356249490     1.183263813683    -0.225757627187    12.000000000000
         C           -2.481924249490    -1.188007186317     0.241664372813    12.000000000000
         C            3.112658750510     0.609599813683     0.242476372813    12.000000000000
         C           -3.202674249490    -0.011466186317     0.018677372813    12.000000000000
         C            2.976656750510    -0.693893186317    -0.264192627187    12.000000000000
         H           -0.593987249490     2.124704813683    -0.485480627187     1.007825032230
         H           -0.507718249490    -2.074901186317     0.420780372813     1.007825032230
         H            1.417462750510     1.982631813683     0.814052372813     1.007825032230
         H           -3.076805249490     2.098512813683    -0.417393627187     1.007825032230
         H           -3.007288249490    -2.120990186317     0.429795372813     1.007825032230
         H            4.039653650510     1.156629613683     0.474147672813     1.007825032230
         H           -4.289407249490    -0.027479186317     0.026786372813     1.007825032230
         H            3.748077750510    -1.400890186317    -0.541192627187     1.007825032230

  Basis Set: AUG-CC-PVTZ
    Blend: AUG-CC-PVTZ
  Basis Set: (AUG-CC-PVTZ AUX)
    Blend: AUG-CC-PVTZ-JKFIT
	 Reference Energy          =    -454.4874160293105660 [Eh]
	 Singles Energy            =      -0.0000000000000000 [Eh]
	 Same-Spin Energy          =      -0.5097076725822958 [Eh]
	 Opposite-Spin Energy      =      -1.5480429817996411 [Eh]
	 Correlation Energy        =      -2.0577506543819366 [Eh]
	 Total Energy              =    -456.5451666836925142 [Eh]

	 ================> DF-SCS-MP2 Energies <==================
	-----------------------------------------------------------
	 SCS Same-Spin Scale       =       0.3333333333333333 [-]
	 SCS Opposite-Spin Scale   =       1.2000000000000000 [-]
	 SCS Same-Spin Energy      =      -0.1699025575274319 [Eh]
	 SCS Opposite-Spin Energy  =      -1.8576515781595693 [Eh]
	 SCS Correlation Energy    =      -2.0275541356870010 [Eh]
	 SCS Total Energy          =    -456.5149701649975782 [Eh]
	-----------------------------------------------------------

  Dipole Moment: [D]
     X:    -0.8878      Y:     1.6366      Z:     0.7382     Total:     2.0029

*** Psi4 exiting successfully. Buy a developer a beer!
