                               Psi4 1.3.2 release

  ==> Input File <==

--------------------------------------------------------------------------
#psi4
#
memory 32 gb

molecule  {
0 1
  N        1.0119030     0.0333230     0.0008060
  N        1.6997840    -1.0566340    -0.4179730
  C       -0.4063900     0.0163860    -0.0081010
  C       -1.1124080     1.1967220    -0.2540550
  C       -1.0729400    -1.1865160     0.2388070
  C        1.8312940     1.0508850     0.4071570
  C       -2.5072630     1.1720280    -0.2304200
  C       -2.4668310    -1.1992430     0.2370020
  C        3.1191413     0.5778605     0.2284033
  C       -3.1875810    -0.0227020     0.0140150
  C        2.9917500    -0.7051290    -0.2688550
  H       -0.5788940     2.1134690    -0.4901430
  H       -0.4926250    -2.0861370     0.4161180
  H        1.4325560     1.9713960     0.8093900
  H       -3.0617120     2.0872770    -0.4220560
  H       -2.9921950    -2.1322260     0.4251330
  H        4.0379080     1.1354570     0.4652770
  H       -4.2743140    -0.0387150     0.0221240
  H        3.7631710    -1.4121260    -0.5458550
units angstrom
no_reorient  #important for SAPT in psi4, default
symmetry c1  #important for SAPT in psi4, default
}

set PROPERTIES_ORIGIN ["COM"]
properties('MP2/aug-cc-pvtz', properties = ['dipole'])
--------------------------------------------------------------------------

    Molecular point group: c1
  Charge       = 0
  Multiplicity = 1
  Basis Set: AUG-CC-PVTZ
    Blend: AUG-CC-PVTZ
  Basis Set: (AUG-CC-PVTZ AUX)
    Blend: AUG-CC-PVTZ-JKFIT

    Orbital Energies [Eh]
    ---------------------

    Doubly Occupied:

       1A    -15.652660     2A    -15.589505     3A    -11.291710
       4A    -11.281775     5A    -11.256601     6A    -11.248382
       7A    -11.246970     8A    -11.246074     9A    -11.241228
      10A    -11.241064    11A    -11.226977    12A     -1.383322
      13A     -1.176147    14A     -1.111277    15A     -1.064306
      16A     -1.024553    17A     -0.999217    18A     -0.861866
      19A     -0.847794    20A     -0.795734    21A     -0.778648
      22A     -0.742521    23A     -0.686823    24A     -0.649237
      25A     -0.639671    26A     -0.614355    27A     -0.597435
      28A     -0.593923    29A     -0.588147    30A     -0.564297
      31A     -0.520323    32A     -0.511098    33A     -0.507023
      34A     -0.462499    35A     -0.396638    36A     -0.348810
      37A     -0.345989    38A     -0.314057

  @DF-RHF Final Energy:  -454.48693921069639

   => Energetics <=

    Nuclear Repulsion Energy =            546.7749485688952973
    One-Electron Energy =               -1699.2264594416697037
    Two-Electron Energy =                 697.9645716620780149
    Total Energy =                       -454.4869392106963915
  Basis Set: (AUG-CC-PVTZ AUX)
    Blend: AUG-CC-PVTZ-RI
    Molecular point group: c1

    Geometry (in Angstrom), charge = 0, multiplicity = 1:

       Center              X                  Y                   Z               Mass
    ------------   -----------------  -----------------  -----------------  -----------------
         N            0.997644762033     0.046336135683     0.006281662520    14.003074004430
         N            1.685525762033    -1.043620864317    -0.412497337480    14.003074004430
         C           -0.420648237967     0.029399135683    -0.002625337480    12.000000000000
         C           -1.126666237967     1.209735135683    -0.248579337480    12.000000000000
         C           -1.087198237967    -1.173502864317     0.244282662520    12.000000000000
         C            1.817035762033     1.063898135683     0.412632662520    12.000000000000
         C           -2.521521237967     1.185041135683    -0.224944337480    12.000000000000
         C           -2.481089237967    -1.186229864317     0.242477662520    12.000000000000
         C            3.104883062033     0.590873635683     0.233878962520    12.000000000000
         C           -3.201839237967    -0.009688864317     0.019490662520    12.000000000000
         C            2.977491762033    -0.692115864317    -0.263379337480    12.000000000000
         H           -0.593152237967     2.126482135683    -0.484667337480     1.007825032230
         H           -0.506883237967    -2.073123864317     0.421593662520     1.007825032230
         H            1.418297762033     1.984409135683     0.814865662520     1.007825032230
         H           -3.075970237967     2.100290135683    -0.416580337480     1.007825032230
         H           -3.006453237967    -2.119212864317     0.430608662520     1.007825032230
         H            4.023649762033     1.148470135683     0.470752662520     1.007825032230
         H           -4.288572237967    -0.025701864317     0.027599662520     1.007825032230
         H            3.748912762033    -1.399112864317    -0.540379337480     1.007825032230

  Basis Set: AUG-CC-PVTZ
    Blend: AUG-CC-PVTZ
  Basis Set: (AUG-CC-PVTZ AUX)
    Blend: AUG-CC-PVTZ-JKFIT
	 Reference Energy          =    -454.4869392106963915 [Eh]
	 Singles Energy            =      -0.0000000000000000 [Eh]
	 Same-Spin Energy          =      -0.5099657410516425 [Eh]
	 Opposite-Spin Energy      =      -1.5480850696135442 [Eh]
	 Correlation Energy        =      -2.0580508106651867 [Eh]
	 Total Energy              =    -456.5449900213615706 [Eh]

	 ================> DF-SCS-MP2 Energies <==================
	-----------------------------------------------------------
	 SCS Same-Spin Scale       =       0.3333333333333333 [-]
	 SCS Opposite-Spin Scale   =       1.2000000000000000 [-]
	 SCS Same-Spin Energy      =      -0.1699885803505475 [Eh]
	 SCS Opposite-Spin Energy  =      -1.8577020835362530 [Eh]
	 SCS Correlation Energy    =      -2.0276906638868004 [Eh]
	 SCS Total Energy          =    -456.5146298745831928 [Eh]
	-----------------------------------------------------------

  Dipole Moment: [D]
     X:    -0.9032      Y:     1.6406      Z:     0.7417     Total:     2.0143

*** Psi4 exiting successfully. Buy a developer a beer!
