                               Psi4 1.4a3.dev225

  ==> Input File <==

--------------------------------------------------------------------------
#psi4
#
memory 32 gb

molecule  {
0 1
  N        1.0119030     0.0333230     0.0008060
  N        1.6997840    -1.0566340    -0.4179730
  C       -0.4063900     0.0163860    -0.0081010
  C       -1.1124080     1.1967220    -0.2540550
  C       -1.0729400    -1.1865160     0.2388070
  C        1.8312940     1.0508850     0.4071570
  C       -2.5072630     1.1720280    -0.2304200
  C       -2.4668310    -1.1992430     0.2370020
  C        3.1277520     0.5983640     0.2378140
  C       -3.1875810    -0.0227020     0.0140150
  C        2.9917500    -0.7051290    -0.2688550
  H       -0.5788940     2.1134690    -0.4901430
  H       -0.4926250    -2.0861370     0.4161180
  H        1.4251774     1.9884299     0.8168333
  H       -3.0617120     2.0872770    -0.4220560
  H       -2.9921950    -2.1322260     0.4251330
  H        4.0379080     1.1354570     0.4652770
  H       -4.2743140    -0.0387150     0.0221240
  H        3.7631710    -1.4121260    -0.5458550
units angstrom
no_reorient  #important for SAPT in psi4, default
symmetry c1  #important for SAPT in psi4, default
}

set PROPERTIES_ORIGIN ["COM"]
properties('MP2/aug-cc-pvtz', properties = ['dipole'])
--------------------------------------------------------------------------

    Molecular point group: c1
  Charge       = 0
  Multiplicity = 1
  Basis Set: AUG-CC-PVTZ
    Blend: AUG-CC-PVTZ
  Basis Set: (AUG-CC-PVTZ AUX)
    Blend: AUG-CC-PVTZ-JKFIT

    Orbital Energies [Eh]
    ---------------------

    Doubly Occupied:

       1A    -15.651939     2A    -15.590815     3A    -11.291720
       4A    -11.284679     5A    -11.259750     6A    -11.248188
       7A    -11.246704     8A    -11.245956     9A    -11.241023
      10A    -11.240860    11A    -11.228165    12A     -1.382524
      13A     -1.175521    14A     -1.110277    15A     -1.063509
      16A     -1.024403    17A     -0.998192    18A     -0.860487
      19A     -0.847937    20A     -0.796667    21A     -0.776674
      22A     -0.740466    23A     -0.686421    24A     -0.649042
      25A     -0.639742    26A     -0.615279    27A     -0.597244
      28A     -0.594417    29A     -0.587795    30A     -0.562691
      31A     -0.520292    32A     -0.510790    33A     -0.506943
      34A     -0.462904    35A     -0.395021    36A     -0.349870
      37A     -0.346305    38A     -0.313028

  @DF-RHF Final Energy:  -454.48738738885822

   => Energetics <=

    Nuclear Repulsion Energy =            546.2659690150671850
    One-Electron Energy =               -1698.2182317917570344
    Two-Electron Energy =                 697.4648753878316256
    Total Energy =                       -454.4873873888582239
  Basis Set: (AUG-CC-PVTZ AUX)
    Blend: AUG-CC-PVTZ-RI
    Molecular point group: c1

    Geometry (in Angstrom), charge = 0, multiplicity = 1:

       Center              X                  Y                   Z               Mass
    ------------   -----------------  -----------------  -----------------  -----------------
         N            0.996979162704     0.044509166309     0.005445742548    14.003074004430
         N            1.684860162704    -1.045447833691    -0.413333257452    14.003074004430
         C           -0.421313837296     0.027572166309    -0.003461257452    12.000000000000
         C           -1.127331837296     1.207908166309    -0.249415257452    12.000000000000
         C           -1.087863837296    -1.175329833691     0.243446742548    12.000000000000
         C            1.816370162704     1.062071166309     0.411796742548    12.000000000000
         C           -2.522186837296     1.183214166309    -0.225780257452    12.000000000000
         C           -2.481754837296    -1.188056833691     0.241641742548    12.000000000000
         C            3.112828162704     0.609550166309     0.242453742548    12.000000000000
         C           -3.202504837296    -0.011515833691     0.018654742548    12.000000000000
         C            2.976826162704    -0.693942833691    -0.264215257452    12.000000000000
         H           -0.593817837296     2.124655166309    -0.485503257452     1.007825032230
         H           -0.507548837296    -2.074950833691     0.420757742548     1.007825032230
         H            1.410253562704     1.999616066309     0.821473042548     1.007825032230
         H           -3.076635837296     2.098463166309    -0.417416257452     1.007825032230
         H           -3.007118837296    -2.121039833691     0.429772742548     1.007825032230
         H            4.022984162704     1.146643166309     0.469916742548     1.007825032230
         H           -4.289237837296    -0.027528833691     0.026763742548     1.007825032230
         H            3.748247162704    -1.400939833691    -0.541215257452     1.007825032230

  Basis Set: AUG-CC-PVTZ
    Blend: AUG-CC-PVTZ
  Basis Set: (AUG-CC-PVTZ AUX)
    Blend: AUG-CC-PVTZ-JKFIT
	 Reference Energy          =    -454.4873873888582239 [Eh]
	 Singles Energy            =      -0.0000000000000000 [Eh]
	 Same-Spin Energy          =      -0.5097298839672788 [Eh]
	 Opposite-Spin Energy      =      -1.5480783925596981 [Eh]
	 Correlation Energy        =      -2.0578082765269770 [Eh]
	 Total Energy              =    -456.5451956653852221 [Eh]

	 ================> DF-SCS-MP2 Energies <==================
	-----------------------------------------------------------
	 SCS Same-Spin Scale       =       0.3333333333333333 [-]
	 SCS Opposite-Spin Scale   =       1.2000000000000000 [-]
	 SCS Same-Spin Energy      =      -0.1699099613224263 [Eh]
	 SCS Opposite-Spin Energy  =      -1.8576940710716376 [Eh]
	 SCS Correlation Energy    =      -2.0276040323940641 [Eh]
	 SCS Total Energy          =    -456.5149914212522617 [Eh]
	-----------------------------------------------------------

  Dipole Moment: [D]
     X:    -0.8845      Y:     1.6391      Z:     0.7395     Total:     2.0040

*** Psi4 exiting successfully. Buy a developer a beer!
