                               Psi4 1.3.2 release

  ==> Input File <==

--------------------------------------------------------------------------
#psi4
#
memory 32 gb

molecule  {
0 1
  N        0.9929169     0.0464412     0.0069425
  N        1.6997840    -1.0566340    -0.4179730
  C       -0.4063900     0.0163860    -0.0081010
  C       -1.1124080     1.1967220    -0.2540550
  C       -1.0729400    -1.1865160     0.2388070
  C        1.8312940     1.0508850     0.4071570
  C       -2.5072630     1.1720280    -0.2304200
  C       -2.4668310    -1.1992430     0.2370020
  C        3.1277520     0.5983640     0.2378140
  C       -3.1875810    -0.0227020     0.0140150
  C        2.9917500    -0.7051290    -0.2688550
  H       -0.5788940     2.1134690    -0.4901430
  H       -0.4926250    -2.0861370     0.4161180
  H        1.4325560     1.9713960     0.8093900
  H       -3.0617120     2.0872770    -0.4220560
  H       -2.9921950    -2.1322260     0.4251330
  H        4.0379080     1.1354570     0.4652770
  H       -4.2743140    -0.0387150     0.0221240
  H        3.7631710    -1.4121260    -0.5458550
units angstrom
no_reorient  #important for SAPT in psi4, default
symmetry c1  #important for SAPT in psi4, default
}

set PROPERTIES_ORIGIN ["COM"]
properties('MP2/aug-cc-pvtz', properties = ['dipole'])
--------------------------------------------------------------------------

    Molecular point group: c1
  Charge       = 0
  Multiplicity = 1
  Basis Set: AUG-CC-PVTZ
    Blend: AUG-CC-PVTZ
  Basis Set: (AUG-CC-PVTZ AUX)
    Blend: AUG-CC-PVTZ-JKFIT

    Orbital Energies [Eh]
    ---------------------

    Doubly Occupied:

       1A    -15.650471     2A    -15.591370     3A    -11.290335
       4A    -11.285114     5A    -11.262449     6A    -11.247388
       7A    -11.245503     8A    -11.245382     9A    -11.240078
      10A    -11.239893    11A    -11.228848    12A     -1.376065
      13A     -1.176654    14A     -1.112841    15A     -1.062206
      16A     -1.023696    17A     -0.997404    18A     -0.863637
      19A     -0.847949    20A     -0.795329    21A     -0.778074
      22A     -0.742035    23A     -0.686046    24A     -0.649074
      25A     -0.640289    26A     -0.614307    27A     -0.597492
      28A     -0.595913    29A     -0.585832    30A     -0.564863
      31A     -0.520492    32A     -0.509823    33A     -0.506334
      34A     -0.461095    35A     -0.397683    36A     -0.349845
      37A     -0.345875    38A     -0.311364

  @DF-RHF Final Energy:  -454.48676957685205

   => Energetics <=

    Nuclear Repulsion Energy =            546.3092750258018668
    One-Electron Energy =               -1698.3139942482202969
    Two-Electron Energy =                 697.5179496455662047
    Total Energy =                       -454.4867695768521116
  Basis Set: (AUG-CC-PVTZ AUX)
    Blend: AUG-CC-PVTZ-RI
    Molecular point group: c1

    Geometry (in Angstrom), charge = 0, multiplicity = 1:

       Center              X                  Y                   Z               Mass
    ------------   -----------------  -----------------  -----------------  -----------------
         N            0.979786841220     0.056471474163     0.011037861337    14.003074004430
         N            1.686653941220    -1.046603725837    -0.413877638663    14.003074004430
         C           -0.419520058780     0.026416274163    -0.004005638663    12.000000000000
         C           -1.125538058780     1.206752274163    -0.249959638663    12.000000000000
         C           -1.086070058780    -1.176485725837     0.242902361337    12.000000000000
         C            1.818163941220     1.060915274163     0.411252361337    12.000000000000
         C           -2.520393058780     1.182058274163    -0.226324638663    12.000000000000
         C           -2.479961058780    -1.189212725837     0.241097361337    12.000000000000
         C            3.114621941220     0.608394274163     0.241909361337    12.000000000000
         C           -3.200711058780    -0.012671725837     0.018110361337    12.000000000000
         C            2.978619941220    -0.695098725837    -0.264759638663    12.000000000000
         H           -0.592024058780     2.123499274163    -0.486047638663     1.007825032230
         H           -0.505755058780    -2.076106725837     0.420213361337     1.007825032230
         H            1.419425941220     1.981426274163     0.813485361337     1.007825032230
         H           -3.074842058780     2.097307274163    -0.417960638663     1.007825032230
         H           -3.005325058780    -2.122195725837     0.429228361337     1.007825032230
         H            4.024777941220     1.145487274163     0.469372361337     1.007825032230
         H           -4.287444058780    -0.028684725837     0.026219361337     1.007825032230
         H            3.750040941220    -1.402095725837    -0.541759638663     1.007825032230

  Basis Set: AUG-CC-PVTZ
    Blend: AUG-CC-PVTZ
  Basis Set: (AUG-CC-PVTZ AUX)
    Blend: AUG-CC-PVTZ-JKFIT
	 Reference Energy          =    -454.4867695768520548 [Eh]
	 Singles Energy            =      -0.0000000000000000 [Eh]
	 Same-Spin Energy          =      -0.5097058861737707 [Eh]
	 Opposite-Spin Energy      =      -1.5483585894564968 [Eh]
	 Correlation Energy        =      -2.0580644756302675 [Eh]
	 Total Energy              =    -456.5448340524823152 [Eh]

	 ================> DF-SCS-MP2 Energies <==================
	-----------------------------------------------------------
	 SCS Same-Spin Scale       =       0.3333333333333333 [-]
	 SCS Opposite-Spin Scale   =       1.2000000000000000 [-]
	 SCS Same-Spin Energy      =      -0.1699019620579235 [Eh]
	 SCS Opposite-Spin Energy  =      -1.8580303073477962 [Eh]
	 SCS Correlation Energy    =      -2.0279322694057198 [Eh]
	 SCS Total Energy          =    -456.5147018462577648 [Eh]
	-----------------------------------------------------------

  Dipole Moment: [D]
     X:    -0.7966      Y:     1.6262      Z:     0.7383     Total:     1.9555

*** Psi4 exiting successfully. Buy a developer a beer!
