                               Psi4 1.3.2 release

  ==> Input File <==

--------------------------------------------------------------------------
#psi4
#
memory 32 gb

molecule  {
0 1
  N        1.0119030     0.0333230     0.0008060
  N        1.6997840    -1.0566340    -0.4179730
  C       -0.4063900     0.0163860    -0.0081010
  C       -1.1124080     1.1967220    -0.2540550
  C       -1.0729400    -1.1865160     0.2388070
  C        1.8312940     1.0508850     0.4071570
  C       -2.5072630     1.1720280    -0.2304200
  C       -2.4668310    -1.1992430     0.2370020
  C        3.1277520     0.5983640     0.2378140
  C       -3.1875810    -0.0227020     0.0140150
  C        2.8958504    -0.7312204    -0.2799237
  H       -0.5788940     2.1134690    -0.4901430
  H       -0.4926250    -2.0861370     0.4161180
  H        1.4325560     1.9713960     0.8093900
  H       -3.0617120     2.0872770    -0.4220560
  H       -2.9921950    -2.1322260     0.4251330
  H        4.0379080     1.1354570     0.4652770
  H       -4.2743140    -0.0387150     0.0221240
  H        3.7631710    -1.4121260    -0.5458550
units angstrom
no_reorient  #important for SAPT in psi4, default
symmetry c1  #important for SAPT in psi4, default
}

set PROPERTIES_ORIGIN ["COM"]
properties('MP2/aug-cc-pvtz', properties = ['dipole'])
--------------------------------------------------------------------------

    Molecular point group: c1
  Charge       = 0
  Multiplicity = 1
  Basis Set: AUG-CC-PVTZ
    Blend: AUG-CC-PVTZ
  Basis Set: (AUG-CC-PVTZ AUX)
    Blend: AUG-CC-PVTZ-JKFIT

    Orbital Energies [Eh]
    ---------------------

    Doubly Occupied:

       1A    -15.643650     2A    -15.585736     3A    -11.290566
       4A    -11.284767     5A    -11.258852     6A    -11.247120
       7A    -11.245115     8A    -11.244860     9A    -11.239281
      10A    -11.239044    11A    -11.228165    12A     -1.397393
      13A     -1.182525    14A     -1.123639    15A     -1.064689
      16A     -1.023777    17A     -0.994205    18A     -0.855846
      19A     -0.847476    20A     -0.802081    21A     -0.772085
      22A     -0.744965    23A     -0.685106    24A     -0.650951
      25A     -0.639781    26A     -0.621102    27A     -0.598818
      28A     -0.595261    29A     -0.590017    30A     -0.553609
      31A     -0.518942    32A     -0.511421    33A     -0.506186
      34A     -0.459888    35A     -0.401864    36A     -0.359944
      37A     -0.345954    38A     -0.309215

  @DF-RHF Final Energy:  -454.48250421513285

   => Energetics <=

    Nuclear Repulsion Energy =            548.1516657649731314
    One-Electron Energy =               -1701.9405526570033089
    Two-Electron Energy =                 699.3063826768973286
    Total Energy =                       -454.4825042151328489
  Basis Set: (AUG-CC-PVTZ AUX)
    Blend: AUG-CC-PVTZ-RI
    Molecular point group: c1

    Geometry (in Angstrom), charge = 0, multiplicity = 1:

       Center              X                  Y                   Z               Mass
    ------------   -----------------  -----------------  -----------------  -----------------
         N            1.004915365912     0.046801571808     0.006419763255    14.003074004430
         N            1.692796365912    -1.043155428192    -0.412359236745    14.003074004430
         C           -0.413377634088     0.029864571808    -0.002487236745    12.000000000000
         C           -1.119395634088     1.210200571808    -0.248441236745    12.000000000000
         C           -1.079927634088    -1.173037428192     0.244420763255    12.000000000000
         C            1.824306365912     1.064363571808     0.412770763255    12.000000000000
         C           -2.514250634088     1.185506571808    -0.224806236745    12.000000000000
         C           -2.473818634088    -1.185764428192     0.242615763255    12.000000000000
         C            3.120764365912     0.611842571808     0.243427763255    12.000000000000
         C           -3.194568634088    -0.009223428192     0.019628763255    12.000000000000
         C            2.888862765912    -0.717741828192    -0.274309936745    12.000000000000
         H           -0.585881634088     2.126947571808    -0.484529236745     1.007825032230
         H           -0.499612634088    -2.072658428192     0.421731763255     1.007825032230
         H            1.425568365912     1.984874571808     0.815003763255     1.007825032230
         H           -3.068699634088     2.100755571808    -0.416442236745     1.007825032230
         H           -2.999182634088    -2.118747428192     0.430746763255     1.007825032230
         H            4.030920365912     1.148935571808     0.470890763255     1.007825032230
         H           -4.281301634088    -0.025236428192     0.027737763255     1.007825032230
         H            3.756183365912    -1.398647428192    -0.540241236745     1.007825032230

  Basis Set: AUG-CC-PVTZ
    Blend: AUG-CC-PVTZ
  Basis Set: (AUG-CC-PVTZ AUX)
    Blend: AUG-CC-PVTZ-JKFIT
	 Reference Energy          =    -454.4825042151328489 [Eh]
	 Singles Energy            =      -0.0000000000000000 [Eh]
	 Same-Spin Energy          =      -0.5070082833502053 [Eh]
	 Opposite-Spin Energy      =      -1.5434157125471963 [Eh]
	 Correlation Energy        =      -2.0504239958974018 [Eh]
	 Total Energy              =    -456.5329282110302529 [Eh]

	 ================> DF-SCS-MP2 Energies <==================
	-----------------------------------------------------------
	 SCS Same-Spin Scale       =       0.3333333333333333 [-]
	 SCS Opposite-Spin Scale   =       1.2000000000000000 [-]
	 SCS Same-Spin Energy      =      -0.1690027611167351 [Eh]
	 SCS Opposite-Spin Energy  =      -1.8520988550566355 [Eh]
	 SCS Correlation Energy    =      -2.0211016161733708 [Eh]
	 SCS Total Energy          =    -456.5036058313062313 [Eh]
	-----------------------------------------------------------

  Dipole Moment: [D]
     X:    -0.7418      Y:     1.5874      Z:     0.7162     Total:     1.8929

*** Psi4 exiting successfully. Buy a developer a beer!
