                               Psi4 1.3.2 release

  ==> Input File <==

--------------------------------------------------------------------------
#psi4
#
memory 32 gb

molecule  {
0 1
  N        1.0119030     0.0333230     0.0008060
  N        1.7138895    -1.0985068    -0.4340652
  C       -0.4063900     0.0163860    -0.0081010
  C       -1.1124080     1.1967220    -0.2540550
  C       -1.0729400    -1.1865160     0.2388070
  C        1.8312940     1.0508850     0.4071570
  C       -2.5072630     1.1720280    -0.2304200
  C       -2.4668310    -1.1992430     0.2370020
  C        3.1277520     0.5983640     0.2378140
  C       -3.1875810    -0.0227020     0.0140150
  C        2.9917500    -0.7051290    -0.2688550
  H       -0.5788940     2.1134690    -0.4901430
  H       -0.4926250    -2.0861370     0.4161180
  H        1.4325560     1.9713960     0.8093900
  H       -3.0617120     2.0872770    -0.4220560
  H       -2.9921950    -2.1322260     0.4251330
  H        4.0379080     1.1354570     0.4652770
  H       -4.2743140    -0.0387150     0.0221240
  H        3.7631710    -1.4121260    -0.5458550
units angstrom
no_reorient  #important for SAPT in psi4, default
symmetry c1  #important for SAPT in psi4, default
}

set PROPERTIES_ORIGIN ["COM"]
properties('MP2/aug-cc-pvtz', properties = ['dipole'])
--------------------------------------------------------------------------

    Molecular point group: c1
  Charge       = 0
  Multiplicity = 1
  Basis Set: AUG-CC-PVTZ
    Blend: AUG-CC-PVTZ
  Basis Set: (AUG-CC-PVTZ AUX)
    Blend: AUG-CC-PVTZ-JKFIT

    Orbital Energies [Eh]
    ---------------------

    Doubly Occupied:

       1A    -15.648876     2A    -15.595351     3A    -11.290812
       4A    -11.288224     5A    -11.263560     6A    -11.247397
       7A    -11.245611     8A    -11.245152     9A    -11.239800
      10A    -11.239604    11A    -11.228576    12A     -1.366169
      13A     -1.174398    14A     -1.111607    15A     -1.063193
      16A     -1.023696    17A     -0.995589    18A     -0.859439
      19A     -0.846059    20A     -0.792694    21A     -0.779191
      22A     -0.742618    23A     -0.685616    24A     -0.646318
      25A     -0.637282    26A     -0.611102    27A     -0.595998
      28A     -0.592107    29A     -0.585381    30A     -0.563330
      31A     -0.519195    32A     -0.509515    33A     -0.506605
      34A     -0.468568    35A     -0.396638    36A     -0.351950
      37A     -0.345952    38A     -0.311377

  @DF-RHF Final Energy:  -454.48386925901457

   => Energetics <=

    Nuclear Repulsion Energy =            545.1079717423273223
    One-Electron Energy =               -1695.9545858705719183
    Two-Electron Energy =                 696.3627448692301414
    Total Energy =                       -454.4838692590145683
  Basis Set: (AUG-CC-PVTZ AUX)
    Blend: AUG-CC-PVTZ-RI
    Molecular point group: c1

    Geometry (in Angstrom), charge = 0, multiplicity = 1:

       Center              X                  Y                   Z               Mass
    ------------   -----------------  -----------------  -----------------  -----------------
         N            0.995556531490     0.048698243505     0.007061927976    14.003074004430
         N            1.697543031490    -1.083131556495    -0.427809272024    14.003074004430
         C           -0.422736468510     0.031761243505    -0.001845072024    12.000000000000
         C           -1.128754468510     1.212097243505    -0.247799072024    12.000000000000
         C           -1.089286468510    -1.171140756495     0.245062927976    12.000000000000
         C            1.814947531490     1.066260243505     0.413412927976    12.000000000000
         C           -2.523609468510     1.187403243505    -0.224164072024    12.000000000000
         C           -2.483177468510    -1.183867756495     0.243257927976    12.000000000000
         C            3.111405531490     0.613739243505     0.244069927976    12.000000000000
         C           -3.203927468510    -0.007326756495     0.020270927976    12.000000000000
         C            2.975403531490    -0.689753756495    -0.262599072024    12.000000000000
         H           -0.595240468510     2.128844243505    -0.483887072024     1.007825032230
         H           -0.508971468510    -2.070761756495     0.422373927976     1.007825032230
         H            1.416209531490     1.986771243505     0.815645927976     1.007825032230
         H           -3.078058468510     2.102652243505    -0.415800072024     1.007825032230
         H           -3.008541468510    -2.116850756495     0.431388927976     1.007825032230
         H            4.021561531490     1.150832243505     0.471532927976     1.007825032230
         H           -4.290660468510    -0.023339756495     0.028379927976     1.007825032230
         H            3.746824531490    -1.396750756495    -0.539599072024     1.007825032230

  Basis Set: AUG-CC-PVTZ
    Blend: AUG-CC-PVTZ
  Basis Set: (AUG-CC-PVTZ AUX)
    Blend: AUG-CC-PVTZ-JKFIT
	 Reference Energy          =    -454.4838692590145683 [Eh]
	 Singles Energy            =      -0.0000000000000000 [Eh]
	 Same-Spin Energy          =      -0.5097606637236451 [Eh]
	 Opposite-Spin Energy      =      -1.5493028798276283 [Eh]
	 Correlation Energy        =      -2.0590635435512734 [Eh]
	 Total Energy              =    -456.5429328025658151 [Eh]

	 ================> DF-SCS-MP2 Energies <==================
	-----------------------------------------------------------
	 SCS Same-Spin Scale       =       0.3333333333333333 [-]
	 SCS Opposite-Spin Scale   =       1.2000000000000000 [-]
	 SCS Same-Spin Energy      =      -0.1699202212412150 [Eh]
	 SCS Opposite-Spin Energy  =      -1.8591634557931538 [Eh]
	 SCS Correlation Energy    =      -2.0290836770343690 [Eh]
	 SCS Total Energy          =    -456.5129529360489187 [Eh]
	-----------------------------------------------------------

  Dipole Moment: [D]
     X:    -0.8130      Y:     1.6883      Z:     0.7592     Total:     2.0218

*** Psi4 exiting successfully. Buy a developer a beer!
