                               Psi4 1.3.2 release

  ==> Input File <==

--------------------------------------------------------------------------
#psi4
#
memory 32 gb

molecule  {
0 1
  N        1.0119030     0.0333230     0.0008060
  N        1.6997840    -1.0566340    -0.4179730
  C       -0.4063900     0.0163860    -0.0081010
  C       -1.1124080     1.1967220    -0.2540550
  C       -1.0729400    -1.1865160     0.2388070
  C        1.7879120     0.9229915     0.3548669
  C       -2.5072630     1.1720280    -0.2304200
  C       -2.4668310    -1.1992430     0.2370020
  C        3.1277520     0.5983640     0.2378140
  C       -3.1875810    -0.0227020     0.0140150
  C        2.9917500    -0.7051290    -0.2688550
  H       -0.5788940     2.1134690    -0.4901430
  H       -0.4926250    -2.0861370     0.4161180
  H        1.4325560     1.9713960     0.8093900
  H       -3.0617120     2.0872770    -0.4220560
  H       -2.9921950    -2.1322260     0.4251330
  H        4.0379080     1.1354570     0.4652770
  H       -4.2743140    -0.0387150     0.0221240
  H        3.7631710    -1.4121260    -0.5458550
units angstrom
no_reorient  #important for SAPT in psi4, default
symmetry c1  #important for SAPT in psi4, default
}

set PROPERTIES_ORIGIN ["COM"]
properties('MP2/aug-cc-pvtz', properties = ['dipole'])
--------------------------------------------------------------------------

    Molecular point group: c1
  Charge       = 0
  Multiplicity = 1
  Basis Set: AUG-CC-PVTZ
    Blend: AUG-CC-PVTZ
  Basis Set: (AUG-CC-PVTZ AUX)
    Blend: AUG-CC-PVTZ-JKFIT

    Orbital Energies [Eh]
    ---------------------

    Doubly Occupied:

       1A    -15.652631     2A    -15.574889     3A    -11.296360
       4A    -11.279175     5A    -11.258499     6A    -11.252020
       7A    -11.250434     8A    -11.248897     9A    -11.245807
      10A    -11.245316    11A    -11.217109    12A     -1.415957
      13A     -1.180551    14A     -1.123682    15A     -1.067771
      16A     -1.027947    17A     -1.006066    18A     -0.870385
      19A     -0.851990    20A     -0.806877    21A     -0.773261
      22A     -0.733446    23A     -0.688255    24A     -0.661543
      25A     -0.644357    26A     -0.626873    27A     -0.609008
      28A     -0.600373    29A     -0.586403    30A     -0.527329
      31A     -0.524020    32A     -0.514338    33A     -0.509644
      34A     -0.454818    35A     -0.399637    36A     -0.350147
      37A     -0.346649    38A     -0.318989

  @DF-RHF Final Energy:  -454.46424381058767

   => Energetics <=

    Nuclear Repulsion Energy =            549.6758195371758120
    One-Electron Energy =               -1704.7972259320458761
    Two-Electron Energy =                 700.6571625842824460
    Total Energy =                       -454.4642438105876181
  Basis Set: (AUG-CC-PVTZ AUX)
    Blend: AUG-CC-PVTZ-RI
    Molecular point group: c1

    Geometry (in Angstrom), charge = 0, multiplicity = 1:

       Center              X                  Y                   Z               Mass
    ------------   -----------------  -----------------  -----------------  -----------------
         N            1.000540987654     0.055281031891     0.009853240716    14.003074004430
         N            1.688421987654    -1.034675968109    -0.408925759284    14.003074004430
         C           -0.417752012346     0.038344031891     0.000946240716    12.000000000000
         C           -1.123770012346     1.218680031891    -0.245007759284    12.000000000000
         C           -1.084302012346    -1.164557968109     0.247854240716    12.000000000000
         C            1.776549987654     0.944949531891     0.363914140716    12.000000000000
         C           -2.518625012346     1.193986031891    -0.221372759284    12.000000000000
         C           -2.478193012346    -1.177284968109     0.246049240716    12.000000000000
         C            3.116389987654     0.620322031891     0.246861240716    12.000000000000
         C           -3.198943012346    -0.000743968109     0.023062240716    12.000000000000
         C            2.980387987654    -0.683170968109    -0.259807759284    12.000000000000
         H           -0.590256012346     2.135427031891    -0.481095759284     1.007825032230
         H           -0.503987012346    -2.064178968109     0.425165240716     1.007825032230
         H            1.421193987654     1.993354031891     0.818437240716     1.007825032230
         H           -3.073074012346     2.109235031891    -0.413008759284     1.007825032230
         H           -3.003557012346    -2.110267968109     0.434180240716     1.007825032230
         H            4.026545987654     1.157415031891     0.474324240716     1.007825032230
         H           -4.285676012346    -0.016756968109     0.031171240716     1.007825032230
         H            3.751808987654    -1.390167968109    -0.536807759284     1.007825032230

  Basis Set: AUG-CC-PVTZ
    Blend: AUG-CC-PVTZ
  Basis Set: (AUG-CC-PVTZ AUX)
    Blend: AUG-CC-PVTZ-JKFIT
	 Reference Energy          =    -454.4642438105876749 [Eh]
	 Singles Energy            =      -0.0000000000000000 [Eh]
	 Same-Spin Energy          =      -0.5086604878138705 [Eh]
	 Opposite-Spin Energy      =      -1.5449743299048599 [Eh]
	 Correlation Energy        =      -2.0536348177187307 [Eh]
	 Total Energy              =    -456.5178786283063914 [Eh]

	 ================> DF-SCS-MP2 Energies <==================
	-----------------------------------------------------------
	 SCS Same-Spin Scale       =       0.3333333333333333 [-]
	 SCS Opposite-Spin Scale   =       1.2000000000000000 [-]
	 SCS Same-Spin Energy      =      -0.1695534959379568 [Eh]
	 SCS Opposite-Spin Energy  =      -1.8539691958858318 [Eh]
	 SCS Correlation Energy    =      -2.0235226918237887 [Eh]
	 SCS Total Energy          =    -456.4877665024114890 [Eh]
	-----------------------------------------------------------

  Dipole Moment: [D]
     X:    -1.2329      Y:     1.6301      Z:     0.7284     Total:     2.1697

*** Psi4 exiting successfully. Buy a developer a beer!
