                               Psi4 1.3.2 release

  ==> Input File <==

--------------------------------------------------------------------------
#psi4
#
memory 32 gb

molecule  {
0 1
  N        1.0119030     0.0333230     0.0008060
  N        1.6997840    -1.0566340    -0.4179730
  C       -0.4063900     0.0163860    -0.0081010
  C       -1.1124080     1.1967220    -0.2540550
  C       -1.0729400    -1.1865160     0.2388070
  C        1.8312940     1.0508850     0.4071570
  C       -2.5072630     1.1720280    -0.2304200
  C       -2.4668310    -1.1992430     0.2370020
  C        3.1277520     0.5983640     0.2378140
  C       -3.1875810    -0.0227020     0.0140150
  C        2.9917500    -0.7051290    -0.2688550
  H       -0.5788940     2.1134690    -0.4901430
  H       -0.4926250    -2.0861370     0.4161180
  H        1.4325560     1.9713960     0.8093900
  H       -3.0617120     2.0872770    -0.4220560
  H       -2.9921950    -2.1322260     0.4251330
  H        4.0379080     1.1354570     0.4652770
  H       -4.2743140    -0.0387150     0.0221240
  H        3.6206365    -1.2814951    -0.4946741
units angstrom
no_reorient  #important for SAPT in psi4, default
symmetry c1  #important for SAPT in psi4, default
}

set PROPERTIES_ORIGIN ["COM"]
properties('MP2/aug-cc-pvtz', properties = ['dipole'])
--------------------------------------------------------------------------

    Molecular point group: c1
  Charge       = 0
  Multiplicity = 1
  Basis Set: AUG-CC-PVTZ
    Blend: AUG-CC-PVTZ
  Basis Set: (AUG-CC-PVTZ AUX)
    Blend: AUG-CC-PVTZ-JKFIT

    Orbital Energies [Eh]
    ---------------------

    Doubly Occupied:

       1A    -15.651372     2A    -15.590376     3A    -11.291451
       4A    -11.281650     5A    -11.248076     6A    -11.246571
       7A    -11.245865     8A    -11.240915     9A    -11.240755
      10A    -11.236736    11A    -11.226927    12A     -1.381792
      13A     -1.176066    14A     -1.113413    15A     -1.063124
      16A     -1.024345    17A     -1.002332    18A     -0.872683
      19A     -0.851638    20A     -0.812684    21A     -0.781838
      22A     -0.743498    23A     -0.690891    24A     -0.653917
      25A     -0.643857    26A     -0.618275    27A     -0.602906
      28A     -0.595569    29A     -0.588197    30A     -0.575269
      31A     -0.520338    32A     -0.510811    33A     -0.506802
      34A     -0.463525    35A     -0.394770    36A     -0.349252
      37A     -0.346084    38A     -0.312873

  @DF-RHF Final Energy:  -454.45188005310200

   => Energetics <=

    Nuclear Repulsion Energy =            547.5665935689270327
    One-Electron Energy =               -1700.6420643493179341
    Two-Electron Energy =                 698.6235907272887289
    Total Energy =                       -454.4518800531020588
  Basis Set: (AUG-CC-PVTZ AUX)
    Blend: AUG-CC-PVTZ-RI
    Molecular point group: c1

    Geometry (in Angstrom), charge = 0, multiplicity = 1:

       Center              X                  Y                   Z               Mass
    ------------   -----------------  -----------------  -----------------  -----------------
         N            0.997924638394     0.043714504722     0.005139778564    14.003074004430
         N            1.685805638394    -1.046242495278    -0.413639221436    14.003074004430
         C           -0.420368361606     0.026777504722    -0.003767221436    12.000000000000
         C           -1.126386361606     1.207113504722    -0.249721221436    12.000000000000
         C           -1.086918361606    -1.176124495278     0.243140778564    12.000000000000
         C            1.817315638394     1.061276504722     0.411490778564    12.000000000000
         C           -2.521241361606     1.182419504722    -0.226086221436    12.000000000000
         C           -2.480809361606    -1.188851495278     0.241335778564    12.000000000000
         C            3.113773638394     0.608755504722     0.242147778564    12.000000000000
         C           -3.201559361606    -0.012310495278     0.018348778564    12.000000000000
         C            2.977771638394    -0.694737495278    -0.264521221436    12.000000000000
         H           -0.592872361606     2.123860504722    -0.485809221436     1.007825032230
         H           -0.506603361606    -2.075745495278     0.420451778564     1.007825032230
         H            1.418577638394     1.981787504722     0.813723778564     1.007825032230
         H           -3.075690361606     2.097668504722    -0.417722221436     1.007825032230
         H           -3.006173361606    -2.121834495278     0.429466778564     1.007825032230
         H            4.023929638394     1.145848504722     0.469610778564     1.007825032230
         H           -4.288292361606    -0.028323495278     0.026457778564     1.007825032230
         H            3.606658138394    -1.271103595278    -0.490340321436     1.007825032230

  Basis Set: AUG-CC-PVTZ
    Blend: AUG-CC-PVTZ
  Basis Set: (AUG-CC-PVTZ AUX)
    Blend: AUG-CC-PVTZ-JKFIT
	 Reference Energy          =    -454.4518800531020020 [Eh]
	 Singles Energy            =      -0.0000000000000000 [Eh]
	 Same-Spin Energy          =      -0.5095485076508499 [Eh]
	 Opposite-Spin Energy      =      -1.5476118928598137 [Eh]
	 Correlation Energy        =      -2.0571604005106634 [Eh]
	 Total Energy              =    -456.5090404536126698 [Eh]

	 ================> DF-SCS-MP2 Energies <==================
	-----------------------------------------------------------
	 SCS Same-Spin Scale       =       0.3333333333333333 [-]
	 SCS Opposite-Spin Scale   =       1.2000000000000000 [-]
	 SCS Same-Spin Energy      =      -0.1698495025502833 [Eh]
	 SCS Opposite-Spin Energy  =      -1.8571342714317765 [Eh]
	 SCS Correlation Energy    =      -2.0269837739820598 [Eh]
	 SCS Total Energy          =    -456.4788638270840693 [Eh]
	-----------------------------------------------------------

  Dipole Moment: [D]
     X:    -0.8817      Y:     1.6466      Z:     0.7424     Total:     2.0100

*** Psi4 exiting successfully. Buy a developer a beer!
