                               Psi4 1.3.2 release

  ==> Input File <==

--------------------------------------------------------------------------
#psi4
#
memory 32 gb

molecule  {
0 1
  N        1.0119030     0.0333230     0.0008060
  N        1.6669596    -0.9291906    -0.3673182
  C       -0.4063900     0.0163860    -0.0081010
  C       -1.1124080     1.1967220    -0.2540550
  C       -1.0729400    -1.1865160     0.2388070
  C        1.8312940     1.0508850     0.4071570
  C       -2.5072630     1.1720280    -0.2304200
  C       -2.4668310    -1.1992430     0.2370020
  C        3.1277520     0.5983640     0.2378140
  C       -3.1875810    -0.0227020     0.0140150
  C        2.9917500    -0.7051290    -0.2688550
  H       -0.5788940     2.1134690    -0.4901430
  H       -0.4926250    -2.0861370     0.4161180
  H        1.4325560     1.9713960     0.8093900
  H       -3.0617120     2.0872770    -0.4220560
  H       -2.9921950    -2.1322260     0.4251330
  H        4.0379080     1.1354570     0.4652770
  H       -4.2743140    -0.0387150     0.0221240
  H        3.7631710    -1.4121260    -0.5458550
units angstrom
no_reorient  #important for SAPT in psi4, default
symmetry c1  #important for SAPT in psi4, default
}

set PROPERTIES_ORIGIN ["COM"]
properties('MP2/aug-cc-pvtz', properties = ['dipole'])
--------------------------------------------------------------------------

    Molecular point group: c1
  Charge       = 0
  Multiplicity = 1
  Basis Set: AUG-CC-PVTZ
    Blend: AUG-CC-PVTZ
  Basis Set: (AUG-CC-PVTZ AUX)
    Blend: AUG-CC-PVTZ-JKFIT

    Orbital Energies [Eh]
    ---------------------

    Doubly Occupied:

       1A    -15.659491     2A    -15.577878     3A    -11.294145
       4A    -11.262936     5A    -11.251344     6A    -11.250004
       7A    -11.248842     8A    -11.247975     9A    -11.245555
      10A    -11.244842    11A    -11.226389    12A     -1.444901
      13A     -1.179801    14A     -1.109355    15A     -1.067264
      16A     -1.027007    17A     -1.005835    18A     -0.868083
      19A     -0.853872    20A     -0.811416    21A     -0.774842
      22A     -0.740333    23A     -0.690634    24A     -0.664836
      25A     -0.651066    26A     -0.627226    27A     -0.610822
      28A     -0.600269    29A     -0.589062    30A     -0.558907
      31A     -0.524851    32A     -0.514977    33A     -0.509158
      34A     -0.440180    35A     -0.392635    36A     -0.350100
      37A     -0.342805    38A     -0.313849

  @DF-RHF Final Energy:  -454.47529274125270

   => Energetics <=

    Nuclear Repulsion Energy =            550.3613463692884125
    One-Electron Energy =               -1706.1263052805818461
    Two-Electron Energy =                 701.2896661700407321
    Total Energy =                       -454.4752927412527015
  Basis Set: (AUG-CC-PVTZ AUX)
    Blend: AUG-CC-PVTZ-RI
    Molecular point group: c1

    Geometry (in Angstrom), charge = 0, multiplicity = 1:

       Center              X                  Y                   Z               Mass
    ------------   -----------------  -----------------  -----------------  -----------------
         N            1.000117984759     0.032241188750     0.000574308753    14.003074004430
         N            1.655174584759    -0.930272411250    -0.367549891247    14.003074004430
         C           -0.418175015241     0.015304188750    -0.008332691247    12.000000000000
         C           -1.124193015241     1.195640188750    -0.254286691247    12.000000000000
         C           -1.084725015241    -1.187597811250     0.238575308753    12.000000000000
         C            1.819508984759     1.049803188750     0.406925308753    12.000000000000
         C           -2.519048015241     1.170946188750    -0.230651691247    12.000000000000
         C           -2.478616015241    -1.200324811250     0.236770308753    12.000000000000
         C            3.115966984759     0.597282188750     0.237582308753    12.000000000000
         C           -3.199366015241    -0.023783811250     0.013783308753    12.000000000000
         C            2.979964984759    -0.706210811250    -0.269086691247    12.000000000000
         H           -0.590679015241     2.112387188750    -0.490374691247     1.007825032230
         H           -0.504410015241    -2.087218811250     0.415886308753     1.007825032230
         H            1.420770984759     1.970314188750     0.809158308753     1.007825032230
         H           -3.073497015241     2.086195188750    -0.422287691247     1.007825032230
         H           -3.003980015241    -2.133307811250     0.424901308753     1.007825032230
         H            4.026122984759     1.134375188750     0.465045308753     1.007825032230
         H           -4.286099015241    -0.039796811250     0.021892308753     1.007825032230
         H            3.751385984759    -1.413207811250    -0.546086691247     1.007825032230

  Basis Set: AUG-CC-PVTZ
    Blend: AUG-CC-PVTZ
  Basis Set: (AUG-CC-PVTZ AUX)
    Blend: AUG-CC-PVTZ-JKFIT
	 Reference Energy          =    -454.4752927412527015 [Eh]
	 Singles Energy            =      -0.0000000000000000 [Eh]
	 Same-Spin Energy          =      -0.5094948449429565 [Eh]
	 Opposite-Spin Energy      =      -1.5440590006375894 [Eh]
	 Correlation Energy        =      -2.0535538455805460 [Eh]
	 Total Energy              =    -456.5288465868332537 [Eh]

	 ================> DF-SCS-MP2 Energies <==================
	-----------------------------------------------------------
	 SCS Same-Spin Scale       =       0.3333333333333333 [-]
	 SCS Opposite-Spin Scale   =       1.2000000000000000 [-]
	 SCS Same-Spin Energy      =      -0.1698316149809855 [Eh]
	 SCS Opposite-Spin Energy  =      -1.8528708007651071 [Eh]
	 SCS Correlation Energy    =      -2.0227024157460924 [Eh]
	 SCS Total Energy          =    -456.4979951569987975 [Eh]
	-----------------------------------------------------------

  Dipole Moment: [D]
     X:    -1.1329      Y:     1.4076      Z:     0.6404     Total:     1.9170

*** Psi4 exiting successfully. Buy a developer a beer!
