                               Psi4 1.3.2 release

  ==> Input File <==

--------------------------------------------------------------------------
#psi4
#
memory 32 gb

molecule  {
0 1
  N        1.0119030     0.0333230     0.0008060
  N        1.7066429    -1.0775373    -0.4262714
  C       -0.4063900     0.0163860    -0.0081010
  C       -1.1124080     1.1967220    -0.2540550
  C       -1.0729400    -1.1865160     0.2388070
  C        1.8312940     1.0508850     0.4071570
  C       -2.5072630     1.1720280    -0.2304200
  C       -2.4668310    -1.1992430     0.2370020
  C        3.1277520     0.5983640     0.2378140
  C       -3.1875810    -0.0227020     0.0140150
  C        2.9917500    -0.7051290    -0.2688550
  H       -0.5788940     2.1134690    -0.4901430
  H       -0.4926250    -2.0861370     0.4161180
  H        1.4325560     1.9713960     0.8093900
  H       -3.0617120     2.0872770    -0.4220560
  H       -2.9921950    -2.1322260     0.4251330
  H        4.0379080     1.1354570     0.4652770
  H       -4.2743140    -0.0387150     0.0221240
  H        3.7631710    -1.4121260    -0.5458550
units angstrom
no_reorient  #important for SAPT in psi4, default
symmetry c1  #important for SAPT in psi4, default
}

set PROPERTIES_ORIGIN ["COM"]
properties('MP2/aug-cc-pvtz', properties = ['dipole'])
--------------------------------------------------------------------------

    Molecular point group: c1
  Charge       = 0
  Multiplicity = 1
  Basis Set: AUG-CC-PVTZ
    Blend: AUG-CC-PVTZ
  Basis Set: (AUG-CC-PVTZ AUX)
    Blend: AUG-CC-PVTZ-JKFIT

    Orbital Energies [Eh]
    ---------------------

    Doubly Occupied:

       1A    -15.650381     2A    -15.593035     3A    -11.291281
       4A    -11.285442     5A    -11.261602     6A    -11.247803
       7A    -11.246181     8A    -11.245562     9A    -11.240403
      10A    -11.240244    11A    -11.228325    12A     -1.374045
      13A     -1.174946    14A     -1.110933    15A     -1.063569
      16A     -1.024069    17A     -0.996873    18A     -0.860031
      19A     -0.846994    20A     -0.794958    21A     -0.778395
      22A     -0.742656    23A     -0.686194    24A     -0.647630
      25A     -0.638468    26A     -0.613215    27A     -0.596616
      28A     -0.592903    29A     -0.587399    30A     -0.563710
      31A     -0.519725    32A     -0.510153    33A     -0.506761
      34A     -0.465882    35A     -0.395750    36A     -0.350843
      37A     -0.346202    38A     -0.312240

  @DF-RHF Final Energy:  -454.48636038528190

   => Energetics <=

    Nuclear Repulsion Energy =            545.7312466353106402
    One-Electron Energy =               -1697.1723745693414003
    Two-Electron Energy =                 696.9547675487488050
    Total Energy =                       -454.4863603852818414
  Basis Set: (AUG-CC-PVTZ AUX)
    Blend: AUG-CC-PVTZ-RI
    Molecular point group: c1

    Geometry (in Angstrom), charge = 0, multiplicity = 1:

       Center              X                  Y                   Z               Mass
    ------------   -----------------  -----------------  -----------------  -----------------
         N            0.996260880472     0.046660067538     0.006304392705    14.003074004430
         N            1.691000780472    -1.064200232462    -0.420773007295    14.003074004430
         C           -0.422032119528     0.029723067538    -0.002602607295    12.000000000000
         C           -1.128050119528     1.210059067538    -0.248556607295    12.000000000000
         C           -1.088582119528    -1.173178932462     0.244305392705    12.000000000000
         C            1.815651880472     1.064222067538     0.412655392705    12.000000000000
         C           -2.522905119528     1.185365067538    -0.224921607295    12.000000000000
         C           -2.482473119528    -1.185905932462     0.242500392705    12.000000000000
         C            3.112109880472     0.611701067538     0.243312392705    12.000000000000
         C           -3.203223119528    -0.009364932462     0.019513392705    12.000000000000
         C            2.976107880472    -0.691791932462    -0.263356607295    12.000000000000
         H           -0.594536119528     2.126806067538    -0.484644607295     1.007825032230
         H           -0.508267119528    -2.072799932462     0.421616392705     1.007825032230
         H            1.416913880472     1.984733067538     0.814888392705     1.007825032230
         H           -3.077354119528     2.100614067538    -0.416557607295     1.007825032230
         H           -3.007837119528    -2.118888932462     0.430631392705     1.007825032230
         H            4.022265880472     1.148794067538     0.470775392705     1.007825032230
         H           -4.289956119528    -0.025377932462     0.027622392705     1.007825032230
         H            3.747528880472    -1.398788932462    -0.540356607295     1.007825032230

  Basis Set: AUG-CC-PVTZ
    Blend: AUG-CC-PVTZ
  Basis Set: (AUG-CC-PVTZ AUX)
    Blend: AUG-CC-PVTZ-JKFIT
	 Reference Energy          =    -454.4863603852818983 [Eh]
	 Singles Energy            =      -0.0000000000000000 [Eh]
	 Same-Spin Energy          =      -0.5097136520987848 [Eh]
	 Opposite-Spin Energy      =      -1.5485996228070120 [Eh]
	 Correlation Energy        =      -2.0583132749057969 [Eh]
	 Total Energy              =    -456.5446736601876978 [Eh]

	 ================> DF-SCS-MP2 Energies <==================
	-----------------------------------------------------------
	 SCS Same-Spin Scale       =       0.3333333333333333 [-]
	 SCS Opposite-Spin Scale   =       1.2000000000000000 [-]
	 SCS Same-Spin Energy      =      -0.1699045506995949 [Eh]
	 SCS Opposite-Spin Energy  =      -1.8583195473684144 [Eh]
	 SCS Correlation Energy    =      -2.0282240980680095 [Eh]
	 SCS Total Energy          =    -456.5145844833498927 [Eh]
	-----------------------------------------------------------

  Dipole Moment: [D]
     X:    -0.8487      Y:     1.6643      Z:     0.7498     Total:     2.0131

*** Psi4 exiting successfully. Buy a developer a beer!
