                               Psi4 1.3.2 release

  ==> Input File <==

--------------------------------------------------------------------------
#psi4
#
memory 32 gb

molecule  {
0 1
  O        0.0000000     1.3710840     0.0001610
  N        1.1567260    -0.6015950    -0.0003660
  N       -1.1567250    -0.6015950    -0.0000840
  C       -0.0000010     0.1421750     0.0000460
  H        1.1829190    -1.6081880     0.0006500
  H        2.0253400    -0.0915110     0.0004520
  H       -2.0253400    -0.0915110     0.0003950
  H       -1.1829200    -1.6081890     0.0000880
units angstrom
no_reorient  #important for SAPT in psi4, default
symmetry c1  #important for SAPT in psi4, default
}

set PROPERTIES_ORIGIN ["COM"]
properties('MP2/aug-cc-pvtz', properties = ['dipole'])
--------------------------------------------------------------------------

    Molecular point group: c1
  Charge       = 0
  Multiplicity = 1
  Basis Set: AUG-CC-PVTZ
    Blend: AUG-CC-PVTZ
  Basis Set: (AUG-CC-PVTZ AUX)
    Blend: AUG-CC-PVTZ-JKFIT

    Orbital Energies [Eh]
    ---------------------

    Doubly Occupied:

       1A    -20.506171     2A    -15.584223     3A    -15.584197
       4A    -11.382171     5A     -1.381016     6A     -1.229148
       7A     -1.176687     8A     -0.833514     9A     -0.745104
      10A     -0.732485    11A     -0.645830    12A     -0.602427
      13A     -0.597109    14A     -0.438126    15A     -0.426101
      16A     -0.413987

  @DF-RHF Final Energy:  -224.08123240787461

   => Energetics <=

    Nuclear Repulsion Energy =            123.4509068288748637
    One-Electron Energy =                -550.5076880292946271
    Two-Electron Energy =                 202.9755487925451689
    Total Energy =                       -224.0812324078746087
  Basis Set: (AUG-CC-PVTZ AUX)
    Blend: AUG-CC-PVTZ-RI
    Molecular point group: c1

    Geometry (in Angstrom), charge = 0, multiplicity = 1:

       Center              X                  Y                   Z               Mass
    ------------   -----------------  -----------------  -----------------  -----------------
         O           -0.000000016579     1.315078982977     0.000187265822    15.994914619570
         N            1.156725983421    -0.657600017023    -0.000339734178    14.003074004430
         N           -1.156725016579    -0.657600017023    -0.000057734178    14.003074004430
         C           -0.000001016579     0.086169982977     0.000072265822    12.000000000000
         H            1.182918983421    -1.664193017023     0.000676265822     1.007825032230
         H            2.025339983421    -0.147516017023     0.000478265822     1.007825032230
         H           -2.025340016579    -0.147516017023     0.000421265822     1.007825032230
         H           -1.182920016579    -1.664194017023     0.000114265822     1.007825032230

  Basis Set: AUG-CC-PVTZ
    Blend: AUG-CC-PVTZ
  Basis Set: (AUG-CC-PVTZ AUX)
    Blend: AUG-CC-PVTZ-JKFIT
	 Reference Energy          =    -224.0812324078746087 [Eh]
	 Singles Energy            =      -0.0000000000000000 [Eh]
	 Same-Spin Energy          =      -0.2207899526015471 [Eh]
	 Opposite-Spin Energy      =      -0.6731578116286804 [Eh]
	 Correlation Energy        =      -0.8939477642302275 [Eh]
	 Total Energy              =    -224.9751801721048423 [Eh]

	 ================> DF-SCS-MP2 Energies <==================
	-----------------------------------------------------------
	 SCS Same-Spin Scale       =       0.3333333333333333 [-]
	 SCS Opposite-Spin Scale   =       1.2000000000000000 [-]
	 SCS Same-Spin Energy      =      -0.0735966508671824 [Eh]
	 SCS Opposite-Spin Energy  =      -0.8077893739544164 [Eh]
	 SCS Correlation Energy    =      -0.8813860248215988 [Eh]
	 SCS Total Energy          =    -224.9626184326962175 [Eh]
	-----------------------------------------------------------

  Dipole Moment: [D]
     X:    -0.0000      Y:    -4.3099      Z:     0.0034     Total:     4.3099

*** Psi4 exiting successfully. Buy a developer a beer!
