                               Psi4 1.3.2 release

  ==> Input File <==

--------------------------------------------------------------------------
#psi4
#
memory 32 gb

molecule  {
0 1
  O        0.0000000     1.3710840     0.0001610
  N        1.1435692    -0.6216694    -0.0003717
  N       -1.1567250    -0.6015950    -0.0000840
  C       -0.0000010     0.1421750     0.0000460
  H        1.1829190    -1.6081880     0.0006500
  H        2.0253400    -0.0915110     0.0004520
  H       -2.0253400    -0.0915110     0.0003950
  H       -1.1829200    -1.6081890     0.0000880
units angstrom
no_reorient  #important for SAPT in psi4, default
symmetry c1  #important for SAPT in psi4, default
}

set PROPERTIES_ORIGIN ["COM"]
properties('MP2/aug-cc-pvtz', properties = ['dipole'])
--------------------------------------------------------------------------

    Molecular point group: c1
  Charge       = 0
  Multiplicity = 1
  Basis Set: AUG-CC-PVTZ
    Blend: AUG-CC-PVTZ
  Basis Set: (AUG-CC-PVTZ AUX)
    Blend: AUG-CC-PVTZ-JKFIT

    Orbital Energies [Eh]
    ---------------------

    Doubly Occupied:

       1A    -20.507582     2A    -15.584347     3A    -15.583051
       4A    -11.382677     5A     -1.381307     6A     -1.230752
       7A     -1.175363     8A     -0.833742     9A     -0.748811
      10A     -0.731407    11A     -0.639213    12A     -0.604529
      13A     -0.597350    14A     -0.439458    15A     -0.425297
      16A     -0.414999

  @DF-RHF Final Energy:  -224.07996882589123

   => Energetics <=

    Nuclear Repulsion Energy =            123.4649342940292627
    One-Electron Energy =                -550.5300358210472496
    Two-Electron Energy =                 202.9851327011267585
    Total Energy =                       -224.0799688258912283
  Basis Set: (AUG-CC-PVTZ AUX)
    Blend: AUG-CC-PVTZ-RI
    Molecular point group: c1

    Geometry (in Angstrom), charge = 0, multiplicity = 1:

       Center              X                  Y                   Z               Mass
    ------------   -----------------  -----------------  -----------------  -----------------
         O            0.003068922167     1.319761512465     0.000188595397    15.994914619570
         N            1.146638122167    -0.672991887535    -0.000344104603    14.003074004430
         N           -1.153656077833    -0.652917487535    -0.000056404603    14.003074004430
         C            0.003067922167     0.090852512465     0.000073595397    12.000000000000
         H            1.185987922167    -1.659510487535     0.000677595397     1.007825032230
         H            2.028408922167    -0.142833487535     0.000479595397     1.007825032230
         H           -2.022271077833    -0.142833487535     0.000422595397     1.007825032230
         H           -1.179851077833    -1.659511487535     0.000115595397     1.007825032230

  Basis Set: AUG-CC-PVTZ
    Blend: AUG-CC-PVTZ
  Basis Set: (AUG-CC-PVTZ AUX)
    Blend: AUG-CC-PVTZ-JKFIT
	 Reference Energy          =    -224.0799688258912283 [Eh]
	 Singles Energy            =      -0.0000000000000000 [Eh]
	 Same-Spin Energy          =      -0.2208861100435556 [Eh]
	 Opposite-Spin Energy      =      -0.6733421866839149 [Eh]
	 Correlation Energy        =      -0.8942282967274705 [Eh]
	 Total Energy              =    -224.9741971226187047 [Eh]

	 ================> DF-SCS-MP2 Energies <==================
	-----------------------------------------------------------
	 SCS Same-Spin Scale       =       0.3333333333333333 [-]
	 SCS Opposite-Spin Scale   =       1.2000000000000000 [-]
	 SCS Same-Spin Energy      =      -0.0736287033478519 [Eh]
	 SCS Opposite-Spin Energy  =      -0.8080106240206978 [Eh]
	 SCS Correlation Energy    =      -0.8816393273685497 [Eh]
	 SCS Total Energy          =    -224.9616081532597889 [Eh]
	-----------------------------------------------------------

  Dipole Moment: [D]
     X:     0.0236      Y:    -4.2785      Z:     0.0034     Total:     4.2785

*** Psi4 exiting successfully. Buy a developer a beer!
