                               Psi4 1.3.2 release

  ==> Input File <==

--------------------------------------------------------------------------
#psi4
#
memory 32 gb

molecule  {
0 1
  O        0.0000000     1.3710840     0.0001610
  N        1.1300642    -0.6415111    -0.0003773
  N       -1.1567250    -0.6015950    -0.0000840
  C       -0.0000010     0.1421750     0.0000460
  H        1.1829190    -1.6081880     0.0006500
  H        2.0253400    -0.0915110     0.0004520
  H       -2.0253400    -0.0915110     0.0003950
  H       -1.1829200    -1.6081890     0.0000880
units angstrom
no_reorient  #important for SAPT in psi4, default
symmetry c1  #important for SAPT in psi4, default
}

set PROPERTIES_ORIGIN ["COM"]
properties('MP2/aug-cc-pvtz', properties = ['dipole'])
--------------------------------------------------------------------------

    Molecular point group: c1
  Charge       = 0
  Multiplicity = 1
  Basis Set: AUG-CC-PVTZ
    Blend: AUG-CC-PVTZ
  Basis Set: (AUG-CC-PVTZ AUX)
    Blend: AUG-CC-PVTZ-JKFIT

    Orbital Energies [Eh]
    ---------------------

    Doubly Occupied:

       1A    -20.509054     2A    -15.584485     3A    -15.581934
       4A    -11.383347     5A     -1.381690     6A     -1.232506
       7A     -1.174205     8A     -0.835237     9A     -0.752419
      10A     -0.729627    11A     -0.632232    12A     -0.606534
      13A     -0.597671    14A     -0.440796    15A     -0.424622
      16A     -0.415977

  @DF-RHF Final Energy:  -224.07682679811708

   => Energetics <=

    Nuclear Repulsion Energy =            123.4858915300257536
    One-Electron Energy =                -550.5607607799920515
    Two-Electron Energy =                 202.9980424518492157
    Total Energy =                       -224.0768267981170823
  Basis Set: (AUG-CC-PVTZ AUX)
    Blend: AUG-CC-PVTZ-RI
    Molecular point group: c1

    Geometry (in Angstrom), charge = 0, multiplicity = 1:

       Center              X                  Y                   Z               Mass
    ------------   -----------------  -----------------  -----------------  -----------------
         O            0.006219081610     1.324389762640     0.000189901646    15.994914619570
         N            1.136283281610    -0.688205337360    -0.000348398354    14.003074004430
         N           -1.150505918390    -0.648289237360    -0.000055098354    14.003074004430
         C            0.006218081610     0.095480762640     0.000074901646    12.000000000000
         H            1.189138081610    -1.654882237360     0.000678901646     1.007825032230
         H            2.031559081610    -0.138205237360     0.000480901646     1.007825032230
         H           -2.019120918390    -0.138205237360     0.000423901646     1.007825032230
         H           -1.176700918390    -1.654883237360     0.000116901646     1.007825032230

  Basis Set: AUG-CC-PVTZ
    Blend: AUG-CC-PVTZ
  Basis Set: (AUG-CC-PVTZ AUX)
    Blend: AUG-CC-PVTZ-JKFIT
	 Reference Energy          =    -224.0768267981170823 [Eh]
	 Singles Energy            =      -0.0000000000000000 [Eh]
	 Same-Spin Energy          =      -0.2210080541369736 [Eh]
	 Opposite-Spin Energy      =      -0.6736164687872787 [Eh]
	 Correlation Energy        =      -0.8946245229242522 [Eh]
	 Total Energy              =    -224.9714513210413429 [Eh]

	 ================> DF-SCS-MP2 Energies <==================
	-----------------------------------------------------------
	 SCS Same-Spin Scale       =       0.3333333333333333 [-]
	 SCS Opposite-Spin Scale   =       1.2000000000000000 [-]
	 SCS Same-Spin Energy      =      -0.0736693513789912 [Eh]
	 SCS Opposite-Spin Energy  =      -0.8083397625447344 [Eh]
	 SCS Correlation Energy    =      -0.8820091139237256 [Eh]
	 SCS Total Energy          =    -224.9588359120407972 [Eh]
	-----------------------------------------------------------

  Dipole Moment: [D]
     X:     0.0447      Y:    -4.2451      Z:     0.0035     Total:     4.2453

*** Psi4 exiting successfully. Buy a developer a beer!
