                               Psi4 1.3.2 release

  ==> Input File <==

--------------------------------------------------------------------------
#psi4
#
memory 32 gb

molecule  {
0 1
  O        0.0000000     1.3710840     0.0001610
  N        1.1020255    -0.6804724    -0.0003881
  N       -1.1567250    -0.6015950    -0.0000840
  C       -0.0000010     0.1421750     0.0000460
  H        1.1829190    -1.6081880     0.0006500
  H        2.0253400    -0.0915110     0.0004520
  H       -2.0253400    -0.0915110     0.0003950
  H       -1.1829200    -1.6081890     0.0000880
units angstrom
no_reorient  #important for SAPT in psi4, default
symmetry c1  #important for SAPT in psi4, default
}

set PROPERTIES_ORIGIN ["COM"]
properties('MP2/aug-cc-pvtz', properties = ['dipole'])
--------------------------------------------------------------------------

    Molecular point group: c1
  Charge       = 0
  Multiplicity = 1
  Basis Set: AUG-CC-PVTZ
    Blend: AUG-CC-PVTZ
  Basis Set: (AUG-CC-PVTZ AUX)
    Blend: AUG-CC-PVTZ-JKFIT

    Orbital Energies [Eh]
    ---------------------

    Doubly Occupied:

       1A    -20.512170     2A    -15.584781     3A    -15.579836
       4A    -11.385168     5A     -1.382720     6A     -1.236447
       7A     -1.172370     8A     -0.841913     9A     -0.757531
      10A     -0.725648    11A     -0.618207    12A     -0.609423
      13A     -0.598550    14A     -0.443490    15A     -0.423952
      16A     -0.417528

  @DF-RHF Final Energy:  -224.06505826660251

   => Energetics <=

    Nuclear Repulsion Energy =            123.5479455368959947
    One-Electron Energy =                -550.6465397393375270
    Two-Electron Energy =                 203.0335359358390122
    Total Energy =                       -224.0650582666025059
  Basis Set: (AUG-CC-PVTZ AUX)
    Blend: AUG-CC-PVTZ-RI
    Molecular point group: c1

    Geometry (in Angstrom), charge = 0, multiplicity = 1:

       Center              X                  Y                   Z               Mass
    ------------   -----------------  -----------------  -----------------  -----------------
         O            0.012759353774     1.333477826847     0.000192420841    15.994914619570
         N            1.114784853774    -0.718078573153    -0.000356679159    14.003074004430
         N           -1.143965646226    -0.639201173153    -0.000052579159    14.003074004430
         C            0.012758353774     0.104568826847     0.000077420841    12.000000000000
         H            1.195678353774    -1.645794173153     0.000681420841     1.007825032230
         H            2.038099353774    -0.129117173153     0.000483420841     1.007825032230
         H           -2.012580646226    -0.129117173153     0.000426420841     1.007825032230
         H           -1.170160646226    -1.645795173153     0.000119420841     1.007825032230

  Basis Set: AUG-CC-PVTZ
    Blend: AUG-CC-PVTZ
  Basis Set: (AUG-CC-PVTZ AUX)
    Blend: AUG-CC-PVTZ-JKFIT
	 Reference Energy          =    -224.0650582666025059 [Eh]
	 Singles Energy            =      -0.0000000000000000 [Eh]
	 Same-Spin Energy          =      -0.2213290838056917 [Eh]
	 Opposite-Spin Energy      =      -0.6744354894820997 [Eh]
	 Correlation Energy        =      -0.8957645732877915 [Eh]
	 Total Energy              =    -224.9608228398902838 [Eh]

	 ================> DF-SCS-MP2 Energies <==================
	-----------------------------------------------------------
	 SCS Same-Spin Scale       =       0.3333333333333333 [-]
	 SCS Opposite-Spin Scale   =       1.2000000000000000 [-]
	 SCS Same-Spin Energy      =      -0.0737763612685639 [Eh]
	 SCS Opposite-Spin Energy  =      -0.8093225873785197 [Eh]
	 SCS Correlation Energy    =      -0.8830989486470836 [Eh]
	 SCS Total Energy          =    -224.9481572152495801 [Eh]
	-----------------------------------------------------------

  Dipole Moment: [D]
     X:     0.0797      Y:    -4.1735      Z:     0.0035     Total:     4.1742

*** Psi4 exiting successfully. Buy a developer a beer!
