                               Psi4 1.3.2 release

  ==> Input File <==

--------------------------------------------------------------------------
#psi4
#
memory 32 gb

molecule  {
0 1
  O        0.0000000     1.3710840     0.0001610
  N        1.2057911    -0.5190940    -0.0003419
  N       -1.1567250    -0.6015950    -0.0000840
  C       -0.0000010     0.1421750     0.0000460
  H        1.1829190    -1.6081880     0.0006500
  H        2.0253400    -0.0915110     0.0004520
  H       -2.0253400    -0.0915110     0.0003950
  H       -1.1829200    -1.6081890     0.0000880
units angstrom
no_reorient  #important for SAPT in psi4, default
symmetry c1  #important for SAPT in psi4, default
}

set PROPERTIES_ORIGIN ["COM"]
properties('MP2/aug-cc-pvtz', properties = ['dipole'])
--------------------------------------------------------------------------

    Molecular point group: c1
  Charge       = 0
  Multiplicity = 1
  Basis Set: AUG-CC-PVTZ
    Blend: AUG-CC-PVTZ
  Basis Set: (AUG-CC-PVTZ AUX)
    Blend: AUG-CC-PVTZ-JKFIT

    Orbital Energies [Eh]
    ---------------------

    Doubly Occupied:

       1A    -20.501204     2A    -15.589251     3A    -15.583691
       4A    -11.381823     5A     -1.380831     6A     -1.224275
       7A     -1.183709     8A     -0.843202     9A     -0.747206
      10A     -0.715345    11A     -0.667178    12A     -0.596971
      13A     -0.593219    14A     -0.432821    15A     -0.430100
      16A     -0.410140

  @DF-RHF Final Energy:  -224.06693055573004

   => Energetics <=

    Nuclear Repulsion Energy =            123.4655788671026215
    One-Electron Energy =                -550.5030885861211800
    Two-Electron Energy =                 202.9705791632885052
    Total Energy =                       -224.0669305557300390
  Basis Set: (AUG-CC-PVTZ AUX)
    Blend: AUG-CC-PVTZ-RI
    Molecular point group: c1

    Geometry (in Angstrom), charge = 0, multiplicity = 1:

       Center              X                  Y                   Z               Mass
    ------------   -----------------  -----------------  -----------------  -----------------
         O           -0.011444880562     1.295834902695     0.000181644286    15.994914619570
         N            1.194346219438    -0.594343097305    -0.000321255714    14.003074004430
         N           -1.168169880562    -0.676844097305    -0.000063355714    14.003074004430
         C           -0.011445880562     0.066925902695     0.000066644286    12.000000000000
         H            1.171474119438    -1.683437097305     0.000670644286     1.007825032230
         H            2.013895119438    -0.166760097305     0.000472644286     1.007825032230
         H           -2.036784880562    -0.166760097305     0.000415644286     1.007825032230
         H           -1.194364880562    -1.683438097305     0.000108644286     1.007825032230

  Basis Set: AUG-CC-PVTZ
    Blend: AUG-CC-PVTZ
  Basis Set: (AUG-CC-PVTZ AUX)
    Blend: AUG-CC-PVTZ-JKFIT
	 Reference Energy          =    -224.0669305557300390 [Eh]
	 Singles Energy            =      -0.0000000000000000 [Eh]
	 Same-Spin Energy          =      -0.2206625863267181 [Eh]
	 Opposite-Spin Energy      =      -0.6733197436288670 [Eh]
	 Correlation Energy        =      -0.8939823299555851 [Eh]
	 Total Energy              =    -224.9609128856856159 [Eh]

	 ================> DF-SCS-MP2 Energies <==================
	-----------------------------------------------------------
	 SCS Same-Spin Scale       =       0.3333333333333333 [-]
	 SCS Opposite-Spin Scale   =       1.2000000000000000 [-]
	 SCS Same-Spin Energy      =      -0.0735541954422394 [Eh]
	 SCS Opposite-Spin Energy  =      -0.8079836923546404 [Eh]
	 SCS Correlation Energy    =      -0.8815378877968798 [Eh]
	 SCS Total Energy          =    -224.9484684435269060 [Eh]
	-----------------------------------------------------------

  Dipole Moment: [D]
     X:    -0.1181      Y:    -4.4122      Z:     0.0033     Total:     4.4138

*** Psi4 exiting successfully. Buy a developer a beer!
