                               Psi4 1.3.2 release

  ==> Input File <==

--------------------------------------------------------------------------
#psi4
#
memory 32 gb

molecule  {
0 1
  O        0.0000000     1.3710840     0.0001610
  N        1.1819786    -0.5607727    -0.0003542
  N       -1.1567250    -0.6015950    -0.0000840
  C       -0.0000010     0.1421750     0.0000460
  H        1.1829190    -1.6081880     0.0006500
  H        2.0253400    -0.0915110     0.0004520
  H       -2.0253400    -0.0915110     0.0003950
  H       -1.1829200    -1.6081890     0.0000880
units angstrom
no_reorient  #important for SAPT in psi4, default
symmetry c1  #important for SAPT in psi4, default
}

set PROPERTIES_ORIGIN ["COM"]
properties('MP2/aug-cc-pvtz', properties = ['dipole'])
--------------------------------------------------------------------------

    Molecular point group: c1
  Charge       = 0
  Multiplicity = 1
  Basis Set: AUG-CC-PVTZ
    Blend: AUG-CC-PVTZ
  Basis Set: (AUG-CC-PVTZ AUX)
    Blend: AUG-CC-PVTZ-JKFIT

    Orbital Energies [Eh]
    ---------------------

    Doubly Occupied:

       1A    -20.503545     2A    -15.586653     3A    -15.583937
       4A    -11.381657     5A     -1.380721     6A     -1.226401
       7A     -1.179847     8A     -0.836507     9A     -0.743228
      10A     -0.727301    11A     -0.657689    12A     -0.597995
      13A     -0.596872    14A     -0.435473    15A     -0.427972
      16A     -0.411990

  @DF-RHF Final Energy:  -224.07800199148696

   => Energetics <=

    Nuclear Repulsion Energy =            123.4440326736951334
    One-Electron Energy =                -550.4884955859472484
    Two-Electron Energy =                 202.9664609207651722
    Total Energy =                       -224.0780019914869570
  Basis Set: (AUG-CC-PVTZ AUX)
    Blend: AUG-CC-PVTZ-RI
    Molecular point group: c1

    Geometry (in Angstrom), charge = 0, multiplicity = 1:

       Center              X                  Y                   Z               Mass
    ------------   -----------------  -----------------  -----------------  -----------------
         O           -0.005890406534     1.305556824234     0.000184513369    15.994914619570
         N            1.176088193466    -0.626299875766    -0.000330686631    14.003074004430
         N           -1.162615406534    -0.667122175766    -0.000060486631    14.003074004430
         C           -0.005891406534     0.076647824234     0.000069513369    12.000000000000
         H            1.177028593466    -1.673715175766     0.000673513369     1.007825032230
         H            2.019449593466    -0.157038175766     0.000475513369     1.007825032230
         H           -2.031230406534    -0.157038175766     0.000418513369     1.007825032230
         H           -1.188810406534    -1.673716175766     0.000111513369     1.007825032230

  Basis Set: AUG-CC-PVTZ
    Blend: AUG-CC-PVTZ
  Basis Set: (AUG-CC-PVTZ AUX)
    Blend: AUG-CC-PVTZ-JKFIT
	 Reference Energy          =    -224.0780019914869570 [Eh]
	 Singles Energy            =      -0.0000000000000000 [Eh]
	 Same-Spin Energy          =      -0.2206749887520474 [Eh]
	 Opposite-Spin Energy      =      -0.6730584648397600 [Eh]
	 Correlation Energy        =      -0.8937334535918073 [Eh]
	 Total Energy              =    -224.9717354450787639 [Eh]

	 ================> DF-SCS-MP2 Energies <==================
	-----------------------------------------------------------
	 SCS Same-Spin Scale       =       0.3333333333333333 [-]
	 SCS Opposite-Spin Scale   =       1.2000000000000000 [-]
	 SCS Same-Spin Energy      =      -0.0735583295840158 [Eh]
	 SCS Opposite-Spin Energy  =      -0.8076701578077119 [Eh]
	 SCS Correlation Energy    =      -0.8812284873917277 [Eh]
	 SCS Total Energy          =    -224.9592304788786805 [Eh]
	-----------------------------------------------------------

  Dipole Moment: [D]
     X:    -0.0544      Y:    -4.3662      Z:     0.0034     Total:     4.3666

*** Psi4 exiting successfully. Buy a developer a beer!
