                               Psi4 1.3.2 release

  ==> Input File <==

--------------------------------------------------------------------------
#psi4
#
memory 32 gb

molecule  {
0 1
  O        0.0000000     1.3710840     0.0001610
  N        1.1695304    -0.5812941    -0.0003602
  N       -1.1567250    -0.6015950    -0.0000840
  C       -0.0000010     0.1421750     0.0000460
  H        1.1829190    -1.6081880     0.0006500
  H        2.0253400    -0.0915110     0.0004520
  H       -2.0253400    -0.0915110     0.0003950
  H       -1.1829200    -1.6081890     0.0000880
units angstrom
no_reorient  #important for SAPT in psi4, default
symmetry c1  #important for SAPT in psi4, default
}

set PROPERTIES_ORIGIN ["COM"]
properties('MP2/aug-cc-pvtz', properties = ['dipole'])
--------------------------------------------------------------------------

    Molecular point group: c1
  Charge       = 0
  Multiplicity = 1
  Basis Set: AUG-CC-PVTZ
    Blend: AUG-CC-PVTZ
  Basis Set: (AUG-CC-PVTZ AUX)
    Blend: AUG-CC-PVTZ-JKFIT

    Orbital Energies [Eh]
    ---------------------

    Doubly Occupied:

       1A    -20.504824     2A    -15.585411     3A    -15.584072
       4A    -11.381831     5A     -1.380819     6A     -1.227697
       7A     -1.178180     8A     -0.834477     9A     -0.742872
      10A     -0.731423    11A     -0.652011    12A     -0.600249
      13A     -0.596950    14A     -0.436798    15A     -0.426999
      16A     -0.412976

  @DF-RHF Final Energy:  -224.08058599845384

   => Energetics <=

    Nuclear Repulsion Energy =            123.4439189068663865
    One-Electron Energy =                -550.4938313272473351
    Two-Electron Energy =                 202.9693264219271214
    Total Energy =                       -224.0805859984538415
  Basis Set: (AUG-CC-PVTZ AUX)
    Blend: AUG-CC-PVTZ-RI
    Molecular point group: c1

    Geometry (in Angstrom), charge = 0, multiplicity = 1:

       Center              X                  Y                   Z               Mass
    ------------   -----------------  -----------------  -----------------  -----------------
         O           -0.002986754940     1.310343620383     0.000185912922    15.994914619570
         N            1.166543645060    -0.642034479617    -0.000335287078    14.003074004430
         N           -1.159711754940    -0.662335379617    -0.000059087078    14.003074004430
         C           -0.002987754940     0.081434620383     0.000070912922    12.000000000000
         H            1.179932245060    -1.668928379617     0.000674912922     1.007825032230
         H            2.022353245060    -0.152251379617     0.000476912922     1.007825032230
         H           -2.028326754940    -0.152251379617     0.000419912922     1.007825032230
         H           -1.185906754940    -1.668929379617     0.000112912922     1.007825032230

  Basis Set: AUG-CC-PVTZ
    Blend: AUG-CC-PVTZ
  Basis Set: (AUG-CC-PVTZ AUX)
    Blend: AUG-CC-PVTZ-JKFIT
	 Reference Energy          =    -224.0805859984538415 [Eh]
	 Singles Energy            =      -0.0000000000000000 [Eh]
	 Same-Spin Energy          =      -0.2207195928404100 [Eh]
	 Opposite-Spin Energy      =      -0.6730632182820631 [Eh]
	 Correlation Energy        =      -0.8937828111224730 [Eh]
	 Total Energy              =    -224.9743688095763048 [Eh]

	 ================> DF-SCS-MP2 Energies <==================
	-----------------------------------------------------------
	 SCS Same-Spin Scale       =       0.3333333333333333 [-]
	 SCS Opposite-Spin Scale   =       1.2000000000000000 [-]
	 SCS Same-Spin Energy      =      -0.0735731976134700 [Eh]
	 SCS Opposite-Spin Energy  =      -0.8076758619384756 [Eh]
	 SCS Correlation Energy    =      -0.8812490595519455 [Eh]
	 SCS Total Energy          =    -224.9618350580057893 [Eh]
	-----------------------------------------------------------

  Dipole Moment: [D]
     X:    -0.0260      Y:    -4.3392      Z:     0.0034     Total:     4.3393

*** Psi4 exiting successfully. Buy a developer a beer!
