                               Psi4 1.3.2 release

  ==> Input File <==

--------------------------------------------------------------------------
#psi4
#
memory 32 gb

molecule  {
0 1
  O        0.0000000     1.3710840     0.0001610
  N        1.2281345    -0.4766097    -0.0003292
  N       -1.1567250    -0.6015950    -0.0000840
  C       -0.0000010     0.1421750     0.0000460
  H        1.1829190    -1.6081880     0.0006500
  H        2.0253400    -0.0915110     0.0004520
  H       -2.0253400    -0.0915110     0.0003950
  H       -1.1829200    -1.6081890     0.0000880
units angstrom
no_reorient  #important for SAPT in psi4, default
symmetry c1  #important for SAPT in psi4, default
}

set PROPERTIES_ORIGIN ["COM"]
properties('MP2/aug-cc-pvtz', properties = ['dipole'])
--------------------------------------------------------------------------

    Molecular point group: c1
  Charge       = 0
  Multiplicity = 1
  Basis Set: AUG-CC-PVTZ
    Blend: AUG-CC-PVTZ
  Basis Set: (AUG-CC-PVTZ AUX)
    Blend: AUG-CC-PVTZ-JKFIT

    Orbital Energies [Eh]
    ---------------------

    Doubly Occupied:

       1A    -20.499176     2A    -15.591993     3A    -15.583540
       4A    -11.382687     5A     -1.381374     6A     -1.222769
       7A     -1.188279     8A     -0.852522     9A     -0.752203
      10A     -0.704277    11A     -0.672665    12A     -0.597417
      13A     -0.587969    14A     -0.432445    15A     -0.430139
      16A     -0.408507

  @DF-RHF Final Energy:  -224.04788906632450

   => Energetics <=

    Nuclear Repulsion Energy =            123.5150851073388765
    One-Electron Energy =                -550.5500197930025479
    Two-Electron Energy =                 202.9870456193391419
    Total Energy =                       -224.0478890663245011
  Basis Set: (AUG-CC-PVTZ AUX)
    Blend: AUG-CC-PVTZ-RI
    Molecular point group: c1

    Geometry (in Angstrom), charge = 0, multiplicity = 1:

       Center              X                  Y                   Z               Mass
    ------------   -----------------  -----------------  -----------------  -----------------
         O           -0.016656674157     1.285925067906     0.000178681900    15.994914619570
         N            1.211477825843    -0.561768632094    -0.000311518100    14.003074004430
         N           -1.173381674157    -0.686753932094    -0.000066318100    14.003074004430
         C           -0.016657674157     0.057016067906     0.000063681900    12.000000000000
         H            1.166262325843    -1.693346932094     0.000667681900     1.007825032230
         H            2.008683325843    -0.176669932094     0.000469681900     1.007825032230
         H           -2.041996674157    -0.176669932094     0.000412681900     1.007825032230
         H           -1.199576674157    -1.693347932094     0.000105681900     1.007825032230

  Basis Set: AUG-CC-PVTZ
    Blend: AUG-CC-PVTZ
  Basis Set: (AUG-CC-PVTZ AUX)
    Blend: AUG-CC-PVTZ-JKFIT
	 Reference Energy          =    -224.0478890663245011 [Eh]
	 Singles Energy            =      -0.0000000000000000 [Eh]
	 Same-Spin Energy          =      -0.2207512243017004 [Eh]
	 Opposite-Spin Energy      =      -0.6739450242099077 [Eh]
	 Correlation Energy        =      -0.8946962485116080 [Eh]
	 Total Energy              =    -224.9425853148361227 [Eh]

	 ================> DF-SCS-MP2 Energies <==================
	-----------------------------------------------------------
	 SCS Same-Spin Scale       =       0.3333333333333333 [-]
	 SCS Opposite-Spin Scale   =       1.2000000000000000 [-]
	 SCS Same-Spin Energy      =      -0.0735837414339001 [Eh]
	 SCS Opposite-Spin Energy  =      -0.8087340290518892 [Eh]
	 SCS Correlation Energy    =      -0.8823177704857893 [Eh]
	 SCS Total Energy          =    -224.9302068368102994 [Eh]
	-----------------------------------------------------------

  Dipole Moment: [D]
     X:    -0.1907      Y:    -4.4461      Z:     0.0033     Total:     4.4502

*** Psi4 exiting successfully. Buy a developer a beer!
