                               Psi4 1.3.2 release

  ==> Input File <==

--------------------------------------------------------------------------
#psi4
#
memory 32 gb

molecule  {
0 1
  O        0.0000000     1.3710840     0.0001610
  N        1.0726442    -0.7184314    -0.0003983
  N       -1.1567250    -0.6015950    -0.0000840
  C       -0.0000010     0.1421750     0.0000460
  H        1.1829190    -1.6081880     0.0006500
  H        2.0253400    -0.0915110     0.0004520
  H       -2.0253400    -0.0915110     0.0003950
  H       -1.1829200    -1.6081890     0.0000880
units angstrom
no_reorient  #important for SAPT in psi4, default
symmetry c1  #important for SAPT in psi4, default
}

set PROPERTIES_ORIGIN ["COM"]
properties('MP2/aug-cc-pvtz', properties = ['dipole'])
--------------------------------------------------------------------------

    Molecular point group: c1
  Charge       = 0
  Multiplicity = 1
  Basis Set: AUG-CC-PVTZ
    Blend: AUG-CC-PVTZ
  Basis Set: (AUG-CC-PVTZ AUX)
    Blend: AUG-CC-PVTZ-JKFIT

    Orbital Energies [Eh]
    ---------------------

    Doubly Occupied:

       1A    -20.515489     2A    -15.585146     3A    -15.577924
       4A    -11.387613     5A     -1.384076     6A     -1.240925
       7A     -1.171147     8A     -0.852480     9A     -0.759801
      10A     -0.721758    11A     -0.616077    12A     -0.599739
      13A     -0.599152    14A     -0.446205    15A     -0.424822
      16A     -0.417899

  @DF-RHF Final Energy:  -224.04630013904600

   => Energetics <=

    Nuclear Repulsion Energy =            123.6352852086851897
    One-Electron Energy =                -550.7626659883568436
    Two-Electron Energy =                 203.0810806406256290
    Total Energy =                       -224.0463001390459965
  Basis Set: (AUG-CC-PVTZ AUX)
    Blend: AUG-CC-PVTZ-RI
    Molecular point group: c1

    Geometry (in Angstrom), charge = 0, multiplicity = 1:

       Center              X                  Y                   Z               Mass
    ------------   -----------------  -----------------  -----------------  -----------------
         O            0.019612799139     1.342332095806     0.000194800080    15.994914619570
         N            1.092256999139    -0.747183304194    -0.000364499920    14.003074004430
         N           -1.137112200861    -0.630346904194    -0.000050199920    14.003074004430
         C            0.019611799139     0.113423095806     0.000079800080    12.000000000000
         H            1.202531799139    -1.636939904194     0.000683800080     1.007825032230
         H            2.044952799139    -0.120262904194     0.000485800080     1.007825032230
         H           -2.005727200861    -0.120262904194     0.000428800080     1.007825032230
         H           -1.163307200861    -1.636940904194     0.000121800080     1.007825032230

  Basis Set: AUG-CC-PVTZ
    Blend: AUG-CC-PVTZ
  Basis Set: (AUG-CC-PVTZ AUX)
    Blend: AUG-CC-PVTZ-JKFIT
	 Reference Energy          =    -224.0463001390459965 [Eh]
	 Singles Energy            =      -0.0000000000000000 [Eh]
	 Same-Spin Energy          =      -0.2217523834462694 [Eh]
	 Opposite-Spin Energy      =      -0.6756142104120654 [Eh]
	 Correlation Energy        =      -0.8973665938583347 [Eh]
	 Total Energy              =    -224.9436667329043189 [Eh]

	 ================> DF-SCS-MP2 Energies <==================
	-----------------------------------------------------------
	 SCS Same-Spin Scale       =       0.3333333333333333 [-]
	 SCS Opposite-Spin Scale   =       1.2000000000000000 [-]
	 SCS Same-Spin Energy      =      -0.0739174611487564 [Eh]
	 SCS Opposite-Spin Energy  =      -0.8107370524944785 [Eh]
	 SCS Correlation Energy    =      -0.8846545136432349 [Eh]
	 SCS Total Energy          =    -224.9309546526892234 [Eh]
	-----------------------------------------------------------

  Dipole Moment: [D]
     X:     0.1052      Y:    -4.0967      Z:     0.0036     Total:     4.0980

*** Psi4 exiting successfully. Buy a developer a beer!
