                               Psi4 1.4a3.dev225

  ==> Input File <==

--------------------------------------------------------------------------
#psi4
#
memory 32 gb

molecule  {
0 1
  N       -0.0000010    -1.4266340     0.0000030
  C       -1.1283799    -0.7314892    -0.0000049
  H       -2.0619370    -1.3085340     0.0000260
  C       -1.1976280     0.6737390    -0.0000030
  H       -2.1568020     1.1840410     0.0000160
  C        0.0000010     1.3879130    -0.0000020
  H        0.0000010     2.4750860     0.0000140
  C        1.1976290     0.6737370    -0.0000020
  H        2.1568030     1.1840380     0.0000210
  C        1.1454070    -0.7210000    -0.0000090
  H        2.0619350    -1.3085360     0.0000300
units angstrom
no_reorient  #important for SAPT in psi4, default
symmetry c1  #important for SAPT in psi4, default
}

set PROPERTIES_ORIGIN ["COM"]
properties('MP2/aug-cc-pvtz', properties = ['dipole'])
--------------------------------------------------------------------------

    Molecular point group: c1
  Charge       = 0
  Multiplicity = 1
  Basis Set: AUG-CC-PVTZ
    Blend: AUG-CC-PVTZ
  Basis Set: (AUG-CC-PVTZ AUX)
    Blend: AUG-CC-PVTZ-JKFIT

    Orbital Energies [Eh]
    ---------------------

    Doubly Occupied:

       1A    -15.567663     2A    -11.277962     3A    -11.277662
       4A    -11.262417     5A    -11.245439     6A    -11.244448
       7A     -1.259293     8A     -1.089546     9A     -1.031103
      10A     -0.857881    11A     -0.855303    12A     -0.719460
      13A     -0.660851    14A     -0.653072    15A     -0.595452
      16A     -0.576615    17A     -0.541803    18A     -0.519882
      19A     -0.419630    20A     -0.385673    21A     -0.346278

  @DF-RHF Final Energy:  -246.77752300878157

   => Energetics <=

    Nuclear Repulsion Energy =            205.7750716469274721
    One-Electron Energy =                -740.3303210024545251
    Two-Electron Energy =                 287.7777263467454532
    Total Energy =                       -246.7775230087815999
  Basis Set: (AUG-CC-PVTZ AUX)
    Blend: AUG-CC-PVTZ-RI
    Molecular point group: c1

    Geometry (in Angstrom), charge = 0, multiplicity = 1:

       Center              X                  Y                   Z               Mass
    ------------   -----------------  -----------------  -----------------  -----------------
         N           -0.002586140584    -1.397042849465     0.000004277210    14.003074004430
         C           -1.130965040584    -0.701898049465    -0.000003622790    12.000000000000
         H           -2.064522140584    -1.278942849465     0.000027277210     1.007825032230
         C           -1.200213140584     0.703330150535    -0.000001722790    12.000000000000
         H           -2.159387140584     1.213632150535     0.000017277210     1.007825032230
         C           -0.002584140584     1.417504150535    -0.000000722790    12.000000000000
         H           -0.002584140584     2.504677150535     0.000015277210     1.007825032230
         C            1.195043859416     0.703328150535    -0.000000722790    12.000000000000
         H            2.154217859416     1.213629150535     0.000022277210     1.007825032230
         C            1.142821859416    -0.691408849465    -0.000007722790    12.000000000000
         H            2.059349859416    -1.278944849465     0.000031277210     1.007825032230

  Basis Set: AUG-CC-PVTZ
    Blend: AUG-CC-PVTZ
  Basis Set: (AUG-CC-PVTZ AUX)
    Blend: AUG-CC-PVTZ-JKFIT
	 Reference Energy          =    -246.7775230087815714 [Eh]
	 Singles Energy            =      -0.0000000000000000 [Eh]
	 Same-Spin Energy          =      -0.2687827055135708 [Eh]
	 Opposite-Spin Energy      =      -0.8390740416616547 [Eh]
	 Correlation Energy        =      -1.1078567471752254 [Eh]
	 Total Energy              =    -247.8853797559567909 [Eh]

	 ================> DF-SCS-MP2 Energies <==================
	-----------------------------------------------------------
	 SCS Same-Spin Scale       =       0.3333333333333333 [-]
	 SCS Opposite-Spin Scale   =       1.2000000000000000 [-]
	 SCS Same-Spin Energy      =      -0.0895942351711903 [Eh]
	 SCS Opposite-Spin Energy  =      -1.0068888499939856 [Eh]
	 SCS Correlation Energy    =      -1.0964830851651759 [Eh]
	 SCS Total Energy          =    -247.8740060939467469 [Eh]
	-----------------------------------------------------------

  Dipole Moment: [D]
     X:     0.0074      Y:     2.3351      Z:     0.0001     Total:     2.3351

*** Psi4 exiting successfully. Buy a developer a beer!
