                               Psi4 1.3.2 release

  ==> Input File <==

--------------------------------------------------------------------------
#psi4
#
memory 32 gb

molecule  {
0 1
  N       -0.0463986     1.3447459    -0.0000279
  C        1.1454080     0.7211130    -0.0000270
  H        2.0620700     1.3085300     0.0002900
  C        1.1977090    -0.6737460    -0.0000200
  H        2.1568670    -1.1842320     0.0001540
  C       -0.0000070    -1.3877840    -0.0000410
  H       -0.0000130    -2.4750110     0.0001390
  C       -1.1977160    -0.6737350    -0.0000180
  H       -2.1568770    -1.1842140     0.0001640
  C       -1.1454010     0.7211250    -0.0000380
  H       -2.0620580     1.3085500     0.0003070
units angstrom
no_reorient  #important for SAPT in psi4, default
symmetry c1  #important for SAPT in psi4, default
}

set PROPERTIES_ORIGIN ["COM"]
properties('MP2/aug-cc-pvtz', properties = ['dipole'])
--------------------------------------------------------------------------

    Molecular point group: c1
  Charge       = 0
  Multiplicity = 1
  Basis Set: AUG-CC-PVTZ
    Blend: AUG-CC-PVTZ
  Basis Set: (AUG-CC-PVTZ AUX)
    Blend: AUG-CC-PVTZ-JKFIT

    Orbital Energies [Eh]
    ---------------------

    Doubly Occupied:

       1A    -15.555481     2A    -11.277547     3A    -11.266934
       4A    -11.258947     5A    -11.243848     6A    -11.241632
       7A     -1.274219     8A     -1.087435     9A     -1.036322
      10A     -0.864619    11A     -0.851863    12A     -0.723148
      13A     -0.666744    14A     -0.651755    15A     -0.600910
      16A     -0.576362    17A     -0.549601    18A     -0.526112
      19A     -0.402319    20A     -0.387153    21A     -0.346389

  @DF-RHF Final Energy:  -246.77385325868678

   => Energetics <=

    Nuclear Repulsion Energy =            207.5042823114644364
    One-Electron Energy =                -743.7775902845489782
    Two-Electron Energy =                 289.4994547143977570
    Total Energy =                       -246.7738532586868132
  Basis Set: (AUG-CC-PVTZ AUX)
    Blend: AUG-CC-PVTZ-RI
    Molecular point group: c1

    Geometry (in Angstrom), charge = 0, multiplicity = 1:

       Center              X                  Y                   Z               Mass
    ------------   -----------------  -----------------  -----------------  -----------------
         N           -0.038177445700     1.331203084967    -0.000014534504    14.003074004430
         C            1.153629154300     0.707570184967    -0.000013634504    12.000000000000
         H            2.070291154300     1.294987184967     0.000303365496     1.007825032230
         C            1.205930154300    -0.687288815033    -0.000006634504    12.000000000000
         H            2.165088154300    -1.197774815033     0.000167365496     1.007825032230
         C            0.008214154300    -1.401326815033    -0.000027634504    12.000000000000
         H            0.008208154300    -2.488553815033     0.000152365496     1.007825032230
         C           -1.189494845700    -0.687277815033    -0.000004634504    12.000000000000
         H           -2.148655845700    -1.197756815033     0.000177365496     1.007825032230
         C           -1.137179845700     0.707582184967    -0.000024634504    12.000000000000
         H           -2.053836845700     1.295007184967     0.000320365496     1.007825032230

  Basis Set: AUG-CC-PVTZ
    Blend: AUG-CC-PVTZ
  Basis Set: (AUG-CC-PVTZ AUX)
    Blend: AUG-CC-PVTZ-JKFIT
	 Reference Energy          =    -246.7738532586867848 [Eh]
	 Singles Energy            =      -0.0000000000000000 [Eh]
	 Same-Spin Energy          =      -0.2683858587912623 [Eh]
	 Opposite-Spin Energy      =      -0.8373489821890994 [Eh]
	 Correlation Energy        =      -1.1057348409803618 [Eh]
	 Total Energy              =    -247.8795880996671599 [Eh]

	 ================> DF-SCS-MP2 Energies <==================
	-----------------------------------------------------------
	 SCS Same-Spin Scale       =       0.3333333333333333 [-]
	 SCS Opposite-Spin Scale   =       1.2000000000000000 [-]
	 SCS Same-Spin Energy      =      -0.0894619529304208 [Eh]
	 SCS Opposite-Spin Energy  =      -1.0048187786269192 [Eh]
	 SCS Correlation Energy    =      -1.0942807315573400 [Eh]
	 SCS Total Energy          =    -247.8681339902441323 [Eh]
	-----------------------------------------------------------

  Dipole Moment: [D]
     X:     0.0957      Y:    -2.1493      Z:     0.0007     Total:     2.1514

*** Psi4 exiting successfully. Buy a developer a beer!
