                               Psi4 1.3.2 release

  ==> Input File <==

--------------------------------------------------------------------------
#psi4
#
memory 32 gb

molecule  {
0 1
  N        0.0000070     1.4263630    -0.0000270
  C        1.1454080     0.7211130    -0.0000270
  H        2.0620700     1.3085300     0.0002900
  C        1.1977090    -0.6737460    -0.0000200
  H        2.1568670    -1.1842320     0.0001540
  C       -0.0000070    -1.3877840    -0.0000410
  H       -0.0000130    -2.4750110     0.0001390
  C       -1.1977160    -0.6737350    -0.0000180
  H       -2.1568770    -1.1842140     0.0001640
  C       -1.1454010     0.7211250    -0.0000380
  H       -2.0620580     1.3085500     0.0003070
units angstrom
no_reorient  #important for SAPT in psi4, default
symmetry c1  #important for SAPT in psi4, default
}

set PROPERTIES_ORIGIN ["COM"]
properties('MP2/aug-cc-pvtz', properties = ['dipole'])
--------------------------------------------------------------------------

    Molecular point group: c1
  Charge       = 0
  Multiplicity = 1
  Basis Set: AUG-CC-PVTZ
    Blend: AUG-CC-PVTZ
  Basis Set: (AUG-CC-PVTZ AUX)
    Blend: AUG-CC-PVTZ-JKFIT

    Orbital Energies [Eh]
    ---------------------

    Doubly Occupied:

       1A    -15.568871     2A    -11.277626     3A    -11.277610
       4A    -11.262788     5A    -11.244709     6A    -11.244658
       7A     -1.253998     8A     -1.088609     9A     -1.032486
      10A     -0.858378    11A     -0.854568    12A     -0.719822
      13A     -0.659266    14A     -0.653461    15A     -0.597468
      16A     -0.576279    17A     -0.539744    18A     -0.519375
      19A     -0.420418    20A     -0.383510    21A     -0.347828

  @DF-RHF Final Energy:  -246.77734328398367

   => Energetics <=

    Nuclear Repulsion Energy =            205.5834703289607432
    One-Electron Energy =                -739.9586787089749578
    Two-Electron Energy =                 287.5978650960305458
    Total Energy =                       -246.7773432839836687
  Basis Set: (AUG-CC-PVTZ AUX)
    Blend: AUG-CC-PVTZ-RI
    Molecular point group: c1

    Geometry (in Angstrom), charge = 0, multiplicity = 1:

       Center              X                  Y                   Z               Mass
    ------------   -----------------  -----------------  -----------------  -----------------
         N            0.000006962862     1.398360942899    -0.000013793948    14.003074004430
         C            1.145407962862     0.693110942899    -0.000013793948    12.000000000000
         H            2.062069962862     1.280527942899     0.000303206052     1.007825032230
         C            1.197708962862    -0.701748057101    -0.000006793948    12.000000000000
         H            2.156866962862    -1.212234057101     0.000167206052     1.007825032230
         C           -0.000007037138    -1.415786057101    -0.000027793948    12.000000000000
         H           -0.000013037138    -2.503013057101     0.000152206052     1.007825032230
         C           -1.197716037138    -0.701737057101    -0.000004793948    12.000000000000
         H           -2.156877037138    -1.212216057101     0.000177206052     1.007825032230
         C           -1.145401037138     0.693122942899    -0.000024793948    12.000000000000
         H           -2.062058037138     1.280547942899     0.000320206052     1.007825032230

  Basis Set: AUG-CC-PVTZ
    Blend: AUG-CC-PVTZ
  Basis Set: (AUG-CC-PVTZ AUX)
    Blend: AUG-CC-PVTZ-JKFIT
	 Reference Energy          =    -246.7773432839836687 [Eh]
	 Singles Energy            =      -0.0000000000000000 [Eh]
	 Same-Spin Energy          =      -0.2689349269663135 [Eh]
	 Opposite-Spin Energy      =      -0.8394663891851258 [Eh]
	 Correlation Energy        =      -1.1084013161514394 [Eh]
	 Total Energy              =    -247.8857446001350979 [Eh]

	 ================> DF-SCS-MP2 Energies <==================
	-----------------------------------------------------------
	 SCS Same-Spin Scale       =       0.3333333333333333 [-]
	 SCS Opposite-Spin Scale   =       1.2000000000000000 [-]
	 SCS Same-Spin Energy      =      -0.0896449756554378 [Eh]
	 SCS Opposite-Spin Energy  =      -1.0073596670221510 [Eh]
	 SCS Correlation Energy    =      -1.0970046426775888 [Eh]
	 SCS Total Energy          =    -247.8743479266612439 [Eh]
	-----------------------------------------------------------

  Dipole Moment: [D]
     X:    -0.0000      Y:    -2.3433      Z:     0.0007     Total:     2.3433

*** Psi4 exiting successfully. Buy a developer a beer!
