                               Psi4 1.3.2 release

  ==> Input File <==

--------------------------------------------------------------------------
#psi4
#
memory 32 gb

molecule  {
0 1
  N        0.0000070     1.4263630    -0.0000270
  C        1.3157139     0.6162517    -0.0000270
  H        2.0620700     1.3085300     0.0002900
  C        1.1977090    -0.6737460    -0.0000200
  H        2.1568670    -1.1842320     0.0001540
  C       -0.0000070    -1.3877840    -0.0000410
  H       -0.0000130    -2.4750110     0.0001390
  C       -1.1977160    -0.6737350    -0.0000180
  H       -2.1568770    -1.1842140     0.0001640
  C       -1.1454010     0.7211250    -0.0000380
  H       -2.0620580     1.3085500     0.0003070
units angstrom
no_reorient  #important for SAPT in psi4, default
symmetry c1  #important for SAPT in psi4, default
}

set PROPERTIES_ORIGIN ["COM"]
properties('MP2/aug-cc-pvtz', properties = ['dipole'])
--------------------------------------------------------------------------

    Molecular point group: c1
  Charge       = 0
  Multiplicity = 1
  Basis Set: AUG-CC-PVTZ
    Blend: AUG-CC-PVTZ
  Basis Set: (AUG-CC-PVTZ AUX)
    Blend: AUG-CC-PVTZ-JKFIT

    Orbital Energies [Eh]
    ---------------------

    Doubly Occupied:

       1A    -15.575840     2A    -11.276343     3A    -11.272922
       4A    -11.265264     5A    -11.248532     6A    -11.237843
       7A     -1.217550     8A     -1.085137     9A     -1.043559
      10A     -0.874346    11A     -0.836877    12A     -0.725367
      13A     -0.671207    14A     -0.638853    15A     -0.610215
      16A     -0.575209    17A     -0.527177    18A     -0.509714
      19A     -0.409871    20A     -0.380647    21A     -0.352962

  @DF-RHF Final Energy:  -246.73286033638283

   => Energetics <=

    Nuclear Repulsion Energy =            203.9504344779660698
    One-Electron Energy =                -736.6957142399493250
    Two-Electron Energy =                 286.0124194256004557
    Total Energy =                       -246.7328603363828279
  Basis Set: (AUG-CC-PVTZ AUX)
    Blend: AUG-CC-PVTZ-RI
    Molecular point group: c1

    Geometry (in Angstrom), charge = 0, multiplicity = 1:

       Center              X                  Y                   Z               Mass
    ------------   -----------------  -----------------  -----------------  -----------------
         N           -0.025848476657     1.414280737810    -0.000013793948    14.003074004430
         C            1.289858423343     0.604169437810    -0.000013793948    12.000000000000
         H            2.036214523343     1.296447737810     0.000303206052     1.007825032230
         C            1.171853523343    -0.685828262190    -0.000006793948    12.000000000000
         H            2.131011523343    -1.196314262190     0.000167206052     1.007825032230
         C           -0.025862476657    -1.399866262190    -0.000027793948    12.000000000000
         H           -0.025868476657    -2.487093262190     0.000152206052     1.007825032230
         C           -1.223571476657    -0.685817262190    -0.000004793948    12.000000000000
         H           -2.182732476657    -1.196296262190     0.000177206052     1.007825032230
         C           -1.171256476657     0.709042737810    -0.000024793948    12.000000000000
         H           -2.087913476657     1.296467737810     0.000320206052     1.007825032230

  Basis Set: AUG-CC-PVTZ
    Blend: AUG-CC-PVTZ
  Basis Set: (AUG-CC-PVTZ AUX)
    Blend: AUG-CC-PVTZ-JKFIT
	 Reference Energy          =    -246.7328603363828279 [Eh]
	 Singles Energy            =      -0.0000000000000000 [Eh]
	 Same-Spin Energy          =      -0.2696907658007184 [Eh]
	 Opposite-Spin Energy      =      -0.8452337095785987 [Eh]
	 Correlation Energy        =      -1.1149244753793170 [Eh]
	 Total Energy              =    -247.8477848117621534 [Eh]

	 ================> DF-SCS-MP2 Energies <==================
	-----------------------------------------------------------
	 SCS Same-Spin Scale       =       0.3333333333333333 [-]
	 SCS Opposite-Spin Scale   =       1.2000000000000000 [-]
	 SCS Same-Spin Energy      =      -0.0898969219335728 [Eh]
	 SCS Opposite-Spin Energy  =      -1.0142804514943184 [Eh]
	 SCS Correlation Energy    =      -1.1041773734278912 [Eh]
	 SCS Total Energy          =    -247.8370377098107156 [Eh]
	-----------------------------------------------------------

  Dipole Moment: [D]
     X:     0.0202      Y:    -2.3873      Z:     0.0007     Total:     2.3874

*** Psi4 exiting successfully. Buy a developer a beer!
