                               Psi4 1.3.2 release

  ==> Input File <==

--------------------------------------------------------------------------
#psi4
#
memory 32 gb

molecule  {
0 1
  N        0.0519929     1.5045442    -0.0000261
  C        1.1454080     0.7211130    -0.0000270
  H        2.0620700     1.3085300     0.0002900
  C        1.1977090    -0.6737460    -0.0000200
  H        2.1568670    -1.1842320     0.0001540
  C       -0.0000070    -1.3877840    -0.0000410
  H       -0.0000130    -2.4750110     0.0001390
  C       -1.1977160    -0.6737350    -0.0000180
  H       -2.1568770    -1.1842140     0.0001640
  C       -1.1454010     0.7211250    -0.0000380
  H       -2.0620580     1.3085500     0.0003070
units angstrom
no_reorient  #important for SAPT in psi4, default
symmetry c1  #important for SAPT in psi4, default
}

set PROPERTIES_ORIGIN ["COM"]
properties('MP2/aug-cc-pvtz', properties = ['dipole'])
--------------------------------------------------------------------------

    Molecular point group: c1
  Charge       = 0
  Multiplicity = 1
  Basis Set: AUG-CC-PVTZ
    Blend: AUG-CC-PVTZ
  Basis Set: (AUG-CC-PVTZ AUX)
    Blend: AUG-CC-PVTZ-JKFIT

    Orbital Energies [Eh]
    ---------------------

    Doubly Occupied:

       1A    -15.581185     2A    -11.286996     3A    -11.278218
       4A    -11.266321     5A    -11.247487     6A    -11.245737
       7A     -1.237281     8A     -1.091011     9A     -1.028222
      10A     -0.863596    11A     -0.844704    12A     -0.717739
      13A     -0.655083    14A     -0.652361    15A     -0.594865
      16A     -0.575258    17A     -0.532279    18A     -0.510926
      19A     -0.434133    20A     -0.382693    21A     -0.347352

  @DF-RHF Final Energy:  -246.76547470753707

   => Energetics <=

    Nuclear Repulsion Energy =            203.8070622709699649
    One-Electron Energy =                -736.3981784877672681
    Two-Electron Energy =                 285.8256415092602651
    Total Energy =                       -246.7654747075370665
  Basis Set: (AUG-CC-PVTZ AUX)
    Blend: AUG-CC-PVTZ-RI
    Molecular point group: c1

    Geometry (in Angstrom), charge = 0, multiplicity = 1:

       Center              X                  Y                   Z               Mass
    ------------   -----------------  -----------------  -----------------  -----------------
         N            0.042783068441     1.462691603050    -0.000013053391    14.003074004430
         C            1.136198168441     0.679260403050    -0.000013953391    12.000000000000
         H            2.052860168441     1.266677403050     0.000303046609     1.007825032230
         C            1.188499168441    -0.715598596950    -0.000006953391    12.000000000000
         H            2.147657168441    -1.226084596950     0.000167046609     1.007825032230
         C           -0.009216831559    -1.429636596950    -0.000027953391    12.000000000000
         H           -0.009222831559    -2.516863596950     0.000152046609     1.007825032230
         C           -1.206925831559    -0.715587596950    -0.000004953391    12.000000000000
         H           -2.166086831559    -1.226066596950     0.000177046609     1.007825032230
         C           -1.154610831559     0.679272403050    -0.000024953391    12.000000000000
         H           -2.071267831559     1.266697403050     0.000320046609     1.007825032230

  Basis Set: AUG-CC-PVTZ
    Blend: AUG-CC-PVTZ
  Basis Set: (AUG-CC-PVTZ AUX)
    Blend: AUG-CC-PVTZ-JKFIT
	 Reference Energy          =    -246.7654747075370665 [Eh]
	 Singles Energy            =      -0.0000000000000000 [Eh]
	 Same-Spin Energy          =      -0.2696088454908345 [Eh]
	 Opposite-Spin Energy      =      -0.8425113879865223 [Eh]
	 Correlation Energy        =      -1.1121202334773568 [Eh]
	 Total Energy              =    -247.8775949410144221 [Eh]

	 ================> DF-SCS-MP2 Energies <==================
	-----------------------------------------------------------
	 SCS Same-Spin Scale       =       0.3333333333333333 [-]
	 SCS Opposite-Spin Scale   =       1.2000000000000000 [-]
	 SCS Same-Spin Energy      =      -0.0898696151636115 [Eh]
	 SCS Opposite-Spin Energy  =      -1.0110136655838267 [Eh]
	 SCS Correlation Energy    =      -1.1008832807474382 [Eh]
	 SCS Total Energy          =    -247.8663579882845056 [Eh]
	-----------------------------------------------------------

  Dipole Moment: [D]
     X:    -0.0686      Y:    -2.4897      Z:     0.0007     Total:     2.4906

*** Psi4 exiting successfully. Buy a developer a beer!
