                               Psi4 1.4a3.dev225

  ==> Input File <==

--------------------------------------------------------------------------
#psi4
#
memory 32 gb

molecule  {
0 1
  N       -0.0000010    -1.4266340     0.0000030
  C       -1.1879782    -0.6947734    -0.0000053
  H       -2.0619370    -1.3085340     0.0000260
  C       -1.1976280     0.6737390    -0.0000030
  H       -2.1568020     1.1840410     0.0000160
  C        0.0000010     1.3879130    -0.0000020
  H        0.0000010     2.4750860     0.0000140
  C        1.1976290     0.6737370    -0.0000020
  H        2.1568030     1.1840380     0.0000210
  C        1.1454070    -0.7210000    -0.0000090
  H        2.0619350    -1.3085360     0.0000300
units angstrom
no_reorient  #important for SAPT in psi4, default
symmetry c1  #important for SAPT in psi4, default
}

set PROPERTIES_ORIGIN ["COM"]
properties('MP2/aug-cc-pvtz', properties = ['dipole'])
--------------------------------------------------------------------------

    Molecular point group: c1
  Charge       = 0
  Multiplicity = 1
  Basis Set: AUG-CC-PVTZ
    Blend: AUG-CC-PVTZ
  Basis Set: (AUG-CC-PVTZ AUX)
    Blend: AUG-CC-PVTZ-JKFIT

    Orbital Energies [Eh]
    ---------------------

    Doubly Occupied:

       1A    -15.571638     2A    -11.277474     3A    -11.276479
       4A    -11.263675     5A    -11.245388     6A    -11.242737
       7A     -1.242058     8A     -1.086686     9A     -1.035849
      10A     -0.862869    11A     -0.849459    12A     -0.720994
      13A     -0.658486    14A     -0.651623    15A     -0.602243
      16A     -0.575836    17A     -0.535307    18A     -0.517576
      19A     -0.421061    20A     -0.379099    21A     -0.351455

  @DF-RHF Final Energy:  -246.77285364855152

   => Energetics <=

    Nuclear Repulsion Energy =            205.1258842830806088
    One-Electron Energy =                -739.0614911421082525
    Two-Electron Energy =                 287.1627532104761258
    Total Energy =                       -246.7728536485515178
  Basis Set: (AUG-CC-PVTZ AUX)
    Blend: AUG-CC-PVTZ-RI
    Molecular point group: c1

    Geometry (in Angstrom), charge = 0, multiplicity = 1:

       Center              X                  Y                   Z               Mass
    ------------   -----------------  -----------------  -----------------  -----------------
         N            0.006461932566    -1.402616955508     0.000004337937    14.003074004430
         C           -1.181515267434    -0.670756355508    -0.000003962063    12.000000000000
         H           -2.055474067434    -1.284516955508     0.000027337937     1.007825032230
         C           -1.191165067434     0.697756044492    -0.000001662063    12.000000000000
         H           -2.150339067434     1.208058044492     0.000017337937     1.007825032230
         C            0.006463932566     1.411930044492    -0.000000662063    12.000000000000
         H            0.006463932566     2.499103044492     0.000015337937     1.007825032230
         C            1.204091932566     0.697754044492    -0.000000662063    12.000000000000
         H            2.163265932566     1.208055044492     0.000022337937     1.007825032230
         C            1.151869932566    -0.696982955508    -0.000007662063    12.000000000000
         H            2.068397932566    -1.284518955508     0.000031337937     1.007825032230

  Basis Set: AUG-CC-PVTZ
    Blend: AUG-CC-PVTZ
  Basis Set: (AUG-CC-PVTZ AUX)
    Blend: AUG-CC-PVTZ-JKFIT
	 Reference Energy          =    -246.7728536485515178 [Eh]
	 Singles Energy            =      -0.0000000000000000 [Eh]
	 Same-Spin Energy          =      -0.2692322108865284 [Eh]
	 Opposite-Spin Energy      =      -0.8406276809854452 [Eh]
	 Correlation Energy        =      -1.1098598918719735 [Eh]
	 Total Energy              =    -247.8827135404234809 [Eh]

	 ================> DF-SCS-MP2 Energies <==================
	-----------------------------------------------------------
	 SCS Same-Spin Scale       =       0.3333333333333333 [-]
	 SCS Opposite-Spin Scale   =       1.2000000000000000 [-]
	 SCS Same-Spin Energy      =      -0.0897440702955095 [Eh]
	 SCS Opposite-Spin Energy  =      -1.0087532171825342 [Eh]
	 SCS Correlation Energy    =      -1.0984972874780436 [Eh]
	 SCS Total Energy          =    -247.8713509360295575 [Eh]
	-----------------------------------------------------------

  Dipole Moment: [D]
     X:    -0.0115      Y:     2.3613      Z:     0.0001     Total:     2.3614

*** Psi4 exiting successfully. Buy a developer a beer!
