                               Psi4 1.3.2 release

  ==> Input File <==

--------------------------------------------------------------------------
#psi4
#
memory 32 gb

molecule  {
0 1
  N       -0.0674371     1.3027726    -0.0000283
  C        1.1454080     0.7211130    -0.0000270
  H        2.0620700     1.3085300     0.0002900
  C        1.1977090    -0.6737460    -0.0000200
  H        2.1568670    -1.1842320     0.0001540
  C       -0.0000070    -1.3877840    -0.0000410
  H       -0.0000130    -2.4750110     0.0001390
  C       -1.1977160    -0.6737350    -0.0000180
  H       -2.1568770    -1.1842140     0.0001640
  C       -1.1454010     0.7211250    -0.0000380
  H       -2.0620580     1.3085500     0.0003070
units angstrom
no_reorient  #important for SAPT in psi4, default
symmetry c1  #important for SAPT in psi4, default
}

set PROPERTIES_ORIGIN ["COM"]
properties('MP2/aug-cc-pvtz', properties = ['dipole'])
--------------------------------------------------------------------------

    Molecular point group: c1
  Charge       = 0
  Multiplicity = 1
  Basis Set: AUG-CC-PVTZ
    Blend: AUG-CC-PVTZ
  Basis Set: (AUG-CC-PVTZ AUX)
    Blend: AUG-CC-PVTZ-JKFIT

    Orbital Energies [Eh]
    ---------------------

    Doubly Occupied:

       1A    -15.548580     2A    -11.277735     3A    -11.261370
       4A    -11.256910     5A    -11.243555     6A    -11.240030
       7A     -1.285476     8A     -1.087489     9A     -1.037846
      10A     -0.868720    11A     -0.848907    12A     -0.725361
      13A     -0.670627    14A     -0.650818    15A     -0.602913
      16A     -0.575983    17A     -0.555568    18A     -0.528584
      19A     -0.392145    20A     -0.389682    21A     -0.345196

  @DF-RHF Final Energy:  -246.76481242150857

   => Energetics <=

    Nuclear Repulsion Energy =            208.5150487145078841
    One-Electron Energy =                -745.7727358224104819
    Two-Electron Energy =                 290.4928746863940319
    Total Energy =                       -246.7648124215085659
  Basis Set: (AUG-CC-PVTZ AUX)
    Blend: AUG-CC-PVTZ-RI
    Molecular point group: c1

    Geometry (in Angstrom), charge = 0, multiplicity = 1:

       Center              X                  Y                   Z               Mass
    ------------   -----------------  -----------------  -----------------  -----------------
         N           -0.055488776219     1.296665752492    -0.000014863640    14.003074004430
         C            1.157356323781     0.715006152492    -0.000013563640    12.000000000000
         H            2.074018323781     1.302423152492     0.000303436360     1.007825032230
         C            1.209657323781    -0.679852847508    -0.000006563640    12.000000000000
         H            2.168815323781    -1.190338847508     0.000167436360     1.007825032230
         C            0.011941323781    -1.393890847508    -0.000027563640    12.000000000000
         H            0.011935323781    -2.481117847508     0.000152436360     1.007825032230
         C           -1.185767676219    -0.679841847508    -0.000004563640    12.000000000000
         H           -2.144928676219    -1.190320847508     0.000177436360     1.007825032230
         C           -1.133452676219     0.715018152492    -0.000024563640    12.000000000000
         H           -2.050109676219     1.302443152492     0.000320436360     1.007825032230

  Basis Set: AUG-CC-PVTZ
    Blend: AUG-CC-PVTZ
  Basis Set: (AUG-CC-PVTZ AUX)
    Blend: AUG-CC-PVTZ-JKFIT
	 Reference Energy          =    -246.7648124215085659 [Eh]
	 Singles Energy            =      -0.0000000000000000 [Eh]
	 Same-Spin Energy          =      -0.2681800392554955 [Eh]
	 Opposite-Spin Energy      =      -0.8366563216015839 [Eh]
	 Correlation Energy        =      -1.1048363608570795 [Eh]
	 Total Energy              =    -247.8696487823656582 [Eh]

	 ================> DF-SCS-MP2 Energies <==================
	-----------------------------------------------------------
	 SCS Same-Spin Scale       =       0.3333333333333333 [-]
	 SCS Opposite-Spin Scale   =       1.2000000000000000 [-]
	 SCS Same-Spin Energy      =      -0.0893933464184985 [Eh]
	 SCS Opposite-Spin Energy  =      -1.0039875859219005 [Eh]
	 SCS Correlation Energy    =      -1.0933809323403989 [Eh]
	 SCS Total Energy          =    -247.8581933538489750 [Eh]
	-----------------------------------------------------------

  Dipole Moment: [D]
     X:     0.1586      Y:    -2.0336      Z:     0.0006     Total:     2.0398

*** Psi4 exiting successfully. Buy a developer a beer!
