                               Psi4 1.3.2 release

  ==> Input File <==

--------------------------------------------------------------------------
#psi4
#
memory 32 gb

molecule  {
0 1
  N        0.0800003     1.5422266    -0.0000257
  C        1.1454080     0.7211130    -0.0000270
  H        2.0620700     1.3085300     0.0002900
  C        1.1977090    -0.6737460    -0.0000200
  H        2.1568670    -1.1842320     0.0001540
  C       -0.0000070    -1.3877840    -0.0000410
  H       -0.0000130    -2.4750110     0.0001390
  C       -1.1977160    -0.6737350    -0.0000180
  H       -2.1568770    -1.1842140     0.0001640
  C       -1.1454010     0.7211250    -0.0000380
  H       -2.0620580     1.3085500     0.0003070
units angstrom
no_reorient  #important for SAPT in psi4, default
symmetry c1  #important for SAPT in psi4, default
}

set PROPERTIES_ORIGIN ["COM"]
properties('MP2/aug-cc-pvtz', properties = ['dipole'])
--------------------------------------------------------------------------

    Molecular point group: c1
  Charge       = 0
  Multiplicity = 1
  Basis Set: AUG-CC-PVTZ
    Blend: AUG-CC-PVTZ
  Basis Set: (AUG-CC-PVTZ AUX)
    Blend: AUG-CC-PVTZ-JKFIT

    Orbital Energies [Eh]
    ---------------------

    Doubly Occupied:

       1A    -15.586860     2A    -11.291017     3A    -11.278711
       4A    -11.267984     5A    -11.248773     6A    -11.246306
       7A     -1.230273     8A     -1.092517     9A     -1.026132
      10A     -0.866259    11A     -0.839542    12A     -0.717073
      13A     -0.655893    14A     -0.649228    15A     -0.593801
      16A     -0.574533    17A     -0.529292    18A     -0.506812
      19A     -0.438538    20A     -0.383407    21A     -0.346404

  @DF-RHF Final Energy:  -246.75525535136723

   => Energetics <=

    Nuclear Repulsion Energy =            202.9743753213015225
    One-Electron Energy =                -734.7205508608572018
    Two-Electron Energy =                 284.9909201881884542
    Total Energy =                       -246.7552553513672251
  Basis Set: (AUG-CC-PVTZ AUX)
    Blend: AUG-CC-PVTZ-RI
    Molecular point group: c1

    Geometry (in Angstrom), charge = 0, multiplicity = 1:

       Center              X                  Y                   Z               Mass
    ------------   -----------------  -----------------  -----------------  -----------------
         N            0.065828692339     1.493698209088    -0.000012724255    14.003074004430
         C            1.131236392339     0.672584609088    -0.000014024255    12.000000000000
         H            2.047898392339     1.260001609088     0.000302975745     1.007825032230
         C            1.183537392339    -0.722274390912    -0.000007024255    12.000000000000
         H            2.142695392339    -1.232760390912     0.000166975745     1.007825032230
         C           -0.014178607661    -1.436312390912    -0.000028024255    12.000000000000
         H           -0.014184607661    -2.523539390912     0.000151975745     1.007825032230
         C           -1.211887607661    -0.722263390912    -0.000005024255    12.000000000000
         H           -2.171048607661    -1.232742390912     0.000176975745     1.007825032230
         C           -1.159572607661     0.672596609088    -0.000025024255    12.000000000000
         H           -2.076229607661     1.260021609088     0.000319975745     1.007825032230

  Basis Set: AUG-CC-PVTZ
    Blend: AUG-CC-PVTZ
  Basis Set: (AUG-CC-PVTZ AUX)
    Blend: AUG-CC-PVTZ-JKFIT
	 Reference Energy          =    -246.7552553513672251 [Eh]
	 Singles Energy            =      -0.0000000000000000 [Eh]
	 Same-Spin Energy          =      -0.2699853747014976 [Eh]
	 Opposite-Spin Energy      =      -0.8443552512739164 [Eh]
	 Correlation Energy        =      -1.1143406259754141 [Eh]
	 Total Energy              =    -247.8695959773426409 [Eh]

	 ================> DF-SCS-MP2 Energies <==================
	-----------------------------------------------------------
	 SCS Same-Spin Scale       =       0.3333333333333333 [-]
	 SCS Opposite-Spin Scale   =       1.2000000000000000 [-]
	 SCS Same-Spin Energy      =      -0.0899951249004992 [Eh]
	 SCS Opposite-Spin Energy  =      -1.0132263015286997 [Eh]
	 SCS Correlation Energy    =      -1.1032214264291991 [Eh]
	 SCS Total Energy          =    -247.8584767777964259 [Eh]
	-----------------------------------------------------------

  Dipole Moment: [D]
     X:    -0.0969      Y:    -2.5469      Z:     0.0007     Total:     2.5488

*** Psi4 exiting successfully. Buy a developer a beer!
