                               Psi4 1.3.2 release

  ==> Input File <==

--------------------------------------------------------------------------
#psi4
#
memory 32 gb

molecule  {
0 1
  N        0.0000070     1.4263630    -0.0000270
  C        1.0602550     0.7735437    -0.0000270
  H        2.0620700     1.3085300     0.0002900
  C        1.1977090    -0.6737460    -0.0000200
  H        2.1568670    -1.1842320     0.0001540
  C       -0.0000070    -1.3877840    -0.0000410
  H       -0.0000130    -2.4750110     0.0001390
  C       -1.1977160    -0.6737350    -0.0000180
  H       -2.1568770    -1.1842140     0.0001640
  C       -1.1454010     0.7211250    -0.0000380
  H       -2.0620580     1.3085500     0.0003070
units angstrom
no_reorient  #important for SAPT in psi4, default
symmetry c1  #important for SAPT in psi4, default
}

set PROPERTIES_ORIGIN ["COM"]
properties('MP2/aug-cc-pvtz', properties = ['dipole'])
--------------------------------------------------------------------------

    Molecular point group: c1
  Charge       = 0
  Multiplicity = 1
  Basis Set: AUG-CC-PVTZ
    Blend: AUG-CC-PVTZ
  Basis Set: (AUG-CC-PVTZ AUX)
    Blend: AUG-CC-PVTZ-JKFIT

    Orbital Energies [Eh]
    ---------------------

    Doubly Occupied:

       1A    -15.561766     2A    -11.278563     3A    -11.278033
       4A    -11.260653     5A    -11.248386     6A    -11.244092
       7A     -1.284931     8A     -1.093785     9A     -1.025459
      10A     -0.866466    11A     -0.847185    12A     -0.718648
      13A     -0.667860    14A     -0.651125    15A     -0.587571
      16A     -0.578580    17A     -0.552610    18A     -0.521604
      19A     -0.412187    20A     -0.396025    21A     -0.340006

  @DF-RHF Final Energy:  -246.76718448805687

   => Energetics <=

    Nuclear Repulsion Energy =            206.6324205409935075
    One-Electron Energy =                -741.9681413201798250
    Two-Electron Energy =                 288.5685362911294760
    Total Energy =                       -246.7671844880568415
  Basis Set: (AUG-CC-PVTZ AUX)
    Blend: AUG-CC-PVTZ-RI
    Molecular point group: c1

    Geometry (in Angstrom), charge = 0, multiplicity = 1:

       Center              X                  Y                   Z               Mass
    ------------   -----------------  -----------------  -----------------  -----------------
         N            0.012934690213     1.390401037853    -0.000013793948    14.003074004430
         C            1.073182690213     0.737581737853    -0.000013793948    12.000000000000
         H            2.074997690213     1.272568037853     0.000303206052     1.007825032230
         C            1.210636690213    -0.709707962147    -0.000006793948    12.000000000000
         H            2.169794690213    -1.220193962147     0.000167206052     1.007825032230
         C            0.012920690213    -1.423745962147    -0.000027793948    12.000000000000
         H            0.012914690213    -2.510972962147     0.000152206052     1.007825032230
         C           -1.184788309787    -0.709696962147    -0.000004793948    12.000000000000
         H           -2.143949309787    -1.220175962147     0.000177206052     1.007825032230
         C           -1.132473309787     0.685163037853    -0.000024793948    12.000000000000
         H           -2.049130309787     1.272588037853     0.000320206052     1.007825032230

  Basis Set: AUG-CC-PVTZ
    Blend: AUG-CC-PVTZ
  Basis Set: (AUG-CC-PVTZ AUX)
    Blend: AUG-CC-PVTZ-JKFIT
	 Reference Energy          =    -246.7671844880568699 [Eh]
	 Singles Energy            =      -0.0000000000000000 [Eh]
	 Same-Spin Energy          =      -0.2679485706162616 [Eh]
	 Opposite-Spin Energy      =      -0.8378363618847902 [Eh]
	 Correlation Energy        =      -1.1057849325010518 [Eh]
	 Total Energy              =    -247.8729694205579221 [Eh]

	 ================> DF-SCS-MP2 Energies <==================
	-----------------------------------------------------------
	 SCS Same-Spin Scale       =       0.3333333333333333 [-]
	 SCS Opposite-Spin Scale   =       1.2000000000000000 [-]
	 SCS Same-Spin Energy      =      -0.0893161902054205 [Eh]
	 SCS Opposite-Spin Energy  =      -1.0054036342617481 [Eh]
	 SCS Correlation Energy    =      -1.0947198244671685 [Eh]
	 SCS Total Energy          =    -247.8619043125240466 [Eh]
	-----------------------------------------------------------

  Dipole Moment: [D]
     X:    -0.0624      Y:    -2.2834      Z:     0.0006     Total:     2.2843

*** Psi4 exiting successfully. Buy a developer a beer!
