                               Psi4 1.3.2 release

  ==> Input File <==

--------------------------------------------------------------------------
#psi4
#
memory 32 gb

molecule  {
0 1
  N        0.0000070     1.4263630    -0.0000270
  C        0.9751021     0.8259743    -0.0000270
  H        2.0620700     1.3085300     0.0002900
  C        1.1977090    -0.6737460    -0.0000200
  H        2.1568670    -1.1842320     0.0001540
  C       -0.0000070    -1.3877840    -0.0000410
  H       -0.0000130    -2.4750110     0.0001390
  C       -1.1977160    -0.6737350    -0.0000180
  H       -2.1568770    -1.1842140     0.0001640
  C       -1.1454010     0.7211250    -0.0000380
  H       -2.0620580     1.3085500     0.0003070
units angstrom
no_reorient  #important for SAPT in psi4, default
symmetry c1  #important for SAPT in psi4, default
}

set PROPERTIES_ORIGIN ["COM"]
properties('MP2/aug-cc-pvtz', properties = ['dipole'])
--------------------------------------------------------------------------

    Molecular point group: c1
  Charge       = 0
  Multiplicity = 1
  Basis Set: AUG-CC-PVTZ
    Blend: AUG-CC-PVTZ
  Basis Set: (AUG-CC-PVTZ AUX)
    Blend: AUG-CC-PVTZ-JKFIT

    Orbital Energies [Eh]
    ---------------------

    Doubly Occupied:

       1A    -15.553207     2A    -11.279300     3A    -11.277293
       4A    -11.258145     5A    -11.251477     6A    -11.245179
       7A     -1.326276     8A     -1.099893     9A     -1.019056
      10A     -0.877797    11A     -0.834995    12A     -0.720316
      13A     -0.673858    14A     -0.649863    15A     -0.584261
      16A     -0.579202    17A     -0.573536    18A     -0.523504
      19A     -0.410705    20A     -0.394115    21A     -0.333466

  @DF-RHF Final Energy:  -246.72118237974826

   => Energetics <=

    Nuclear Repulsion Energy =            207.9196222318562093
    One-Electron Energy =                -744.3507192172722853
    Two-Electron Energy =                 289.7099146056677910
    Total Energy =                       -246.7211823797482566
  Basis Set: (AUG-CC-PVTZ AUX)
    Blend: AUG-CC-PVTZ-RI
    Molecular point group: c1

    Geometry (in Angstrom), charge = 0, multiplicity = 1:

       Center              X                  Y                   Z               Mass
    ------------   -----------------  -----------------  -----------------  -----------------
         N            0.025862402382     1.382441147989    -0.000013793948    14.003074004430
         C            1.000957502382     0.782052447989    -0.000013793948    12.000000000000
         H            2.087925402382     1.264608147989     0.000303206052     1.007825032230
         C            1.223564402382    -0.717667852011    -0.000006793948    12.000000000000
         H            2.182722402382    -1.228153852011     0.000167206052     1.007825032230
         C            0.025848402382    -1.431705852011    -0.000027793948    12.000000000000
         H            0.025842402382    -2.518932852011     0.000152206052     1.007825032230
         C           -1.171860597618    -0.717656852011    -0.000004793948    12.000000000000
         H           -2.131021597618    -1.228135852011     0.000177206052     1.007825032230
         C           -1.119545597618     0.677203147989    -0.000024793948    12.000000000000
         H           -2.036202597618     1.264628147989     0.000320206052     1.007825032230

  Basis Set: AUG-CC-PVTZ
    Blend: AUG-CC-PVTZ
  Basis Set: (AUG-CC-PVTZ AUX)
    Blend: AUG-CC-PVTZ-JKFIT
	 Reference Energy          =    -246.7211823797482566 [Eh]
	 Singles Energy            =      -0.0000000000000000 [Eh]
	 Same-Spin Energy          =      -0.2666155871133295 [Eh]
	 Opposite-Spin Energy      =      -0.8371755845505875 [Eh]
	 Correlation Energy        =      -1.1037911716639170 [Eh]
	 Total Energy              =    -247.8249735514121710 [Eh]

	 ================> DF-SCS-MP2 Energies <==================
	-----------------------------------------------------------
	 SCS Same-Spin Scale       =       0.3333333333333333 [-]
	 SCS Opposite-Spin Scale   =       1.2000000000000000 [-]
	 SCS Same-Spin Energy      =      -0.0888718623711098 [Eh]
	 SCS Opposite-Spin Energy  =      -1.0046107014607049 [Eh]
	 SCS Correlation Energy    =      -1.0934825638318146 [Eh]
	 SCS Total Energy          =    -247.8146649435800839 [Eh]
	-----------------------------------------------------------

  Dipole Moment: [D]
     X:    -0.2201      Y:    -2.1822      Z:     0.0006     Total:     2.1933

*** Psi4 exiting successfully. Buy a developer a beer!
