                               Psi4 1.3.2 release

  ==> Input File <==

--------------------------------------------------------------------------
#psi4
#
memory 32 gb

molecule  {
0 1
  N       -0.0121269     1.4062656    -0.0000272
  C        1.1454080     0.7211130    -0.0000270
  H        2.0620700     1.3085300     0.0002900
  C        1.1977090    -0.6737460    -0.0000200
  H        2.1568670    -1.1842320     0.0001540
  C       -0.0000070    -1.3877840    -0.0000410
  H       -0.0000130    -2.4750110     0.0001390
  C       -1.1977160    -0.6737350    -0.0000180
  H       -2.1568770    -1.1842140     0.0001640
  C       -1.1454010     0.7211250    -0.0000380
  H       -2.0620580     1.3085500     0.0003070
units angstrom
no_reorient  #important for SAPT in psi4, default
symmetry c1  #important for SAPT in psi4, default
}

set PROPERTIES_ORIGIN ["COM"]
properties('MP2/aug-cc-pvtz', properties = ['dipole'])
--------------------------------------------------------------------------

    Molecular point group: c1
  Charge       = 0
  Multiplicity = 1
  Basis Set: AUG-CC-PVTZ
    Blend: AUG-CC-PVTZ
  Basis Set: (AUG-CC-PVTZ AUX)
    Blend: AUG-CC-PVTZ-JKFIT

    Orbital Energies [Eh]
    ---------------------

    Doubly Occupied:

       1A    -15.565606     2A    -11.277548     3A    -11.275041
       4A    -11.261857     5A    -11.244450     6A    -11.243941
       7A     -1.258738     8A     -1.088178     9A     -1.033515
      10A     -0.858377    11A     -0.855586    12A     -0.720526
      13A     -0.661092    14A     -0.653050    15A     -0.598246
      16A     -0.576401    17A     -0.541965    18A     -0.521272
      19A     -0.416230    20A     -0.384189    21A     -0.347626

  @DF-RHF Final Energy:  -246.77810363605442

   => Energetics <=

    Nuclear Repulsion Energy =            206.0504622010356854
    One-Electron Energy =                -740.8902605387172571
    Two-Electron Energy =                 288.0616947016271752
    Total Energy =                       -246.7781036360544249
  Basis Set: (AUG-CC-PVTZ AUX)
    Blend: AUG-CC-PVTZ-RI
    Molecular point group: c1

    Geometry (in Angstrom), charge = 0, multiplicity = 1:

       Center              X                  Y                   Z               Mass
    ------------   -----------------  -----------------  -----------------  -----------------
         N           -0.009977301861     1.381823987604    -0.000013958516    14.003074004430
         C            1.147557598139     0.696671387604    -0.000013758516    12.000000000000
         H            2.064219598139     1.284088387604     0.000303241484     1.007825032230
         C            1.199858598139    -0.698187612396    -0.000006758516    12.000000000000
         H            2.159016598139    -1.208673612396     0.000167241484     1.007825032230
         C            0.002142598139    -1.412225612396    -0.000027758516    12.000000000000
         H            0.002136598139    -2.499452612396     0.000152241484     1.007825032230
         C           -1.195566401861    -0.698176612396    -0.000004758516    12.000000000000
         H           -2.154727401861    -1.208655612396     0.000177241484     1.007825032230
         C           -1.143251401861     0.696683387604    -0.000024758516    12.000000000000
         H           -2.059908401861     1.284108387604     0.000320241484     1.007825032230

  Basis Set: AUG-CC-PVTZ
    Blend: AUG-CC-PVTZ
  Basis Set: (AUG-CC-PVTZ AUX)
    Blend: AUG-CC-PVTZ-JKFIT
	 Reference Energy          =    -246.7781036360544249 [Eh]
	 Singles Energy            =      -0.0000000000000000 [Eh]
	 Same-Spin Energy          =      -0.2687839437135799 [Eh]
	 Opposite-Spin Energy      =      -0.8388473533389007 [Eh]
	 Correlation Energy        =      -1.1076312970524806 [Eh]
	 Total Energy              =    -247.8857349331069031 [Eh]

	 ================> DF-SCS-MP2 Energies <==================
	-----------------------------------------------------------
	 SCS Same-Spin Scale       =       0.3333333333333333 [-]
	 SCS Opposite-Spin Scale   =       1.2000000000000000 [-]
	 SCS Same-Spin Energy      =      -0.0895946479045266 [Eh]
	 SCS Opposite-Spin Energy  =      -1.0066168240066808 [Eh]
	 SCS Correlation Energy    =      -1.0962114719112075 [Eh]
	 SCS Total Energy          =    -247.8743151079656286 [Eh]
	-----------------------------------------------------------

  Dipole Moment: [D]
     X:     0.0208      Y:    -2.2994      Z:     0.0007     Total:     2.2995

*** Psi4 exiting successfully. Buy a developer a beer!
