                               Psi4 1.3.2 release

  ==> Input File <==

--------------------------------------------------------------------------
#psi4
#
memory 32 gb

molecule  {
0 1
  N        0.0253176     1.4659073    -0.0000266
  C        1.1454080     0.7211130    -0.0000270
  H        2.0620700     1.3085300     0.0002900
  C        1.1977090    -0.6737460    -0.0000200
  H        2.1568670    -1.1842320     0.0001540
  C       -0.0000070    -1.3877840    -0.0000410
  H       -0.0000130    -2.4750110     0.0001390
  C       -1.1977160    -0.6737350    -0.0000180
  H       -2.1568770    -1.1842140     0.0001640
  C       -1.1454010     0.7211250    -0.0000380
  H       -2.0620580     1.3085500     0.0003070
units angstrom
no_reorient  #important for SAPT in psi4, default
symmetry c1  #important for SAPT in psi4, default
}

set PROPERTIES_ORIGIN ["COM"]
properties('MP2/aug-cc-pvtz', properties = ['dipole'])
--------------------------------------------------------------------------

    Molecular point group: c1
  Charge       = 0
  Multiplicity = 1
  Basis Set: AUG-CC-PVTZ
    Blend: AUG-CC-PVTZ
  Basis Set: (AUG-CC-PVTZ AUX)
    Blend: AUG-CC-PVTZ-JKFIT

    Orbital Energies [Eh]
    ---------------------

    Doubly Occupied:

       1A    -15.575186     2A    -11.282511     3A    -11.277855
       4A    -11.264592     5A    -11.246121     6A    -11.245191
       7A     -1.245187     8A     -1.089690     9A     -1.030363
      10A     -0.860885    11A     -0.849830    12A     -0.718643
      13A     -0.655737    14A     -0.654260    15A     -0.596073
      16A     -0.575860    17A     -0.535743    18A     -0.515256
      19A     -0.427959    20A     -0.382711    21A     -0.347849

  @DF-RHF Final Energy:  -246.77302427407349

   => Energetics <=

    Nuclear Repulsion Energy =            204.6768099370638652
    One-Electron Energy =                -738.1446673996251775
    Two-Electron Energy =                 286.6948331884878485
    Total Energy =                       -246.7730242740735207
  Basis Set: (AUG-CC-PVTZ AUX)
    Blend: AUG-CC-PVTZ-RI
    Molecular point group: c1

    Geometry (in Angstrom), charge = 0, multiplicity = 1:

       Center              X                  Y                   Z               Mass
    ------------   -----------------  -----------------  -----------------  -----------------
         N            0.020833550415     1.430899595723    -0.000013464812    14.003074004430
         C            1.140923950415     0.686105295723    -0.000013864812    12.000000000000
         H            2.057585950415     1.273522295723     0.000303135188     1.007825032230
         C            1.193224950415    -0.708753704277    -0.000006864812    12.000000000000
         H            2.152382950415    -1.219239704277     0.000167135188     1.007825032230
         C           -0.004491049585    -1.422791704277    -0.000027864812    12.000000000000
         H           -0.004497049585    -2.510018704277     0.000152135188     1.007825032230
         C           -1.202200049585    -0.708742704277    -0.000004864812    12.000000000000
         H           -2.161361049585    -1.219221704277     0.000177135188     1.007825032230
         C           -1.149885049585     0.686117295723    -0.000024864812    12.000000000000
         H           -2.066542049585     1.273542295723     0.000320135188     1.007825032230

  Basis Set: AUG-CC-PVTZ
    Blend: AUG-CC-PVTZ
  Basis Set: (AUG-CC-PVTZ AUX)
    Blend: AUG-CC-PVTZ-JKFIT
	 Reference Energy          =    -246.7730242740734923 [Eh]
	 Singles Energy            =      -0.0000000000000000 [Eh]
	 Same-Spin Energy          =      -0.2692587027595109 [Eh]
	 Opposite-Spin Energy      =      -0.8408776514765058 [Eh]
	 Correlation Energy        =      -1.1101363542360168 [Eh]
	 Total Energy              =    -247.8831606283094970 [Eh]

	 ================> DF-SCS-MP2 Energies <==================
	-----------------------------------------------------------
	 SCS Same-Spin Scale       =       0.3333333333333333 [-]
	 SCS Opposite-Spin Scale   =       1.2000000000000000 [-]
	 SCS Same-Spin Energy      =      -0.0897529009198370 [Eh]
	 SCS Opposite-Spin Energy  =      -1.0090531817718069 [Eh]
	 SCS Correlation Energy    =      -1.0988060826916439 [Eh]
	 SCS Total Energy          =    -247.8718303567651446 [Eh]
	-----------------------------------------------------------

  Dipole Moment: [D]
     X:    -0.0368      Y:    -2.4221      Z:     0.0007     Total:     2.4224

*** Psi4 exiting successfully. Buy a developer a beer!
