                               Psi4 1.4a3.dev225

  ==> Input File <==

--------------------------------------------------------------------------
#psi4
#
memory 32 gb

molecule  {
0 1
  N       -0.0000010    -1.4266340     0.0000030
  C       -1.1624361    -0.7105088    -0.0000051
  H       -2.0619370    -1.3085340     0.0000260
  C       -1.1976280     0.6737390    -0.0000030
  H       -2.1568020     1.1840410     0.0000160
  C        0.0000010     1.3879130    -0.0000020
  H        0.0000010     2.4750860     0.0000140
  C        1.1976290     0.6737370    -0.0000020
  H        2.1568030     1.1840380     0.0000210
  C        1.1454070    -0.7210000    -0.0000090
  H        2.0619350    -1.3085360     0.0000300
units angstrom
no_reorient  #important for SAPT in psi4, default
symmetry c1  #important for SAPT in psi4, default
}

set PROPERTIES_ORIGIN ["COM"]
properties('MP2/aug-cc-pvtz', properties = ['dipole'])
--------------------------------------------------------------------------

    Molecular point group: c1
  Charge       = 0
  Multiplicity = 1
  Basis Set: AUG-CC-PVTZ
    Blend: AUG-CC-PVTZ
  Basis Set: (AUG-CC-PVTZ AUX)
    Blend: AUG-CC-PVTZ-JKFIT

    Orbital Energies [Eh]
    ---------------------

    Doubly Occupied:

       1A    -15.570079     2A    -11.277558     3A    -11.277193
       4A    -11.263171     5A    -11.244930     6A    -11.243894
       7A     -1.248907     8A     -1.087785     9A     -1.033867
      10A     -0.860171    11A     -0.852542    12A     -0.720270
      13A     -0.658201    14A     -0.653370    15A     -0.599447
      16A     -0.576088    17A     -0.537820    18A     -0.518684
      19A     -0.420996    20A     -0.381525    21A     -0.349375

  @DF-RHF Final Energy:  -246.77619257330139

   => Energetics <=

    Nuclear Repulsion Energy =            205.3943173582844395
    One-Electron Energy =                -739.5892732567167513
    Two-Electron Energy =                 287.4187633251309535
    Total Energy =                       -246.7761925733013868
  Basis Set: (AUG-CC-PVTZ AUX)
    Blend: AUG-CC-PVTZ-RI
    Molecular point group: c1

    Geometry (in Angstrom), charge = 0, multiplicity = 1:

       Center              X                  Y                   Z               Mass
    ------------   -----------------  -----------------  -----------------  -----------------
         N            0.002584191268    -1.400228044243     0.000004307574    14.003074004430
         C           -1.159850908732    -0.684102844243    -0.000003792426    12.000000000000
         H           -2.059351808732    -1.282128044243     0.000027307574     1.007825032230
         C           -1.195042808732     0.700144955757    -0.000001692426    12.000000000000
         H           -2.154216808732     1.210446955757     0.000017307574     1.007825032230
         C            0.002586191268     1.414318955757    -0.000000692426    12.000000000000
         H            0.002586191268     2.501491955757     0.000015307574     1.007825032230
         C            1.200214191268     0.700142955757    -0.000000692426    12.000000000000
         H            2.159388191268     1.210443955757     0.000022307574     1.007825032230
         C            1.147992191268    -0.694594044243    -0.000007692426    12.000000000000
         H            2.064520191268    -1.282130044243     0.000031307574     1.007825032230

  Basis Set: AUG-CC-PVTZ
    Blend: AUG-CC-PVTZ
  Basis Set: (AUG-CC-PVTZ AUX)
    Blend: AUG-CC-PVTZ-JKFIT
	 Reference Energy          =    -246.7761925733013868 [Eh]
	 Singles Energy            =      -0.0000000000000000 [Eh]
	 Same-Spin Energy          =      -0.2690706564651866 [Eh]
	 Opposite-Spin Energy      =      -0.8399105167387957 [Eh]
	 Correlation Energy        =      -1.1089811732039823 [Eh]
	 Total Energy              =    -247.8851737465053588 [Eh]

	 ================> DF-SCS-MP2 Energies <==================
	-----------------------------------------------------------
	 SCS Same-Spin Scale       =       0.3333333333333333 [-]
	 SCS Opposite-Spin Scale   =       1.2000000000000000 [-]
	 SCS Same-Spin Energy      =      -0.0896902188217289 [Eh]
	 SCS Opposite-Spin Energy  =      -1.0078926200865548 [Eh]
	 SCS Correlation Energy    =      -1.0975828389082836 [Eh]
	 SCS Total Energy          =    -247.8737754122096817 [Eh]
	-----------------------------------------------------------

  Dipole Moment: [D]
     X:    -0.0056      Y:     2.3518      Z:     0.0001     Total:     2.3518

*** Psi4 exiting successfully. Buy a developer a beer!
