                               Psi4 1.4a3.dev225

  ==> Input File <==

--------------------------------------------------------------------------
#psi4
#
memory 32 gb

molecule  {
0 1
  N       -0.0000010    -1.4266340     0.0000030
  C       -1.1028378    -0.7472246    -0.0000047
  H       -2.0619370    -1.3085340     0.0000260
  C       -1.1976280     0.6737390    -0.0000030
  H       -2.1568020     1.1840410     0.0000160
  C        0.0000010     1.3879130    -0.0000020
  H        0.0000010     2.4750860     0.0000140
  C        1.1976290     0.6737370    -0.0000020
  H        2.1568030     1.1840380     0.0000210
  C        1.1454070    -0.7210000    -0.0000090
  H        2.0619350    -1.3085360     0.0000300
units angstrom
no_reorient  #important for SAPT in psi4, default
symmetry c1  #important for SAPT in psi4, default
}

set PROPERTIES_ORIGIN ["COM"]
properties('MP2/aug-cc-pvtz', properties = ['dipole'])
--------------------------------------------------------------------------

    Molecular point group: c1
  Charge       = 0
  Multiplicity = 1
  Basis Set: AUG-CC-PVTZ
    Blend: AUG-CC-PVTZ
  Basis Set: (AUG-CC-PVTZ AUX)
    Blend: AUG-CC-PVTZ-JKFIT

    Orbital Energies [Eh]
    ---------------------

    Doubly Occupied:

       1A    -15.565616     2A    -11.278350     3A    -11.277759
       4A    -11.261796     5A    -11.246574     6A    -11.244205
       7A     -1.268097     8A     -1.091048     9A     -1.028983
      10A     -0.860743    11A     -0.852714    12A     -0.719007
      13A     -0.663546    14A     -0.652284    15A     -0.592412
      16A     -0.577199    17A     -0.545349    18A     -0.520601
      19A     -0.417609    20A     -0.389294    21A     -0.343888

  @DF-RHF Final Energy:  -246.77587379654227

   => Energetics <=

    Nuclear Repulsion Energy =            206.0798425059944350
    One-Electron Energy =                -740.9172856095149200
    Two-Electron Energy =                 288.0615693069782424
    Total Energy =                       -246.7758737965422711
  Basis Set: (AUG-CC-PVTZ AUX)
    Blend: AUG-CC-PVTZ-RI
    Molecular point group: c1

    Geometry (in Angstrom), charge = 0, multiplicity = 1:

       Center              X                  Y                   Z               Mass
    ------------   -----------------  -----------------  -----------------  -----------------
         N           -0.006463881882    -1.394653938200     0.000004246847    14.003074004430
         C           -1.109300681882    -0.715244538200    -0.000003453153    12.000000000000
         H           -2.068399881882    -1.276553938200     0.000027246847     1.007825032230
         C           -1.204090881882     0.705719061800    -0.000001753153    12.000000000000
         H           -2.163264881882     1.216021061800     0.000017246847     1.007825032230
         C           -0.006461881882     1.419893061800    -0.000000753153    12.000000000000
         H           -0.006461881882     2.507066061800     0.000015246847     1.007825032230
         C            1.191166118118     0.705717061800    -0.000000753153    12.000000000000
         H            2.150340118118     1.216018061800     0.000022246847     1.007825032230
         C            1.138944118118    -0.689019938200    -0.000007753153    12.000000000000
         H            2.055472118118    -1.276555938200     0.000031246847     1.007825032230

  Basis Set: AUG-CC-PVTZ
    Blend: AUG-CC-PVTZ
  Basis Set: (AUG-CC-PVTZ AUX)
    Blend: AUG-CC-PVTZ-JKFIT
	 Reference Energy          =    -246.7758737965422711 [Eh]
	 Singles Energy            =      -0.0000000000000000 [Eh]
	 Same-Spin Energy          =      -0.2685084263480826 [Eh]
	 Opposite-Spin Energy      =      -0.8385407148383823 [Eh]
	 Correlation Energy        =      -1.1070491411864649 [Eh]
	 Total Energy              =    -247.8829229377287220 [Eh]

	 ================> DF-SCS-MP2 Energies <==================
	-----------------------------------------------------------
	 SCS Same-Spin Scale       =       0.3333333333333333 [-]
	 SCS Opposite-Spin Scale   =       1.2000000000000000 [-]
	 SCS Same-Spin Energy      =      -0.0895028087826942 [Eh]
	 SCS Opposite-Spin Energy  =      -1.0062488578060587 [Eh]
	 SCS Correlation Energy    =      -1.0957516665887528 [Eh]
	 SCS Total Energy          =    -247.8716254631310107 [Eh]
	-----------------------------------------------------------

  Dipole Moment: [D]
     X:     0.0226      Y:     2.3190      Z:     0.0001     Total:     2.3191

*** Psi4 exiting successfully. Buy a developer a beer!
