                               Psi4 1.3.2 release

  ==> Input File <==

--------------------------------------------------------------------------
#psi4
#
memory 32 gb

molecule  {
0 1
  N        0.0000070     1.4263630    -0.0000270
  C        1.2305610     0.6686823    -0.0000270
  H        2.0620700     1.3085300     0.0002900
  C        1.1977090    -0.6737460    -0.0000200
  H        2.1568670    -1.1842320     0.0001540
  C       -0.0000070    -1.3877840    -0.0000410
  H       -0.0000130    -2.4750110     0.0001390
  C       -1.1977160    -0.6737350    -0.0000180
  H       -2.1568770    -1.1842140     0.0001640
  C       -1.1454010     0.7211250    -0.0000380
  H       -2.0620580     1.3085500     0.0003070
units angstrom
no_reorient  #important for SAPT in psi4, default
symmetry c1  #important for SAPT in psi4, default
}

set PROPERTIES_ORIGIN ["COM"]
properties('MP2/aug-cc-pvtz', properties = ['dipole'])
--------------------------------------------------------------------------

    Molecular point group: c1
  Charge       = 0
  Multiplicity = 1
  Basis Set: AUG-CC-PVTZ
    Blend: AUG-CC-PVTZ
  Basis Set: (AUG-CC-PVTZ AUX)
    Blend: AUG-CC-PVTZ-JKFIT

    Orbital Energies [Eh]
    ---------------------

    Doubly Occupied:

       1A    -15.573685     2A    -11.277273     3A    -11.275175
       4A    -11.264369     5A    -11.246314     6A    -11.240898
       7A     -1.232314     8A     -1.085364     9A     -1.038868
      10A     -0.867060    11A     -0.844655    12A     -0.722337
      13A     -0.661541    14A     -0.647046    15A     -0.606190
      16A     -0.575546    17A     -0.531884    18A     -0.515393
      19A     -0.419348    20A     -0.376919    21A     -0.353842

  @DF-RHF Final Energy:  -246.76347409507792

   => Energetics <=

    Nuclear Repulsion Energy =            204.7081345367283518
    One-Electron Energy =                -738.2311712894820630
    Two-Electron Energy =                 286.7595626576757581
    Total Energy =                       -246.7634740950779246
  Basis Set: (AUG-CC-PVTZ AUX)
    Blend: AUG-CC-PVTZ-RI
    Molecular point group: c1

    Geometry (in Angstrom), charge = 0, multiplicity = 1:

       Center              X                  Y                   Z               Mass
    ------------   -----------------  -----------------  -----------------  -----------------
         N           -0.012920764488     1.406320847945    -0.000013793948    14.003074004430
         C            1.217633235512     0.648640147945    -0.000013793948    12.000000000000
         H            2.049142235512     1.288487847945     0.000303206052     1.007825032230
         C            1.184781235512    -0.693788152055    -0.000006793948    12.000000000000
         H            2.143939235512    -1.204274152055     0.000167206052     1.007825032230
         C           -0.012934764488    -1.407826152055    -0.000027793948    12.000000000000
         H           -0.012940764488    -2.495053152055     0.000152206052     1.007825032230
         C           -1.210643764488    -0.693777152055    -0.000004793948    12.000000000000
         H           -2.169804764488    -1.204256152055     0.000177206052     1.007825032230
         C           -1.158328764488     0.701082847945    -0.000024793948    12.000000000000
         H           -2.074985764488     1.288507847945     0.000320206052     1.007825032230

  Basis Set: AUG-CC-PVTZ
    Blend: AUG-CC-PVTZ
  Basis Set: (AUG-CC-PVTZ AUX)
    Blend: AUG-CC-PVTZ-JKFIT
	 Reference Energy          =    -246.7634740950779246 [Eh]
	 Singles Energy            =      -0.0000000000000000 [Eh]
	 Same-Spin Energy          =      -0.2694166398384473 [Eh]
	 Opposite-Spin Energy      =      -0.8419721810210699 [Eh]
	 Correlation Energy        =      -1.1113888208595171 [Eh]
	 Total Energy              =    -247.8748629159374559 [Eh]

	 ================> DF-SCS-MP2 Energies <==================
	-----------------------------------------------------------
	 SCS Same-Spin Scale       =       0.3333333333333333 [-]
	 SCS Opposite-Spin Scale   =       1.2000000000000000 [-]
	 SCS Same-Spin Energy      =      -0.0898055466128158 [Eh]
	 SCS Opposite-Spin Energy  =      -1.0103666172252839 [Eh]
	 SCS Correlation Energy    =      -1.1001721638380997 [Eh]
	 SCS Total Energy          =    -247.8636462589160203 [Eh]
	-----------------------------------------------------------

  Dipole Moment: [D]
     X:     0.0164      Y:    -2.3723      Z:     0.0007     Total:     2.3723

*** Psi4 exiting successfully. Buy a developer a beer!
