                               Psi4 1.3.2 release

  ==> Input File <==

--------------------------------------------------------------------------
#psi4
#
memory 32 gb

molecule  {
0 1
  N        0.0124898     1.4462456    -0.0000268
  C        1.1454080     0.7211130    -0.0000270
  H        2.0620700     1.3085300     0.0002900
  C        1.1977090    -0.6737460    -0.0000200
  H        2.1568670    -1.1842320     0.0001540
  C       -0.0000070    -1.3877840    -0.0000410
  H       -0.0000130    -2.4750110     0.0001390
  C       -1.1977160    -0.6737350    -0.0000180
  H       -2.1568770    -1.1842140     0.0001640
  C       -1.1454010     0.7211250    -0.0000380
  H       -2.0620580     1.3085500     0.0003070
units angstrom
no_reorient  #important for SAPT in psi4, default
symmetry c1  #important for SAPT in psi4, default
}

set PROPERTIES_ORIGIN ["COM"]
properties('MP2/aug-cc-pvtz', properties = ['dipole'])
--------------------------------------------------------------------------

    Molecular point group: c1
  Charge       = 0
  Multiplicity = 1
  Basis Set: AUG-CC-PVTZ
    Blend: AUG-CC-PVTZ
  Basis Set: (AUG-CC-PVTZ AUX)
    Blend: AUG-CC-PVTZ-JKFIT

    Orbital Energies [Eh]
    ---------------------

    Doubly Occupied:

       1A    -15.572066     2A    -11.280112     3A    -11.277720
       4A    -11.263699     5A    -11.245411     6A    -11.244931
       7A     -1.249480     8A     -1.089116     9A     -1.031432
      10A     -0.859552    11A     -0.852308    12A     -0.719196
      13A     -0.657478    14A     -0.653865    15A     -0.596744
      16A     -0.576096    17A     -0.537673    18A     -0.517361
      19A     -0.424339    20A     -0.383014    21A     -0.347904

  @DF-RHF Final Energy:  -246.77562456718312

   => Energetics <=

    Nuclear Repulsion Energy =            205.1255532103110397
    One-Electron Energy =                -739.0433606100716588
    Two-Electron Energy =                 287.1421828325774754
    Total Energy =                       -246.7756245671831152
  Basis Set: (AUG-CC-PVTZ AUX)
    Blend: AUG-CC-PVTZ-RI
    Molecular point group: c1

    Geometry (in Angstrom), charge = 0, multiplicity = 1:

       Center              X                  Y                   Z               Mass
    ------------   -----------------  -----------------  -----------------  -----------------
         N            0.010278316647     1.414721152048    -0.000013629380    14.003074004430
         C            1.143196516647     0.689588552048    -0.000013829380    12.000000000000
         H            2.059858516647     1.277005552048     0.000303170620     1.007825032230
         C            1.195497516647    -0.705270447952    -0.000006829380    12.000000000000
         H            2.154655516647    -1.215756447952     0.000167170620     1.007825032230
         C           -0.002218483353    -1.419308447952    -0.000027829380    12.000000000000
         H           -0.002224483353    -2.506535447952     0.000152170620     1.007825032230
         C           -1.199927483353    -0.705259447952    -0.000004829380    12.000000000000
         H           -2.159088483353    -1.215738447952     0.000177170620     1.007825032230
         C           -1.147612483353     0.689600552048    -0.000024829380    12.000000000000
         H           -2.064269483353     1.277025552048     0.000320170620     1.007825032230

  Basis Set: AUG-CC-PVTZ
    Blend: AUG-CC-PVTZ
  Basis Set: (AUG-CC-PVTZ AUX)
    Blend: AUG-CC-PVTZ-JKFIT
	 Reference Energy          =    -246.7756245671831152 [Eh]
	 Singles Energy            =      -0.0000000000000000 [Eh]
	 Same-Spin Energy          =      -0.2690933808058015 [Eh]
	 Opposite-Spin Energy      =      -0.8401435448098461 [Eh]
	 Correlation Energy        =      -1.1092369256156476 [Eh]
	 Total Energy              =    -247.8848614927987626 [Eh]

	 ================> DF-SCS-MP2 Energies <==================
	-----------------------------------------------------------
	 SCS Same-Spin Scale       =       0.3333333333333333 [-]
	 SCS Opposite-Spin Scale   =       1.2000000000000000 [-]
	 SCS Same-Spin Energy      =      -0.0896977936019338 [Eh]
	 SCS Opposite-Spin Energy  =      -1.0081722537718152 [Eh]
	 SCS Correlation Energy    =      -1.0978700473737490 [Eh]
	 SCS Total Energy          =    -247.8734946145568756 [Eh]
	-----------------------------------------------------------

  Dipole Moment: [D]
     X:    -0.0191      Y:    -2.3842      Z:     0.0007     Total:     2.3843

*** Psi4 exiting successfully. Buy a developer a beer!
