                               Psi4 1.3.2 release

  ==> Input File <==

--------------------------------------------------------------------------
#psi4
#
memory 32 gb

molecule  {
0 1
  N       -0.0239081     1.3859595    -0.0000274
  C        1.1454080     0.7211130    -0.0000270
  H        2.0620700     1.3085300     0.0002900
  C        1.1977090    -0.6737460    -0.0000200
  H        2.1568670    -1.1842320     0.0001540
  C       -0.0000070    -1.3877840    -0.0000410
  H       -0.0000130    -2.4750110     0.0001390
  C       -1.1977160    -0.6737350    -0.0000180
  H       -2.1568770    -1.1842140     0.0001640
  C       -1.1454010     0.7211250    -0.0000380
  H       -2.0620580     1.3085500     0.0003070
units angstrom
no_reorient  #important for SAPT in psi4, default
symmetry c1  #important for SAPT in psi4, default
}

set PROPERTIES_ORIGIN ["COM"]
properties('MP2/aug-cc-pvtz', properties = ['dipole'])
--------------------------------------------------------------------------

    Molecular point group: c1
  Charge       = 0
  Multiplicity = 1
  Basis Set: AUG-CC-PVTZ
    Blend: AUG-CC-PVTZ
  Basis Set: (AUG-CC-PVTZ AUX)
    Blend: AUG-CC-PVTZ-JKFIT

    Orbital Energies [Eh]
    ---------------------

    Doubly Occupied:

       1A    -15.562280     2A    -11.277512     3A    -11.272392
       4A    -11.260907     5A    -11.244231     6A    -11.243185
       7A     -1.263694     8A     -1.087833     9A     -1.034505
      10A     -0.860246    11A     -0.854653    12A     -0.721312
      13A     -0.662949    14A     -0.652630    15A     -0.599081
      16A     -0.576458    17A     -0.544344    18A     -0.523033
      19A     -0.411801    20A     -0.385037    21A     -0.347309

  @DF-RHF Final Energy:  -246.77782754066129

   => Energetics <=

    Nuclear Repulsion Energy =            206.5263911990440988
    One-Electron Energy =                -741.8376568480344986
    Two-Electron Energy =                 288.5334381083291646
    Total Energy =                       -246.7778275406612920
  Basis Set: (AUG-CC-PVTZ AUX)
    Blend: AUG-CC-PVTZ-RI
    Molecular point group: c1

    Geometry (in Angstrom), charge = 0, multiplicity = 1:

       Center              X                  Y                   Z               Mass
    ------------   -----------------  -----------------  -----------------  -----------------
         N           -0.019671350729     1.365115305491    -0.000014123084    14.003074004430
         C            1.149644749271     0.700268805491    -0.000013723084    12.000000000000
         H            2.066306749271     1.287685805491     0.000303276916     1.007825032230
         C            1.201945749271    -0.694590194509    -0.000006723084    12.000000000000
         H            2.161103749271    -1.205076194509     0.000167276916     1.007825032230
         C            0.004229749271    -1.408628194509    -0.000027723084    12.000000000000
         H            0.004223749271    -2.495855194509     0.000152276916     1.007825032230
         C           -1.193479250729    -0.694579194509    -0.000004723084    12.000000000000
         H           -2.152640250729    -1.205058194509     0.000177276916     1.007825032230
         C           -1.141164250729     0.700280805491    -0.000024723084    12.000000000000
         H           -2.057821250729     1.287705805491     0.000320276916     1.007825032230

  Basis Set: AUG-CC-PVTZ
    Blend: AUG-CC-PVTZ
  Basis Set: (AUG-CC-PVTZ AUX)
    Blend: AUG-CC-PVTZ-JKFIT
	 Reference Energy          =    -246.7778275406612920 [Eh]
	 Singles Energy            =      -0.0000000000000000 [Eh]
	 Same-Spin Energy          =      -0.2686413094210761 [Eh]
	 Opposite-Spin Energy      =      -0.8382874987329865 [Eh]
	 Correlation Energy        =      -1.1069288081540625 [Eh]
	 Total Energy              =    -247.8847563488153583 [Eh]

	 ================> DF-SCS-MP2 Energies <==================
	-----------------------------------------------------------
	 SCS Same-Spin Scale       =       0.3333333333333333 [-]
	 SCS Opposite-Spin Scale   =       1.2000000000000000 [-]
	 SCS Same-Spin Energy      =      -0.0895471031403587 [Eh]
	 SCS Opposite-Spin Energy  =      -1.0059449984795836 [Eh]
	 SCS Correlation Energy    =      -1.0954921016199424 [Eh]
	 SCS Total Energy          =    -247.8733196422812455 [Eh]
	-----------------------------------------------------------

  Dipole Moment: [D]
     X:     0.0435      Y:    -2.2525      Z:     0.0007     Total:     2.2529

*** Psi4 exiting successfully. Buy a developer a beer!
