                               Psi4 1.3.2 release

  ==> Input File <==

--------------------------------------------------------------------------
#psi4
#
memory 32 gb

molecule  {
0 1
  C       -0.0000300     0.0047370     0.7629490
  C        0.0194970     0.0134368    -0.7628297
  H        0.7451420     0.7027450     1.1537350
  H       -0.9750100     0.3047700     1.1561430
  H        0.2297260    -0.9859220     1.1642350
  H       -0.2296570     0.9859320    -1.1642500
  H        0.9750020    -0.3048390    -1.1561240
  H       -0.7451930    -0.7026970    -1.1537350
units angstrom
no_reorient  #important for SAPT in psi4, default
symmetry c1  #important for SAPT in psi4, default
}

set PROPERTIES_ORIGIN ["COM"]
properties('MP2/aug-cc-pvtz', properties = ['dipole'])
--------------------------------------------------------------------------

    Molecular point group: c1
  Charge       = 0
  Multiplicity = 1
  Basis Set: AUG-CC-PVTZ
    Blend: AUG-CC-PVTZ
  Basis Set: (AUG-CC-PVTZ AUX)
    Blend: AUG-CC-PVTZ-JKFIT

    Orbital Energies [Eh]
    ---------------------

    Doubly Occupied:

       1A    -11.212392     2A    -11.211782     3A     -1.017257
       4A     -0.840328     5A     -0.599490     6A     -0.592655
       7A     -0.510264     8A     -0.490267     9A     -0.480254

  @DF-RHF Final Energy:   -79.25940075810925

   => Energetics <=

    Nuclear Repulsion Energy =             42.2373808390250147
    One-Electron Energy =                -189.0841868636398431
    Two-Electron Energy =                  67.5874052665055842
    Total Energy =                        -79.2594007581092512
  Basis Set: (AUG-CC-PVTZ AUX)
    Blend: AUG-CC-PVTZ-RI
    Molecular point group: c1

    Geometry (in Angstrom), charge = 0, multiplicity = 1:

       Center              X                  Y                   Z               Mass
    ------------   -----------------  -----------------  -----------------  -----------------
         C           -0.007804968067    -0.002520791973     0.762901220399    12.000000000000
         C            0.011722031933     0.006179008027    -0.762877479601    12.000000000000
         H            0.737367031933     0.695487208027     1.153687220399     1.007825032230
         H           -0.982784968067     0.297512208027     1.156095220399     1.007825032230
         H            0.221951031933    -0.993179791973     1.164187220399     1.007825032230
         H           -0.237431968067     0.978674208027    -1.164297779601     1.007825032230
         H            0.967227031933    -0.312096791973    -1.156171779601     1.007825032230
         H           -0.752967968067    -0.709954791973    -1.153782779601     1.007825032230

  Basis Set: AUG-CC-PVTZ
    Blend: AUG-CC-PVTZ
  Basis Set: (AUG-CC-PVTZ AUX)
    Blend: AUG-CC-PVTZ-JKFIT
	 Reference Energy          =     -79.2594007581092512 [Eh]
	 Singles Energy            =      -0.0000000000000000 [Eh]
	 Same-Spin Energy          =      -0.0802371575329565 [Eh]
	 Opposite-Spin Energy      =      -0.3320755229843607 [Eh]
	 Correlation Energy        =      -0.4123126805173172 [Eh]
	 Total Energy              =     -79.6717134386265684 [Eh]

	 ================> DF-SCS-MP2 Energies <==================
	-----------------------------------------------------------
	 SCS Same-Spin Scale       =       0.3333333333333333 [-]
	 SCS Opposite-Spin Scale   =       1.2000000000000000 [-]
	 SCS Same-Spin Energy      =      -0.0267457191776522 [Eh]
	 SCS Opposite-Spin Energy  =      -0.3984906275812328 [Eh]
	 SCS Correlation Energy    =      -0.4252363467588849 [Eh]
	 SCS Total Energy          =     -79.6846371048681306 [Eh]
	-----------------------------------------------------------

  Dipole Moment: [D]
     X:     0.0077      Y:     0.0072      Z:     0.0013     Total:     0.0107

*** Psi4 exiting successfully. Buy a developer a beer!
