                               Psi4 1.3.2 release

  ==> Input File <==

--------------------------------------------------------------------------
#psi4
#
memory 32 gb

molecule  {
0 1
  C       -0.0000300     0.0047370     0.7629490
  C        0.0000329    -0.0053568    -0.8629481
  H        0.7451420     0.7027450     1.1537350
  H       -0.9750100     0.3047700     1.1561430
  H        0.2297260    -0.9859220     1.1642350
  H       -0.2296570     0.9859320    -1.1642500
  H        0.9750020    -0.3048390    -1.1561240
  H       -0.7451930    -0.7026970    -1.1537350
units angstrom
no_reorient  #important for SAPT in psi4, default
symmetry c1  #important for SAPT in psi4, default
}

set PROPERTIES_ORIGIN ["COM"]
properties('MP2/aug-cc-pvtz', properties = ['dipole'])
--------------------------------------------------------------------------

    Molecular point group: c1
  Charge       = 0
  Multiplicity = 1
  Basis Set: AUG-CC-PVTZ
    Blend: AUG-CC-PVTZ
  Basis Set: (AUG-CC-PVTZ AUX)
    Blend: AUG-CC-PVTZ-JKFIT

    Orbital Energies [Eh]
    ---------------------

    Doubly Occupied:

       1A    -11.215335     2A    -11.209103     3A     -1.002240
       4A     -0.848422     5A     -0.597643     6A     -0.597643
       7A     -0.500944     8A     -0.500941     9A     -0.473043

  @DF-RHF Final Energy:   -79.25279381369987

   => Energetics <=

    Nuclear Repulsion Energy =             41.5604418621638274
    One-Electron Energy =                -187.7358434805163654
    Two-Electron Energy =                  66.9226078046526709
    Total Energy =                        -79.2527938136998671
  Basis Set: (AUG-CC-PVTZ AUX)
    Blend: AUG-CC-PVTZ-RI
    Molecular point group: c1

    Geometry (in Angstrom), charge = 0, multiplicity = 1:

       Center              X                  Y                   Z               Mass
    ------------   -----------------  -----------------  -----------------  -----------------
         C           -0.000031493604     0.004984901568     0.802886003955    12.000000000000
         C            0.000031406396    -0.005108898432    -0.823011096045    12.000000000000
         H            0.745140506396     0.702992901568     1.193672003955     1.007825032230
         H           -0.975011493604     0.305017901568     1.196080003955     1.007825032230
         H            0.229724506396    -0.985674098432     1.204172003955     1.007825032230
         H           -0.229658493604     0.986179901568    -1.124312996045     1.007825032230
         H            0.975000506396    -0.304591098432    -1.116186996045     1.007825032230
         H           -0.745194493604    -0.702449098432    -1.113797996045     1.007825032230

  Basis Set: AUG-CC-PVTZ
    Blend: AUG-CC-PVTZ
  Basis Set: (AUG-CC-PVTZ AUX)
    Blend: AUG-CC-PVTZ-JKFIT
	 Reference Energy          =     -79.2527938136998671 [Eh]
	 Singles Energy            =      -0.0000000000000000 [Eh]
	 Same-Spin Energy          =      -0.0799950572430524 [Eh]
	 Opposite-Spin Energy      =      -0.3321903527119580 [Eh]
	 Correlation Energy        =      -0.4121854099550104 [Eh]
	 Total Energy              =     -79.6649792236548819 [Eh]

	 ================> DF-SCS-MP2 Energies <==================
	-----------------------------------------------------------
	 SCS Same-Spin Scale       =       0.3333333333333333 [-]
	 SCS Opposite-Spin Scale   =       1.2000000000000000 [-]
	 SCS Same-Spin Energy      =      -0.0266650190810175 [Eh]
	 SCS Opposite-Spin Energy  =      -0.3986284232543496 [Eh]
	 SCS Correlation Energy    =      -0.4252934423353670 [Eh]
	 SCS Total Energy          =     -79.6780872560352407 [Eh]
	-----------------------------------------------------------

  Dipole Moment: [D]
     X:    -0.0000      Y:    -0.0001      Z:    -0.0125     Total:     0.0125

*** Psi4 exiting successfully. Buy a developer a beer!
