                               Psi4 1.3.2 release

  ==> Input File <==

--------------------------------------------------------------------------
#psi4
#
memory 32 gb

molecule  {
0 1
  C       -0.0000300     0.0047370     0.7629490
  C       -0.0194390    -0.0229060    -0.7626055
  H        0.7451420     0.7027450     1.1537350
  H       -0.9750100     0.3047700     1.1561430
  H        0.2297260    -0.9859220     1.1642350
  H       -0.2296570     0.9859320    -1.1642500
  H        0.9750020    -0.3048390    -1.1561240
  H       -0.7451930    -0.7026970    -1.1537350
units angstrom
no_reorient  #important for SAPT in psi4, default
symmetry c1  #important for SAPT in psi4, default
}

set PROPERTIES_ORIGIN ["COM"]
properties('MP2/aug-cc-pvtz', properties = ['dipole'])
--------------------------------------------------------------------------

    Molecular point group: c1
  Charge       = 0
  Multiplicity = 1
  Basis Set: AUG-CC-PVTZ
    Blend: AUG-CC-PVTZ
  Basis Set: (AUG-CC-PVTZ AUX)
    Blend: AUG-CC-PVTZ-JKFIT

    Orbital Energies [Eh]
    ---------------------

    Doubly Occupied:

       1A    -11.212392     2A    -11.211782     3A     -1.017258
       4A     -0.840343     5A     -0.599406     6A     -0.592733
       7A     -0.510639     8A     -0.489004     9A     -0.481139

  @DF-RHF Final Energy:   -79.25936077254995

   => Energetics <=

    Nuclear Repulsion Energy =             42.2375092182882526
    One-Electron Energy =                -189.0843489982900678
    Two-Electron Energy =                  67.5874790074518472
    Total Energy =                        -79.2593607725499538
  Basis Set: (AUG-CC-PVTZ AUX)
    Blend: AUG-CC-PVTZ-RI
    Molecular point group: c1

    Geometry (in Angstrom), charge = 0, multiplicity = 1:

       Center              X                  Y                   Z               Mass
    ------------   -----------------  -----------------  -----------------  -----------------
         C            0.007745095983     0.011993612890     0.762811680529    12.000000000000
         C           -0.011663904017    -0.015649387110    -0.762742819471    12.000000000000
         H            0.752917095983     0.710001612890     1.153597680529     1.007825032230
         H           -0.967234904017     0.312026612890     1.156005680529     1.007825032230
         H            0.237501095983    -0.978665387110     1.164097680529     1.007825032230
         H           -0.221881904017     0.993188612890    -1.164387319471     1.007825032230
         H            0.982777095983    -0.297582387110    -1.156261319471     1.007825032230
         H           -0.737417904017    -0.695440387110    -1.153872319471     1.007825032230

  Basis Set: AUG-CC-PVTZ
    Blend: AUG-CC-PVTZ
  Basis Set: (AUG-CC-PVTZ AUX)
    Blend: AUG-CC-PVTZ-JKFIT
	 Reference Energy          =     -79.2593607725499538 [Eh]
	 Singles Energy            =      -0.0000000000000000 [Eh]
	 Same-Spin Energy          =      -0.0802373700228308 [Eh]
	 Opposite-Spin Energy      =      -0.3320763678103247 [Eh]
	 Correlation Energy        =      -0.4123137378331555 [Eh]
	 Total Energy              =     -79.6716745103831130 [Eh]

	 ================> DF-SCS-MP2 Energies <==================
	-----------------------------------------------------------
	 SCS Same-Spin Scale       =       0.3333333333333333 [-]
	 SCS Opposite-Spin Scale   =       1.2000000000000000 [-]
	 SCS Same-Spin Energy      =      -0.0267457900076103 [Eh]
	 SCS Opposite-Spin Energy  =      -0.3984916413723896 [Eh]
	 SCS Correlation Energy    =      -0.4252374313799999 [Eh]
	 SCS Total Energy          =     -79.6845982039299514 [Eh]
	-----------------------------------------------------------

  Dipole Moment: [D]
     X:    -0.0067      Y:    -0.0062      Z:     0.0014     Total:     0.0092

*** Psi4 exiting successfully. Buy a developer a beer!
