                               Psi4 1.3.2 release

  ==> Input File <==

--------------------------------------------------------------------------
#psi4
#
memory 32 gb

molecule  {
0 1
  C       -0.0000300     0.0047370     0.7629490
  C        0.0000213    -0.0034944    -0.5629539
  H        0.7451420     0.7027450     1.1537350
  H       -0.9750100     0.3047700     1.1561430
  H        0.2297260    -0.9859220     1.1642350
  H       -0.2296570     0.9859320    -1.1642500
  H        0.9750020    -0.3048390    -1.1561240
  H       -0.7451930    -0.7026970    -1.1537350
units angstrom
no_reorient  #important for SAPT in psi4, default
symmetry c1  #important for SAPT in psi4, default
}

set PROPERTIES_ORIGIN ["COM"]
properties('MP2/aug-cc-pvtz', properties = ['dipole'])
--------------------------------------------------------------------------

    Molecular point group: c1
  Charge       = 0
  Multiplicity = 1
  Basis Set: AUG-CC-PVTZ
    Blend: AUG-CC-PVTZ
  Basis Set: (AUG-CC-PVTZ AUX)
    Blend: AUG-CC-PVTZ-JKFIT

    Orbital Energies [Eh]
    ---------------------

    Doubly Occupied:

       1A    -11.226761     2A    -11.203906     3A     -1.067487
       4A     -0.817260     5A     -0.606875     6A     -0.606873
       7A     -0.578908     8A     -0.442737     9A     -0.442736

  @DF-RHF Final Energy:   -79.21036406998557

   => Energetics <=

    Nuclear Repulsion Energy =             43.8593667360553354
    One-Electron Energy =                -192.1523742762423410
    Two-Electron Energy =                  69.0826434702014325
    Total Energy =                        -79.2103640699855731
  Basis Set: (AUG-CC-PVTZ AUX)
    Blend: AUG-CC-PVTZ-RI
    Molecular point group: c1

    Geometry (in Angstrom), charge = 0, multiplicity = 1:

       Center              X                  Y                   Z               Mass
    ------------   -----------------  -----------------  -----------------  -----------------
         C           -0.000026860854     0.004241105614     0.683075827653    12.000000000000
         C            0.000024439146    -0.003990294386    -0.642827072347    12.000000000000
         H            0.745145139146     0.702249105614     1.073861827653     1.007825032230
         H           -0.975006860854     0.304274105614     1.076269827653     1.007825032230
         H            0.229729139146    -0.986417894386     1.084361827653     1.007825032230
         H           -0.229653860854     0.985436105614    -1.244123172347     1.007825032230
         H            0.975005139146    -0.305334894386    -1.235997172347     1.007825032230
         H           -0.745189860854    -0.703192894386    -1.233608172347     1.007825032230

  Basis Set: AUG-CC-PVTZ
    Blend: AUG-CC-PVTZ
  Basis Set: (AUG-CC-PVTZ AUX)
    Blend: AUG-CC-PVTZ-JKFIT
	 Reference Energy          =     -79.2103640699855731 [Eh]
	 Singles Energy            =      -0.0000000000000000 [Eh]
	 Same-Spin Energy          =      -0.0825966744751034 [Eh]
	 Opposite-Spin Energy      =      -0.3352189218399890 [Eh]
	 Correlation Energy        =      -0.4178155963150924 [Eh]
	 Total Energy              =     -79.6281796663006673 [Eh]

	 ================> DF-SCS-MP2 Energies <==================
	-----------------------------------------------------------
	 SCS Same-Spin Scale       =       0.3333333333333333 [-]
	 SCS Opposite-Spin Scale   =       1.2000000000000000 [-]
	 SCS Same-Spin Energy      =      -0.0275322248250345 [Eh]
	 SCS Opposite-Spin Energy  =      -0.4022627062079868 [Eh]
	 SCS Correlation Energy    =      -0.4297949310330213 [Eh]
	 SCS Total Energy          =     -79.6401590010185885 [Eh]
	-----------------------------------------------------------

  Dipole Moment: [D]
     X:    -0.0000      Y:     0.0008      Z:     0.1252     Total:     0.1252

*** Psi4 exiting successfully. Buy a developer a beer!
