                               Psi4 1.3.2 release

  ==> Input File <==

--------------------------------------------------------------------------
#psi4
#
memory 32 gb

molecule  {
0 1
  C       -0.0000300     0.0047370     0.7629490
  C        0.0000290    -0.0047360    -0.7629500
  H        0.8231760     0.6427106     1.0954122
  H       -0.9750100     0.3047700     1.1561430
  H        0.2297260    -0.9859220     1.1642350
  H       -0.2296570     0.9859320    -1.1642500
  H        0.9750020    -0.3048390    -1.1561240
  H       -0.7451930    -0.7026970    -1.1537350
units angstrom
no_reorient  #important for SAPT in psi4, default
symmetry c1  #important for SAPT in psi4, default
}

set PROPERTIES_ORIGIN ["COM"]
properties('MP2/aug-cc-pvtz', properties = ['dipole'])
--------------------------------------------------------------------------

    Molecular point group: c1
  Charge       = 0
  Multiplicity = 1
  Basis Set: AUG-CC-PVTZ
    Blend: AUG-CC-PVTZ
  Basis Set: (AUG-CC-PVTZ AUX)
    Blend: AUG-CC-PVTZ-JKFIT

    Orbital Energies [Eh]
    ---------------------

    Doubly Occupied:

       1A    -11.212232     2A    -11.211160     3A     -1.017903
       4A     -0.838667     5A     -0.602700     6A     -0.592548
       7A     -0.506972     8A     -0.490765     9A     -0.480356

  @DF-RHF Final Energy:   -79.25885302414503

   => Energetics <=

    Nuclear Repulsion Energy =             42.2702936601667361
    One-Electron Energy =                -189.1516869367248148
    Two-Electron Energy =                  67.6225402524130459
    Total Energy =                        -79.2588530241450258
  Basis Set: (AUG-CC-PVTZ AUX)
    Blend: AUG-CC-PVTZ-RI
    Molecular point group: c1

    Geometry (in Angstrom), charge = 0, multiplicity = 1:

       Center              X                  Y                   Z               Mass
    ------------   -----------------  -----------------  -----------------  -----------------
         C           -0.002647327093     0.006750623905     0.764905509600    12.000000000000
         C           -0.002588327093    -0.002722376095    -0.760993490400    12.000000000000
         H            0.820558672907     0.644724223905     1.097368709600     1.007825032230
         H           -0.977627327093     0.306783623905     1.158099509600     1.007825032230
         H            0.227108672907    -0.983908376095     1.166191509600     1.007825032230
         H           -0.232274327093     0.987945623905    -1.162293490400     1.007825032230
         H            0.972384672907    -0.302825376095    -1.154167490400     1.007825032230
         H           -0.747810327093    -0.700683376095    -1.151778490400     1.007825032230

  Basis Set: AUG-CC-PVTZ
    Blend: AUG-CC-PVTZ
  Basis Set: (AUG-CC-PVTZ AUX)
    Blend: AUG-CC-PVTZ-JKFIT
	 Reference Energy          =     -79.2588530241450258 [Eh]
	 Singles Energy            =      -0.0000000000000000 [Eh]
	 Same-Spin Energy          =      -0.0802795035548548 [Eh]
	 Opposite-Spin Energy      =      -0.3321518762198439 [Eh]
	 Correlation Energy        =      -0.4124313797746987 [Eh]
	 Total Energy              =     -79.6712844039197279 [Eh]

	 ================> DF-SCS-MP2 Energies <==================
	-----------------------------------------------------------
	 SCS Same-Spin Scale       =       0.3333333333333333 [-]
	 SCS Opposite-Spin Scale   =       1.2000000000000000 [-]
	 SCS Same-Spin Energy      =      -0.0267598345182849 [Eh]
	 SCS Opposite-Spin Energy  =      -0.3985822514638127 [Eh]
	 SCS Correlation Energy    =      -0.4253420859820976 [Eh]
	 SCS Total Energy          =     -79.6841951101271206 [Eh]
	-----------------------------------------------------------

  Dipole Moment: [D]
     X:     0.0180      Y:    -0.0208      Z:    -0.0045     Total:     0.0279

*** Psi4 exiting successfully. Buy a developer a beer!
