                               Psi4 1.3.2 release

  ==> Input File <==

--------------------------------------------------------------------------
#psi4
#
memory 32 gb

molecule  {
0 1
  C       -0.0000300     0.0047370     0.7629490
  C        0.0000290    -0.0047360    -0.7629500
  H        0.6589438     0.7551319     1.2077762
  H       -0.9750100     0.3047700     1.1561430
  H        0.2297260    -0.9859220     1.1642350
  H       -0.2296570     0.9859320    -1.1642500
  H        0.9750020    -0.3048390    -1.1561240
  H       -0.7451930    -0.7026970    -1.1537350
units angstrom
no_reorient  #important for SAPT in psi4, default
symmetry c1  #important for SAPT in psi4, default
}

set PROPERTIES_ORIGIN ["COM"]
properties('MP2/aug-cc-pvtz', properties = ['dipole'])
--------------------------------------------------------------------------

    Molecular point group: c1
  Charge       = 0
  Multiplicity = 1
  Basis Set: AUG-CC-PVTZ
    Blend: AUG-CC-PVTZ
  Basis Set: (AUG-CC-PVTZ AUX)
    Blend: AUG-CC-PVTZ-JKFIT

    Orbital Energies [Eh]
    ---------------------

    Doubly Occupied:

       1A    -11.212913     2A    -11.211804     3A     -1.016803
       4A     -0.841998     5A     -0.599728     6A     -0.589814
       7A     -0.512976     8A     -0.489681     9A     -0.479312

  @DF-RHF Final Energy:   -79.25889345982588

   => Energetics <=

    Nuclear Repulsion Energy =             42.2110557506560582
    One-Electron Energy =                -189.0298404891705104
    Two-Electron Energy =                  67.5598912786885819
    Total Energy =                        -79.2588934598258845
  Basis Set: (AUG-CC-PVTZ AUX)
    Blend: AUG-CC-PVTZ-RI
    Molecular point group: c1

    Geometry (in Angstrom), charge = 0, multiplicity = 1:

       Center              X                  Y                   Z               Mass
    ------------   -----------------  -----------------  -----------------  -----------------
         C            0.002861295951     0.002979825220     0.761136632852    12.000000000000
         C            0.002920295951    -0.006493174780    -0.764762367148    12.000000000000
         H            0.661835095951     0.753374725220     1.205963832852     1.007825032230
         H           -0.972118704049     0.303012825220     1.154330632852     1.007825032230
         H            0.232617295951    -0.987679174780     1.162422632852     1.007825032230
         H           -0.226765704049     0.984174825220    -1.166062367148     1.007825032230
         H            0.977893295951    -0.306596174780    -1.157936367148     1.007825032230
         H           -0.742301704049    -0.704454174780    -1.155547367148     1.007825032230

  Basis Set: AUG-CC-PVTZ
    Blend: AUG-CC-PVTZ
  Basis Set: (AUG-CC-PVTZ AUX)
    Blend: AUG-CC-PVTZ-JKFIT
	 Reference Energy          =     -79.2588934598258845 [Eh]
	 Singles Energy            =      -0.0000000000000000 [Eh]
	 Same-Spin Energy          =      -0.0802859923495266 [Eh]
	 Opposite-Spin Energy      =      -0.3320943271571380 [Eh]
	 Correlation Energy        =      -0.4123803195066646 [Eh]
	 Total Energy              =     -79.6712737793325516 [Eh]

	 ================> DF-SCS-MP2 Energies <==================
	-----------------------------------------------------------
	 SCS Same-Spin Scale       =       0.3333333333333333 [-]
	 SCS Opposite-Spin Scale   =       1.2000000000000000 [-]
	 SCS Same-Spin Energy      =      -0.0267619974498422 [Eh]
	 SCS Opposite-Spin Energy  =      -0.3985131925885656 [Eh]
	 SCS Correlation Energy    =      -0.4252751900384078 [Eh]
	 SCS Total Energy          =     -79.6841686498642900 [Eh]
	-----------------------------------------------------------

  Dipole Moment: [D]
     X:    -0.0248      Y:     0.0202      Z:     0.0046     Total:     0.0323

*** Psi4 exiting successfully. Buy a developer a beer!
