                               Psi4 1.3.2 release

  ==> Input File <==

--------------------------------------------------------------------------
#psi4
#
memory 32 gb

molecule  {
0 1
  C       -0.0000300     0.0047370     0.7629490
  C       -0.1165721    -0.1135189    -0.7539198
  H        0.7451420     0.7027450     1.1537350
  H       -0.9750100     0.3047700     1.1561430
  H        0.2297260    -0.9859220     1.1642350
  H       -0.2296570     0.9859320    -1.1642500
  H        0.9750020    -0.3048390    -1.1561240
  H       -0.7451930    -0.7026970    -1.1537350
units angstrom
no_reorient  #important for SAPT in psi4, default
symmetry c1  #important for SAPT in psi4, default
}

set PROPERTIES_ORIGIN ["COM"]
properties('MP2/aug-cc-pvtz', properties = ['dipole'])
--------------------------------------------------------------------------

    Molecular point group: c1
  Charge       = 0
  Multiplicity = 1
  Basis Set: AUG-CC-PVTZ
    Blend: AUG-CC-PVTZ
  Basis Set: (AUG-CC-PVTZ AUX)
    Blend: AUG-CC-PVTZ-JKFIT

    Orbital Energies [Eh]
    ---------------------

    Doubly Occupied:

       1A    -11.216556     2A    -11.214365     3A     -1.019894
       4A     -0.847296     5A     -0.616945     6A     -0.581412
       7A     -0.538226     8A     -0.478822     9A     -0.454312

  @DF-RHF Final Energy:   -79.22851137216061

   => Energetics <=

    Nuclear Repulsion Energy =             42.2604204398004413
    One-Electron Energy =                -189.0422058828780791
    Two-Electron Energy =                  67.5532740709170270
    Total Energy =                        -79.2285113721606109
  Basis Set: (AUG-CC-PVTZ AUX)
    Blend: AUG-CC-PVTZ-RI
    Molecular point group: c1

    Geometry (in Angstrom), charge = 0, multiplicity = 1:

       Center              X                  Y                   Z               Mass
    ------------   -----------------  -----------------  -----------------  -----------------
         C            0.046537625424     0.048182137615     0.759342829304    12.000000000000
         C           -0.070004474576    -0.070073762385    -0.757525970696    12.000000000000
         H            0.791709625424     0.746190137615     1.150128829304     1.007825032230
         H           -0.928442374576     0.348215137615     1.152536829304     1.007825032230
         H            0.276293625424    -0.942476862385     1.160628829304     1.007825032230
         H           -0.183089374576     1.029377137615    -1.167856170696     1.007825032230
         H            1.021569625424    -0.261393862385    -1.159730170696     1.007825032230
         H           -0.698625374576    -0.659251862385    -1.157341170696     1.007825032230

  Basis Set: AUG-CC-PVTZ
    Blend: AUG-CC-PVTZ
  Basis Set: (AUG-CC-PVTZ AUX)
    Blend: AUG-CC-PVTZ-JKFIT
	 Reference Energy          =     -79.2285113721606109 [Eh]
	 Singles Energy            =      -0.0000000000000000 [Eh]
	 Same-Spin Energy          =      -0.0805809340224218 [Eh]
	 Opposite-Spin Energy      =      -0.3333128247674274 [Eh]
	 Correlation Energy        =      -0.4138937587898491 [Eh]
	 Total Energy              =     -79.6424051309504648 [Eh]

	 ================> DF-SCS-MP2 Energies <==================
	-----------------------------------------------------------
	 SCS Same-Spin Scale       =       0.3333333333333333 [-]
	 SCS Opposite-Spin Scale   =       1.2000000000000000 [-]
	 SCS Same-Spin Energy      =      -0.0268603113408072 [Eh]
	 SCS Opposite-Spin Energy  =      -0.3999753897209129 [Eh]
	 SCS Correlation Energy    =      -0.4268357010617201 [Eh]
	 SCS Total Energy          =     -79.6553470732223303 [Eh]
	-----------------------------------------------------------

  Dipole Moment: [D]
     X:    -0.0240      Y:    -0.0221      Z:     0.0505     Total:     0.0601

*** Psi4 exiting successfully. Buy a developer a beer!
