                               Psi4 1.3.2 release

  ==> Input File <==

--------------------------------------------------------------------------
#psi4
#
memory 32 gb

molecule  {
0 1
  C       -0.0000300     0.0047370     0.7629490
  C        0.0000251    -0.0041152    -0.6629519
  H        0.7451420     0.7027450     1.1537350
  H       -0.9750100     0.3047700     1.1561430
  H        0.2297260    -0.9859220     1.1642350
  H       -0.2296570     0.9859320    -1.1642500
  H        0.9750020    -0.3048390    -1.1561240
  H       -0.7451930    -0.7026970    -1.1537350
units angstrom
no_reorient  #important for SAPT in psi4, default
symmetry c1  #important for SAPT in psi4, default
}

set PROPERTIES_ORIGIN ["COM"]
properties('MP2/aug-cc-pvtz', properties = ['dipole'])
--------------------------------------------------------------------------

    Molecular point group: c1
  Charge       = 0
  Multiplicity = 1
  Basis Set: AUG-CC-PVTZ
    Blend: AUG-CC-PVTZ
  Basis Set: (AUG-CC-PVTZ AUX)
    Blend: AUG-CC-PVTZ-JKFIT

    Orbital Energies [Eh]
    ---------------------

    Doubly Occupied:

       1A    -11.218119     2A    -11.208094     3A     -1.038493
       4A     -0.829874     5A     -0.598833     6A     -0.598831
       7A     -0.545356     8A     -0.466117     9A     -0.466117

  @DF-RHF Final Energy:   -79.24857390952202

   => Energetics <=

    Nuclear Repulsion Energy =             42.9895672426330293
    One-Electron Energy =                -190.5366139550167190
    Two-Electron Energy =                  68.2984728028616672
    Total Energy =                        -79.2485739095220225
  Basis Set: (AUG-CC-PVTZ AUX)
    Blend: AUG-CC-PVTZ-RI
    Molecular point group: c1

    Geometry (in Angstrom), charge = 0, multiplicity = 1:

       Center              X                  Y                   Z               Mass
    ------------   -----------------  -----------------  -----------------  -----------------
         C           -0.000028378479     0.004489037599     0.723012526462    12.000000000000
         C            0.000026721521    -0.004363162401    -0.702888373538    12.000000000000
         H            0.745143621521     0.702497037599     1.113798526462     1.007825032230
         H           -0.975008378479     0.304522037599     1.116206526462     1.007825032230
         H            0.229727621521    -0.986169962401     1.124298526462     1.007825032230
         H           -0.229655378479     0.985684037599    -1.204186473538     1.007825032230
         H            0.975003621521    -0.305086962401    -1.196060473538     1.007825032230
         H           -0.745191378479    -0.702944962401    -1.193671473538     1.007825032230

  Basis Set: AUG-CC-PVTZ
    Blend: AUG-CC-PVTZ
  Basis Set: (AUG-CC-PVTZ AUX)
    Blend: AUG-CC-PVTZ-JKFIT
	 Reference Energy          =     -79.2485739095220225 [Eh]
	 Singles Energy            =      -0.0000000000000000 [Eh]
	 Same-Spin Energy          =      -0.0810539972264080 [Eh]
	 Opposite-Spin Energy      =      -0.3330026460767680 [Eh]
	 Correlation Energy        =      -0.4140566433031760 [Eh]
	 Total Energy              =     -79.6626305528251919 [Eh]

	 ================> DF-SCS-MP2 Energies <==================
	-----------------------------------------------------------
	 SCS Same-Spin Scale       =       0.3333333333333333 [-]
	 SCS Opposite-Spin Scale   =       1.2000000000000000 [-]
	 SCS Same-Spin Energy      =      -0.0270179990754693 [Eh]
	 SCS Opposite-Spin Energy  =      -0.3996031752921216 [Eh]
	 SCS Correlation Energy    =      -0.4266211743675909 [Eh]
	 SCS Total Energy          =     -79.6751950838896192 [Eh]
	-----------------------------------------------------------

  Dipole Moment: [D]
     X:    -0.0000      Y:     0.0003      Z:     0.0420     Total:     0.0420

*** Psi4 exiting successfully. Buy a developer a beer!
