                               Psi4 1.3.2 release

  ==> Input File <==

--------------------------------------------------------------------------
#psi4
#
memory 32 gb

molecule  {
0 1
  C       -0.0000300     0.0047370     0.7629490
  C        0.0389591     0.0316070    -0.7622445
  H        0.7451420     0.7027450     1.1537350
  H       -0.9750100     0.3047700     1.1561430
  H        0.2297260    -0.9859220     1.1642350
  H       -0.2296570     0.9859320    -1.1642500
  H        0.9750020    -0.3048390    -1.1561240
  H       -0.7451930    -0.7026970    -1.1537350
units angstrom
no_reorient  #important for SAPT in psi4, default
symmetry c1  #important for SAPT in psi4, default
}

set PROPERTIES_ORIGIN ["COM"]
properties('MP2/aug-cc-pvtz', properties = ['dipole'])
--------------------------------------------------------------------------

    Molecular point group: c1
  Charge       = 0
  Multiplicity = 1
  Basis Set: AUG-CC-PVTZ
    Blend: AUG-CC-PVTZ
  Basis Set: (AUG-CC-PVTZ AUX)
    Blend: AUG-CC-PVTZ-JKFIT

    Orbital Energies [Eh]
    ---------------------

    Doubly Occupied:

       1A    -11.212709     2A    -11.212045     3A     -1.017464
       4A     -0.840734     5A     -0.603290     6A     -0.589523
       7A     -0.512255     8A     -0.494396     9A     -0.473332

  @DF-RHF Final Energy:   -79.25725042685858

   => Energetics <=

    Nuclear Repulsion Energy =             42.2378556324978547
    One-Electron Energy =                -189.0787143669058139
    Two-Electron Energy =                  67.5836083075493832
    Total Energy =                        -79.2572504268585760
  Basis Set: (AUG-CC-PVTZ AUX)
    Blend: AUG-CC-PVTZ-RI
    Molecular point group: c1

    Geometry (in Angstrom), charge = 0, multiplicity = 1:

       Center              X                  Y                   Z               Mass
    ------------   -----------------  -----------------  -----------------  -----------------
         C           -0.015577643779    -0.009777515154     0.762667506163    12.000000000000
         C            0.023411456221     0.017092484846    -0.762525993837    12.000000000000
         H            0.729594356221     0.688230484846     1.153453506163     1.007825032230
         H           -0.990557643779     0.290255484846     1.155861506163     1.007825032230
         H            0.214178356221    -1.000436515154     1.163953506163     1.007825032230
         H           -0.245204643779     0.971417484846    -1.164531493837     1.007825032230
         H            0.959454356221    -0.319353515154    -1.156405493837     1.007825032230
         H           -0.760740643779    -0.717211515154    -1.154016493837     1.007825032230

  Basis Set: AUG-CC-PVTZ
    Blend: AUG-CC-PVTZ
  Basis Set: (AUG-CC-PVTZ AUX)
    Blend: AUG-CC-PVTZ-JKFIT
	 Reference Energy          =     -79.2572504268585760 [Eh]
	 Singles Energy            =      -0.0000000000000000 [Eh]
	 Same-Spin Energy          =      -0.0802638589664251 [Eh]
	 Opposite-Spin Energy      =      -0.3321693377668656 [Eh]
	 Correlation Energy        =      -0.4124331967332907 [Eh]
	 Total Energy              =     -79.6696836235918653 [Eh]

	 ================> DF-SCS-MP2 Energies <==================
	-----------------------------------------------------------
	 SCS Same-Spin Scale       =       0.3333333333333333 [-]
	 SCS Opposite-Spin Scale   =       1.2000000000000000 [-]
	 SCS Same-Spin Energy      =      -0.0267546196554750 [Eh]
	 SCS Opposite-Spin Energy  =      -0.3986032053202387 [Eh]
	 SCS Correlation Energy    =      -0.4253578249757137 [Eh]
	 SCS Total Energy          =     -79.6826082518342957 [Eh]
	-----------------------------------------------------------

  Dipole Moment: [D]
     X:     0.0164      Y:     0.0154      Z:     0.0050     Total:     0.0231

*** Psi4 exiting successfully. Buy a developer a beer!
