                               Psi4 1.3.2 release

  ==> Input File <==

--------------------------------------------------------------------------
#psi4
#
memory 32 gb

molecule  {
0 1
  C       -0.0000300     0.0047370     0.7629490
  C        0.0000290    -0.0047360    -0.7629500
  H        0.6088205     0.5750517     1.0822447
  H       -0.9750100     0.3047700     1.1561430
  H        0.2297260    -0.9859220     1.1642350
  H       -0.2296570     0.9859320    -1.1642500
  H        0.9750020    -0.3048390    -1.1561240
  H       -0.7451930    -0.7026970    -1.1537350
units angstrom
no_reorient  #important for SAPT in psi4, default
symmetry c1  #important for SAPT in psi4, default
}

set PROPERTIES_ORIGIN ["COM"]
properties('MP2/aug-cc-pvtz', properties = ['dipole'])
--------------------------------------------------------------------------

    Molecular point group: c1
  Charge       = 0
  Multiplicity = 1
  Basis Set: AUG-CC-PVTZ
    Blend: AUG-CC-PVTZ
  Basis Set: (AUG-CC-PVTZ AUX)
    Blend: AUG-CC-PVTZ-JKFIT

    Orbital Energies [Eh]
    ---------------------

    Doubly Occupied:

       1A    -11.210111     2A    -11.186398     3A     -1.030300
       4A     -0.858918     5A     -0.618663     6A     -0.594069
       7A     -0.513462     8A     -0.497548     9A     -0.484058

  @DF-RHF Final Energy:   -79.22569326015656

   => Energetics <=

    Nuclear Repulsion Energy =             43.0789990526024198
    One-Electron Energy =                -190.6223321373790043
    Two-Electron Energy =                  68.3176398246200165
    Total Energy =                        -79.2256932601565609
  Basis Set: (AUG-CC-PVTZ AUX)
    Blend: AUG-CC-PVTZ-RI
    Molecular point group: c1

    Geometry (in Angstrom), charge = 0, multiplicity = 1:

       Center              X                  Y                   Z               Mass
    ------------   -----------------  -----------------  -----------------  -----------------
         C            0.004542515380     0.009020016727     0.765347169602    12.000000000000
         C            0.004601515380    -0.000452983273    -0.760551830398    12.000000000000
         H            0.613393015380     0.579334716727     1.084642869602     1.007825032230
         H           -0.970437484620     0.309053016727     1.158541169602     1.007825032230
         H            0.234298515380    -0.981638983273     1.166633169602     1.007825032230
         H           -0.225084484620     0.990215016727    -1.161851830398     1.007825032230
         H            0.979574515380    -0.300555983273    -1.153725830398     1.007825032230
         H           -0.740620484620    -0.698413983273    -1.151336830398     1.007825032230

  Basis Set: AUG-CC-PVTZ
    Blend: AUG-CC-PVTZ
  Basis Set: (AUG-CC-PVTZ AUX)
    Blend: AUG-CC-PVTZ-JKFIT
	 Reference Energy          =     -79.2256932601565609 [Eh]
	 Singles Energy            =      -0.0000000000000000 [Eh]
	 Same-Spin Energy          =      -0.0805228153115788 [Eh]
	 Opposite-Spin Energy      =      -0.3316545814146837 [Eh]
	 Correlation Energy        =      -0.4121773967262626 [Eh]
	 Total Energy              =     -79.6378706568828250 [Eh]

	 ================> DF-SCS-MP2 Energies <==================
	-----------------------------------------------------------
	 SCS Same-Spin Scale       =       0.3333333333333333 [-]
	 SCS Opposite-Spin Scale   =       1.2000000000000000 [-]
	 SCS Same-Spin Energy      =      -0.0268409384371929 [Eh]
	 SCS Opposite-Spin Energy  =      -0.3979854976976205 [Eh]
	 SCS Correlation Energy    =      -0.4248264361348134 [Eh]
	 SCS Total Energy          =     -79.6505196962913686 [Eh]
	-----------------------------------------------------------

  Dipole Moment: [D]
     X:     0.0634      Y:     0.0596      Z:     0.0667     Total:     0.1096

*** Psi4 exiting successfully. Buy a developer a beer!
