                               Psi4 1.3.2 release

  ==> Input File <==

--------------------------------------------------------------------------
#psi4
#
memory 32 gb

molecule  {
0 1
  C       -0.0000300     0.0047370     0.7629490
  C        0.0000290    -0.0047360    -0.7629500
  H        0.7587389     0.6932536     1.1442952
  H       -0.9750100     0.3047700     1.1561430
  H        0.2297260    -0.9859220     1.1642350
  H       -0.2296570     0.9859320    -1.1642500
  H        0.9750020    -0.3048390    -1.1561240
  H       -0.7451930    -0.7026970    -1.1537350
units angstrom
no_reorient  #important for SAPT in psi4, default
symmetry c1  #important for SAPT in psi4, default
}

set PROPERTIES_ORIGIN ["COM"]
properties('MP2/aug-cc-pvtz', properties = ['dipole'])
--------------------------------------------------------------------------

    Molecular point group: c1
  Charge       = 0
  Multiplicity = 1
  Basis Set: AUG-CC-PVTZ
    Blend: AUG-CC-PVTZ
  Basis Set: (AUG-CC-PVTZ AUX)
    Blend: AUG-CC-PVTZ-JKFIT

    Orbital Energies [Eh]
    ---------------------

    Doubly Occupied:

       1A    -11.212249     2A    -11.211623     3A     -1.017282
       4A     -0.839910     5A     -0.597048     6A     -0.595368
       7A     -0.508872     8A     -0.486776     9A     -0.485052

  @DF-RHF Final Energy:   -79.26010654189967

   => Energetics <=

    Nuclear Repulsion Energy =             42.2421703294164246
    One-Electron Energy =                -189.0961955806257322
    Two-Electron Energy =                  67.5939187093096194
    Total Energy =                        -79.2601065418996740
  Basis Set: (AUG-CC-PVTZ AUX)
    Blend: AUG-CC-PVTZ-RI
    Molecular point group: c1

    Geometry (in Angstrom), charge = 0, multiplicity = 1:

       Center              X                  Y                   Z               Mass
    ------------   -----------------  -----------------  -----------------  -----------------
         C           -0.000485998840     0.005055327036     0.763265891910    12.000000000000
         C           -0.000426998840    -0.004417672964    -0.762633108090    12.000000000000
         H            0.758282901160     0.693571927036     1.144612091910     1.007825032230
         H           -0.975465998840     0.305088327036     1.156459891910     1.007825032230
         H            0.229270001160    -0.985603672964     1.164551891910     1.007825032230
         H           -0.230112998840     0.986250327036    -1.163933108090     1.007825032230
         H            0.974546001160    -0.304520672964    -1.155807108090     1.007825032230
         H           -0.745648998840    -0.702378672964    -1.153418108090     1.007825032230

  Basis Set: AUG-CC-PVTZ
    Blend: AUG-CC-PVTZ
  Basis Set: (AUG-CC-PVTZ AUX)
    Blend: AUG-CC-PVTZ-JKFIT
	 Reference Energy          =     -79.2601065418996740 [Eh]
	 Singles Energy            =      -0.0000000000000000 [Eh]
	 Same-Spin Energy          =      -0.0802291543145601 [Eh]
	 Opposite-Spin Energy      =      -0.3320510666027805 [Eh]
	 Correlation Energy        =      -0.4122802209173406 [Eh]
	 Total Energy              =     -79.6723867628170126 [Eh]

	 ================> DF-SCS-MP2 Energies <==================
	-----------------------------------------------------------
	 SCS Same-Spin Scale       =       0.3333333333333333 [-]
	 SCS Opposite-Spin Scale   =       1.2000000000000000 [-]
	 SCS Same-Spin Energy      =      -0.0267430514381867 [Eh]
	 SCS Opposite-Spin Energy  =      -0.3984612799233366 [Eh]
	 SCS Correlation Energy    =      -0.4252043313615233 [Eh]
	 SCS Total Energy          =     -79.6853108732612014 [Eh]
	-----------------------------------------------------------

  Dipole Moment: [D]
     X:     0.0034      Y:    -0.0034      Z:    -0.0007     Total:     0.0049

*** Psi4 exiting successfully. Buy a developer a beer!
