                               Psi4 1.4a3.dev225

  ==> Input File <==

--------------------------------------------------------------------------
#psi4
#
memory 32 gb

molecule  {
0 1
  C       -0.7629840     0.0000000    -0.0000020
  C        0.8129840     0.0000000    -0.0000010
  H       -1.1580530    -1.0189580     0.0291840
  H       -1.1580510     0.5347520     0.8678520
  H       -1.1580440     0.4842120    -0.8970350
  H        1.1580380    -0.4842010     0.8970430
  H        1.1580570    -0.5347620    -0.8678450
  H        1.1580520     1.0189580    -0.0291810
units angstrom
no_reorient  #important for SAPT in psi4, default
symmetry c1  #important for SAPT in psi4, default
}

set PROPERTIES_ORIGIN ["COM"]
properties('MP2/aug-cc-pvtz', properties = ['dipole'])
--------------------------------------------------------------------------

    Molecular point group: c1
  Charge       = 0
  Multiplicity = 1
  Basis Set: AUG-CC-PVTZ
    Blend: AUG-CC-PVTZ
  Basis Set: (AUG-CC-PVTZ AUX)
    Blend: AUG-CC-PVTZ-JKFIT

    Orbital Energies [Eh]
    ---------------------

    Doubly Occupied:

       1A    -11.213741     2A    -11.210100     3A     -1.009011
       4A     -0.844536     5A     -0.596296     6A     -0.596295
       7A     -0.494016     8A     -0.494015     9A     -0.491095

  @DF-RHF Final Energy:   -79.25840091902154

   => Energetics <=

    Nuclear Repulsion Energy =             41.8914420272214443
    One-Electron Energy =                -188.4014723228372645
    Two-Electron Energy =                  67.2516293765942805
    Total Energy =                        -79.2584009190215397
  Basis Set: (AUG-CC-PVTZ AUX)
    Blend: AUG-CC-PVTZ-RI
    Molecular point group: c1

    Geometry (in Angstrom), charge = 0, multiplicity = 1:

       Center              X                  Y                   Z               Mass
    ------------   -----------------  -----------------  -----------------  -----------------
         C           -0.782952715238    -0.000000033542    -0.000001405625    12.000000000000
         C            0.793015284762    -0.000000033542    -0.000000405625    12.000000000000
         H           -1.178021715238    -1.018958033542     0.029184594375     1.007825032230
         H           -1.178019715238     0.534751966458     0.867852594375     1.007825032230
         H           -1.178012715238     0.484211966458    -0.897034405625     1.007825032230
         H            1.138069284762    -0.484201033542     0.897043594375     1.007825032230
         H            1.138088284762    -0.534762033542    -0.867844405625     1.007825032230
         H            1.138083284762     1.018957966458    -0.029180405625     1.007825032230

  Basis Set: AUG-CC-PVTZ
    Blend: AUG-CC-PVTZ
  Basis Set: (AUG-CC-PVTZ AUX)
    Blend: AUG-CC-PVTZ-JKFIT
	 Reference Energy          =     -79.2584009190215397 [Eh]
	 Singles Energy            =      -0.0000000000000000 [Eh]
	 Same-Spin Energy          =      -0.0800445113064582 [Eh]
	 Opposite-Spin Energy      =      -0.3319871729011904 [Eh]
	 Correlation Energy        =      -0.4120316842076486 [Eh]
	 Total Energy              =     -79.6704326032291874 [Eh]

	 ================> DF-SCS-MP2 Energies <==================
	-----------------------------------------------------------
	 SCS Same-Spin Scale       =       0.3333333333333333 [-]
	 SCS Opposite-Spin Scale   =       1.2000000000000000 [-]
	 SCS Same-Spin Energy      =      -0.0266815037688194 [Eh]
	 SCS Opposite-Spin Energy  =      -0.3983846074814285 [Eh]
	 SCS Correlation Energy    =      -0.4250661112502478 [Eh]
	 SCS Total Energy          =     -79.6834670302717853 [Eh]
	-----------------------------------------------------------

  Dipole Moment: [D]
     X:     0.0098      Y:     0.0000      Z:     0.0000     Total:     0.0098

*** Psi4 exiting successfully. Buy a developer a beer!
