                               Psi4 1.3.2 release

  ==> Input File <==

--------------------------------------------------------------------------
#psi4
#
memory 32 gb

molecule  {
0 1
  C       -0.0000300     0.0047370     0.7629490
  C        0.0778417     0.0679173    -0.7596809
  H        0.7451420     0.7027450     1.1537350
  H       -0.9750100     0.3047700     1.1561430
  H        0.2297260    -0.9859220     1.1642350
  H       -0.2296570     0.9859320    -1.1642500
  H        0.9750020    -0.3048390    -1.1561240
  H       -0.7451930    -0.7026970    -1.1537350
units angstrom
no_reorient  #important for SAPT in psi4, default
symmetry c1  #important for SAPT in psi4, default
}

set PROPERTIES_ORIGIN ["COM"]
properties('MP2/aug-cc-pvtz', properties = ['dipole'])
--------------------------------------------------------------------------

    Molecular point group: c1
  Charge       = 0
  Multiplicity = 1
  Basis Set: AUG-CC-PVTZ
    Blend: AUG-CC-PVTZ
  Basis Set: (AUG-CC-PVTZ AUX)
    Blend: AUG-CC-PVTZ-JKFIT

    Orbital Energies [Eh]
    ---------------------

    Doubly Occupied:

       1A    -11.214161     2A    -11.212900     3A     -1.018268
       4A     -0.842161     5A     -0.611530     6A     -0.583942
       7A     -0.517292     8A     -0.501758     9A     -0.457818

  @DF-RHF Final Energy:   -79.24923344846603

   => Energetics <=

    Nuclear Repulsion Energy =             42.2378568200116788
    One-Electron Energy =                -189.0545201684871870
    Two-Electron Energy =                  67.5674299000094862
    Total Energy =                        -79.2492334484660290
  Basis Set: (AUG-CC-PVTZ AUX)
    Blend: AUG-CC-PVTZ-RI
    Molecular point group: c1

    Geometry (in Angstrom), charge = 0, multiplicity = 1:

       Center              X                  Y                   Z               Mass
    ------------   -----------------  -----------------  -----------------  -----------------
         C           -0.031106381205    -0.024278940331     0.761643668476    12.000000000000
         C            0.046765318795     0.038901359669    -0.760986231524    12.000000000000
         H            0.714065618795     0.673729059669     1.152429668476     1.007825032230
         H           -1.006086381205     0.275754059669     1.154837668476     1.007825032230
         H            0.198649618795    -1.014937940331     1.162929668476     1.007825032230
         H           -0.260733381205     0.956916059669    -1.165555331524     1.007825032230
         H            0.943925618795    -0.333854940331    -1.157429331524     1.007825032230
         H           -0.776269381205    -0.731712940331    -1.155040331524     1.007825032230

  Basis Set: AUG-CC-PVTZ
    Blend: AUG-CC-PVTZ
  Basis Set: (AUG-CC-PVTZ AUX)
    Blend: AUG-CC-PVTZ-JKFIT
	 Reference Energy          =     -79.2492334484660290 [Eh]
	 Singles Energy            =      -0.0000000000000000 [Eh]
	 Same-Spin Energy          =      -0.0803676276107728 [Eh]
	 Opposite-Spin Energy      =      -0.3325341940766656 [Eh]
	 Correlation Energy        =      -0.4129018216874384 [Eh]
	 Total Energy              =     -79.6621352701534704 [Eh]

	 ================> DF-SCS-MP2 Energies <==================
	-----------------------------------------------------------
	 SCS Same-Spin Scale       =       0.3333333333333333 [-]
	 SCS Opposite-Spin Scale   =       1.2000000000000000 [-]
	 SCS Same-Spin Energy      =      -0.0267892092035909 [Eh]
	 SCS Opposite-Spin Energy  =      -0.3990410328919987 [Eh]
	 SCS Correlation Energy    =      -0.4258302420955896 [Eh]
	 SCS Total Energy          =     -79.6750636905616147 [Eh]
	-----------------------------------------------------------

  Dipole Moment: [D]
     X:     0.0364      Y:     0.0341      Z:     0.0196     Total:     0.0536

*** Psi4 exiting successfully. Buy a developer a beer!
