                               Psi4 1.3.2 release

  ==> Input File <==

--------------------------------------------------------------------------
#psi4
#
memory 32 gb

molecule  {
0 1
  C       -0.0000300     0.0047370     0.7629490
  C        0.0000367    -0.0059776    -0.9629461
  H        0.7451420     0.7027450     1.1537350
  H       -0.9750100     0.3047700     1.1561430
  H        0.2297260    -0.9859220     1.1642350
  H       -0.2296570     0.9859320    -1.1642500
  H        0.9750020    -0.3048390    -1.1561240
  H       -0.7451930    -0.7026970    -1.1537350
units angstrom
no_reorient  #important for SAPT in psi4, default
symmetry c1  #important for SAPT in psi4, default
}

set PROPERTIES_ORIGIN ["COM"]
properties('MP2/aug-cc-pvtz', properties = ['dipole'])
--------------------------------------------------------------------------

    Molecular point group: c1
  Charge       = 0
  Multiplicity = 1
  Basis Set: AUG-CC-PVTZ
    Blend: AUG-CC-PVTZ
  Basis Set: (AUG-CC-PVTZ AUX)
    Blend: AUG-CC-PVTZ-JKFIT

    Orbital Energies [Eh]
    ---------------------

    Doubly Occupied:

       1A    -11.218341     2A    -11.209726     3A     -0.992049
       4A     -0.855066     5A     -0.602413     6A     -0.602411
       7A     -0.511310     8A     -0.511307     9A     -0.438457

  @DF-RHF Final Energy:   -79.23312520346502

   => Energetics <=

    Nuclear Repulsion Energy =             40.9231067435867857
    One-Electron Energy =                -186.4303051495246564
    Two-Electron Energy =                  66.2740732024728345
    Total Energy =                        -79.2331252034650220
  Basis Set: (AUG-CC-PVTZ AUX)
    Blend: AUG-CC-PVTZ-RI
    Molecular point group: c1

    Geometry (in Angstrom), charge = 0, multiplicity = 1:

       Center              X                  Y                   Z               Mass
    ------------   -----------------  -----------------  -----------------  -----------------
         C           -0.000033011229     0.005232833553     0.842822702764    12.000000000000
         C            0.000033688771    -0.005481766447    -0.883072397236    12.000000000000
         H            0.745138988771     0.703240833553     1.233608702764     1.007825032230
         H           -0.975013011229     0.305265833553     1.236016702764     1.007825032230
         H            0.229722988771    -0.985426166447     1.244108702764     1.007825032230
         H           -0.229660011229     0.986427833553    -1.084376297236     1.007825032230
         H            0.974998988771    -0.304343166447    -1.076250297236     1.007825032230
         H           -0.745196011229    -0.702201166447    -1.073861297236     1.007825032230

  Basis Set: AUG-CC-PVTZ
    Blend: AUG-CC-PVTZ
  Basis Set: (AUG-CC-PVTZ AUX)
    Blend: AUG-CC-PVTZ-JKFIT
	 Reference Energy          =     -79.2331252034650220 [Eh]
	 Singles Energy            =      -0.0000000000000000 [Eh]
	 Same-Spin Energy          =      -0.0802465809219219 [Eh]
	 Opposite-Spin Energy      =      -0.3333315454869548 [Eh]
	 Correlation Energy        =      -0.4135781264088767 [Eh]
	 Total Energy              =     -79.6467033298739011 [Eh]

	 ================> DF-SCS-MP2 Energies <==================
	-----------------------------------------------------------
	 SCS Same-Spin Scale       =       0.3333333333333333 [-]
	 SCS Opposite-Spin Scale   =       1.2000000000000000 [-]
	 SCS Same-Spin Energy      =      -0.0267488603073073 [Eh]
	 SCS Opposite-Spin Energy  =      -0.3999978545843457 [Eh]
	 SCS Correlation Energy    =      -0.4267467148916531 [Eh]
	 SCS Total Energy          =     -79.6598719183566715 [Eh]
	-----------------------------------------------------------

  Dipole Moment: [D]
     X:    -0.0000      Y:     0.0001      Z:     0.0082     Total:     0.0082

*** Psi4 exiting successfully. Buy a developer a beer!
