                               Psi4 1.3.2 release

  ==> Input File <==

--------------------------------------------------------------------------
#psi4
#
memory 32 gb

molecule  {
0 1
  C       -0.0000300     0.0047370     0.7629490
  C        0.1166294     0.1041507    -0.7552621
  H        0.7451420     0.7027450     1.1537350
  H       -0.9750100     0.3047700     1.1561430
  H        0.2297260    -0.9859220     1.1642350
  H       -0.2296570     0.9859320    -1.1642500
  H        0.9750020    -0.3048390    -1.1561240
  H       -0.7451930    -0.7026970    -1.1537350
units angstrom
no_reorient  #important for SAPT in psi4, default
symmetry c1  #important for SAPT in psi4, default
}

set PROPERTIES_ORIGIN ["COM"]
properties('MP2/aug-cc-pvtz', properties = ['dipole'])
--------------------------------------------------------------------------

    Molecular point group: c1
  Charge       = 0
  Multiplicity = 1
  Basis Set: AUG-CC-PVTZ
    Blend: AUG-CC-PVTZ
  Basis Set: (AUG-CC-PVTZ AUX)
    Blend: AUG-CC-PVTZ-JKFIT

    Orbital Energies [Eh]
    ---------------------

    Doubly Occupied:

       1A    -11.216742     2A    -11.214116     3A     -1.019545
       4A     -0.844151     5A     -0.620240     6A     -0.579528
       7A     -0.522354     8A     -0.507974     9A     -0.441549

  @DF-RHF Final Energy:   -79.23711400128518

   => Energetics <=

    Nuclear Repulsion Energy =             42.2338073476133715
    One-Electron Energy =                -189.0094454866516855
    Two-Electron Energy =                  67.5385241377531287
    Total Energy =                        -79.2371140012851782
  Basis Set: (AUG-CC-PVTZ AUX)
    Blend: AUG-CC-PVTZ-RI
    Molecular point group: c1

    Geometry (in Angstrom), charge = 0, multiplicity = 1:

       Center              X                  Y                   Z               Mass
    ------------   -----------------  -----------------  -----------------  -----------------
         C           -0.046597217945    -0.038749653571     0.759878910333    12.000000000000
         C            0.070062182055     0.060664046429    -0.758332189667    12.000000000000
         H            0.698574782055     0.659258346429     1.150664910333     1.007825032230
         H           -1.021577217945     0.261283346429     1.153072910333     1.007825032230
         H            0.183158782055    -1.029408653571     1.161164910333     1.007825032230
         H           -0.276224217945     0.942445346429    -1.167320089667     1.007825032230
         H            0.928434782055    -0.348325653571    -1.159194089667     1.007825032230
         H           -0.791760217945    -0.746183653571    -1.156805089667     1.007825032230

  Basis Set: AUG-CC-PVTZ
    Blend: AUG-CC-PVTZ
  Basis Set: (AUG-CC-PVTZ AUX)
    Blend: AUG-CC-PVTZ-JKFIT
	 Reference Energy          =     -79.2371140012851782 [Eh]
	 Singles Energy            =      -0.0000000000000000 [Eh]
	 Same-Spin Energy          =      -0.0805350432162010 [Eh]
	 Opposite-Spin Energy      =      -0.3331237843491544 [Eh]
	 Correlation Energy        =      -0.4136588275653554 [Eh]
	 Total Energy              =     -79.6507728288505348 [Eh]

	 ================> DF-SCS-MP2 Energies <==================
	-----------------------------------------------------------
	 SCS Same-Spin Scale       =       0.3333333333333333 [-]
	 SCS Opposite-Spin Scale   =       1.2000000000000000 [-]
	 SCS Same-Spin Energy      =      -0.0268450144054003 [Eh]
	 SCS Opposite-Spin Energy  =      -0.3997485412189853 [Eh]
	 SCS Correlation Energy    =      -0.4265935556243856 [Eh]
	 SCS Total Energy          =     -79.6637075569095572 [Eh]
	-----------------------------------------------------------

  Dipole Moment: [D]
     X:     0.0586      Y:     0.0550      Z:     0.0423     Total:     0.0908

*** Psi4 exiting successfully. Buy a developer a beer!
