                               Psi4 1.3.2 release

  ==> Input File <==

--------------------------------------------------------------------------
#psi4
#
memory 32 gb

molecule  {
0 1
  C       -0.0000300     0.0047370     0.7629490
  C        0.0000290    -0.0047360    -0.7629500
  H        0.6769812     0.6388983     1.1179899
  H       -0.9750100     0.3047700     1.1561430
  H        0.2297260    -0.9859220     1.1642350
  H       -0.2296570     0.9859320    -1.1642500
  H        0.9750020    -0.3048390    -1.1561240
  H       -0.7451930    -0.7026970    -1.1537350
units angstrom
no_reorient  #important for SAPT in psi4, default
symmetry c1  #important for SAPT in psi4, default
}

set PROPERTIES_ORIGIN ["COM"]
properties('MP2/aug-cc-pvtz', properties = ['dipole'])
--------------------------------------------------------------------------

    Molecular point group: c1
  Charge       = 0
  Multiplicity = 1
  Basis Set: AUG-CC-PVTZ
    Blend: AUG-CC-PVTZ
  Basis Set: (AUG-CC-PVTZ AUX)
    Blend: AUG-CC-PVTZ-JKFIT

    Orbital Energies [Eh]
    ---------------------

    Doubly Occupied:

       1A    -11.210896     2A    -11.199102     3A     -1.022238
       4A     -0.848379     5A     -0.606555     6A     -0.594804
       7A     -0.510348     8A     -0.493605     9A     -0.484744

  @DF-RHF Final Energy:   -79.25388837374915

   => Energetics <=

    Nuclear Repulsion Energy =             42.6232954296718418
    One-Electron Energy =                -189.8130269635243792
    Two-Electron Energy =                  67.9358431601033743
    Total Energy =                        -79.2538883737491489
  Basis Set: (AUG-CC-PVTZ AUX)
    Blend: AUG-CC-PVTZ-RI
    Molecular point group: c1

    Geometry (in Angstrom), charge = 0, multiplicity = 1:

       Center              X                  Y                   Z               Mass
    ------------   -----------------  -----------------  -----------------  -----------------
         C            0.002256291346     0.006878494832     0.764148215728    12.000000000000
         C            0.002315291346    -0.002594505168    -0.761750784272    12.000000000000
         H            0.679267491346     0.641039794832     1.119189115728     1.007825032230
         H           -0.972723708654     0.306911494832     1.157342215728     1.007825032230
         H            0.232012291346    -0.983780505168     1.165434215728     1.007825032230
         H           -0.227370708654     0.988073494832    -1.163050784272     1.007825032230
         H            0.977288291346    -0.302697505168    -1.154924784272     1.007825032230
         H           -0.742906708654    -0.700555505168    -1.152535784272     1.007825032230

  Basis Set: AUG-CC-PVTZ
    Blend: AUG-CC-PVTZ
  Basis Set: (AUG-CC-PVTZ AUX)
    Blend: AUG-CC-PVTZ-JKFIT
	 Reference Energy          =     -79.2538883737491489 [Eh]
	 Singles Energy            =      -0.0000000000000000 [Eh]
	 Same-Spin Energy          =      -0.0803495223106482 [Eh]
	 Opposite-Spin Energy      =      -0.3316792931935447 [Eh]
	 Correlation Energy        =      -0.4120288155041930 [Eh]
	 Total Energy              =     -79.6659171892533351 [Eh]

	 ================> DF-SCS-MP2 Energies <==================
	-----------------------------------------------------------
	 SCS Same-Spin Scale       =       0.3333333333333333 [-]
	 SCS Opposite-Spin Scale   =       1.2000000000000000 [-]
	 SCS Same-Spin Energy      =      -0.0267831741035494 [Eh]
	 SCS Opposite-Spin Energy  =      -0.3980151518322537 [Eh]
	 SCS Correlation Energy    =      -0.4247983259358031 [Eh]
	 SCS Total Energy          =     -79.6786866996849454 [Eh]
	-----------------------------------------------------------

  Dipole Moment: [D]
     X:     0.0379      Y:     0.0356      Z:     0.0383     Total:     0.0645

*** Psi4 exiting successfully. Buy a developer a beer!
