                               Psi4 1.3.2 release

  ==> Input File <==

--------------------------------------------------------------------------
#psi4
#
memory 32 gb

molecule  {
0 1
  C       -0.0000300     0.0047370     0.7629490
  C        0.0000290    -0.0047360    -0.7629500
  H        0.7981265     0.6635328     1.1152903
  H       -0.9750100     0.3047700     1.1561430
  H        0.2297260    -0.9859220     1.1642350
  H       -0.2296570     0.9859320    -1.1642500
  H        0.9750020    -0.3048390    -1.1561240
  H       -0.7451930    -0.7026970    -1.1537350
units angstrom
no_reorient  #important for SAPT in psi4, default
symmetry c1  #important for SAPT in psi4, default
}

set PROPERTIES_ORIGIN ["COM"]
properties('MP2/aug-cc-pvtz', properties = ['dipole'])
--------------------------------------------------------------------------

    Molecular point group: c1
  Charge       = 0
  Multiplicity = 1
  Basis Set: AUG-CC-PVTZ
    Blend: AUG-CC-PVTZ
  Basis Set: (AUG-CC-PVTZ AUX)
    Blend: AUG-CC-PVTZ-JKFIT

    Orbital Energies [Eh]
    ---------------------

    Doubly Occupied:

       1A    -11.212211     2A    -11.211359     3A     -1.017626
       4A     -0.839142     5A     -0.600397     6A     -0.593646
       7A     -0.507610     8A     -0.489305     9A     -0.482383

  @DF-RHF Final Energy:   -79.25956692560086

   => Energetics <=

    Nuclear Repulsion Energy =             42.2584538098558653
    One-Electron Energy =                -189.1286850276071902
    Two-Electron Energy =                  67.6106642921504601
    Total Energy =                        -79.2595669256008648
  Basis Set: (AUG-CC-PVTZ AUX)
    Blend: AUG-CC-PVTZ-RI
    Molecular point group: c1

    Geometry (in Angstrom), charge = 0, multiplicity = 1:

       Center              X                  Y                   Z               Mass
    ------------   -----------------  -----------------  -----------------  -----------------
         C           -0.001807124910     0.006052212444     0.764238764834    12.000000000000
         C           -0.001748124910    -0.003420787556    -0.761660235166    12.000000000000
         H            0.796349375090     0.664848012444     1.116580064834     1.007825032230
         H           -0.976787124910     0.306085212444     1.157432764834     1.007825032230
         H            0.227948875090    -0.984606787556     1.165524764834     1.007825032230
         H           -0.231434124910     0.987247212444    -1.162960235166     1.007825032230
         H            0.973224875090    -0.303523787556    -1.154834235166     1.007825032230
         H           -0.746970124910    -0.701381787556    -1.152445235166     1.007825032230

  Basis Set: AUG-CC-PVTZ
    Blend: AUG-CC-PVTZ
  Basis Set: (AUG-CC-PVTZ AUX)
    Blend: AUG-CC-PVTZ-JKFIT
	 Reference Energy          =     -79.2595669256008648 [Eh]
	 Singles Energy            =      -0.0000000000000000 [Eh]
	 Same-Spin Energy          =      -0.0802503738156723 [Eh]
	 Opposite-Spin Energy      =      -0.3320989267606812 [Eh]
	 Correlation Energy        =      -0.4123493005763536 [Eh]
	 Total Energy              =     -79.6719162261772169 [Eh]

	 ================> DF-SCS-MP2 Energies <==================
	-----------------------------------------------------------
	 SCS Same-Spin Scale       =       0.3333333333333333 [-]
	 SCS Opposite-Spin Scale   =       1.2000000000000000 [-]
	 SCS Same-Spin Energy      =      -0.0267501246052241 [Eh]
	 SCS Opposite-Spin Energy  =      -0.3985187121128174 [Eh]
	 SCS Correlation Energy    =      -0.4252688367180416 [Eh]
	 SCS Total Energy          =     -79.6848357623189116 [Eh]
	-----------------------------------------------------------

  Dipole Moment: [D]
     X:     0.0127      Y:    -0.0138      Z:    -0.0029     Total:     0.0190

*** Psi4 exiting successfully. Buy a developer a beer!
