                               Psi4 1.3.2 release

  ==> Input File <==

--------------------------------------------------------------------------
#psi4
#
memory 32 gb

molecule  {
0 1
  C       -0.0000300     0.0047370     0.7629490
  C        0.0000290    -0.0047360    -0.7629500
  H        0.8814635     0.8304383     1.2252253
  H       -0.9750100     0.3047700     1.1561430
  H        0.2297260    -0.9859220     1.1642350
  H       -0.2296570     0.9859320    -1.1642500
  H        0.9750020    -0.3048390    -1.1561240
  H       -0.7451930    -0.7026970    -1.1537350
units angstrom
no_reorient  #important for SAPT in psi4, default
symmetry c1  #important for SAPT in psi4, default
}

set PROPERTIES_ORIGIN ["COM"]
properties('MP2/aug-cc-pvtz', properties = ['dipole'])
--------------------------------------------------------------------------

    Molecular point group: c1
  Charge       = 0
  Multiplicity = 1
  Basis Set: AUG-CC-PVTZ
    Blend: AUG-CC-PVTZ
  Basis Set: (AUG-CC-PVTZ AUX)
    Blend: AUG-CC-PVTZ-JKFIT

    Orbital Energies [Eh]
    ---------------------

    Doubly Occupied:

       1A    -11.236108     2A    -11.215179     3A     -1.013351
       4A     -0.830875     5A     -0.599594     6A     -0.581771
       7A     -0.511925     8A     -0.489291     9A     -0.461126

  @DF-RHF Final Energy:   -79.24058287871836

   => Energetics <=

    Nuclear Repulsion Energy =             41.6129419120680666
    One-Electron Energy =                -187.8286090912250472
    Two-Electron Energy =                  66.9750843004386240
    Total Energy =                        -79.2405828787183566
  Basis Set: (AUG-CC-PVTZ AUX)
    Blend: AUG-CC-PVTZ-RI
    Molecular point group: c1

    Geometry (in Angstrom), charge = 0, multiplicity = 1:

       Center              X                  Y                   Z               Mass
    ------------   -----------------  -----------------  -----------------  -----------------
         C           -0.004602387464     0.000453922440     0.760551360814    12.000000000000
         C           -0.004543387464    -0.009019077560    -0.765347639186    12.000000000000
         H            0.876891112536     0.826155222440     1.222827660814     1.007825032230
         H           -0.979582387464     0.300486922440     1.153745360814     1.007825032230
         H            0.225153612536    -0.990205077560     1.161837360814     1.007825032230
         H           -0.234229387464     0.981648922440    -1.166647639186     1.007825032230
         H            0.970429612536    -0.309122077560    -1.158521639186     1.007825032230
         H           -0.749765387464    -0.706980077560    -1.156132639186     1.007825032230

  Basis Set: AUG-CC-PVTZ
    Blend: AUG-CC-PVTZ
  Basis Set: (AUG-CC-PVTZ AUX)
    Blend: AUG-CC-PVTZ-JKFIT
	 Reference Energy          =     -79.2405828787183566 [Eh]
	 Singles Energy            =      -0.0000000000000000 [Eh]
	 Same-Spin Energy          =      -0.0800092364822813 [Eh]
	 Opposite-Spin Energy      =      -0.3333608485884795 [Eh]
	 Correlation Energy        =      -0.4133700850707608 [Eh]
	 Total Energy              =     -79.6539529637891235 [Eh]

	 ================> DF-SCS-MP2 Energies <==================
	-----------------------------------------------------------
	 SCS Same-Spin Scale       =       0.3333333333333333 [-]
	 SCS Opposite-Spin Scale   =       1.2000000000000000 [-]
	 SCS Same-Spin Energy      =      -0.0266697454940938 [Eh]
	 SCS Opposite-Spin Energy  =      -0.4000330183061754 [Eh]
	 SCS Correlation Energy    =      -0.4267027638002692 [Eh]
	 SCS Total Energy          =     -79.6672856425186211 [Eh]
	-----------------------------------------------------------

  Dipole Moment: [D]
     X:    -0.1099      Y:    -0.1033      Z:    -0.1047     Total:     0.1836

*** Psi4 exiting successfully. Buy a developer a beer!
