                               Psi4 1.4a3.dev225

  ==> Input File <==

--------------------------------------------------------------------------
#psi4
#
memory 32 gb

molecule  {
0 1
  C       -0.7629840     0.0000000    -0.0000020
  C        0.7829840     0.0000000    -0.0000010
  H       -1.1580530    -1.0189580     0.0291840
  H       -1.1580510     0.5347520     0.8678520
  H       -1.1580440     0.4842120    -0.8970350
  H        1.1580380    -0.4842010     0.8970430
  H        1.1580570    -0.5347620    -0.8678450
  H        1.1580520     1.0189580    -0.0291810
units angstrom
no_reorient  #important for SAPT in psi4, default
symmetry c1  #important for SAPT in psi4, default
}

set PROPERTIES_ORIGIN ["COM"]
properties('MP2/aug-cc-pvtz', properties = ['dipole'])
--------------------------------------------------------------------------

    Molecular point group: c1
  Charge       = 0
  Multiplicity = 1
  Basis Set: AUG-CC-PVTZ
    Blend: AUG-CC-PVTZ
  Basis Set: (AUG-CC-PVTZ AUX)
    Blend: AUG-CC-PVTZ-JKFIT

    Orbital Energies [Eh]
    ---------------------

    Doubly Occupied:

       1A    -11.212750     2A    -11.211091     3A     -1.013732
       4A     -0.841984     5A     -0.595964     6A     -0.595963
       7A     -0.502043     8A     -0.489263     9A     -0.489262

  @DF-RHF Final Energy:   -79.25996456121020

   => Energetics <=

    Nuclear Repulsion Energy =             42.0966918156356442
    One-Electron Energy =                -188.8092086796023636
    Two-Electron Energy =                  67.4525523027565299
    Total Energy =                        -79.2599645612101966
  Basis Set: (AUG-CC-PVTZ AUX)
    Blend: AUG-CC-PVTZ-RI
    Molecular point group: c1

    Geometry (in Angstrom), charge = 0, multiplicity = 1:

       Center              X                  Y                   Z               Mass
    ------------   -----------------  -----------------  -----------------  -----------------
         C           -0.770971465970    -0.000000033542    -0.000001405625    12.000000000000
         C            0.774996534030    -0.000000033542    -0.000000405625    12.000000000000
         H           -1.166040465970    -1.018958033542     0.029184594375     1.007825032230
         H           -1.166038465970     0.534751966458     0.867852594375     1.007825032230
         H           -1.166031465970     0.484211966458    -0.897034405625     1.007825032230
         H            1.150050534030    -0.484201033542     0.897043594375     1.007825032230
         H            1.150069534030    -0.534762033542    -0.867844405625     1.007825032230
         H            1.150064534030     1.018957966458    -0.029180405625     1.007825032230

  Basis Set: AUG-CC-PVTZ
    Blend: AUG-CC-PVTZ
  Basis Set: (AUG-CC-PVTZ AUX)
    Blend: AUG-CC-PVTZ-JKFIT
	 Reference Energy          =     -79.2599645612101966 [Eh]
	 Singles Energy            =      -0.0000000000000000 [Eh]
	 Same-Spin Energy          =      -0.0801375896449468 [Eh]
	 Opposite-Spin Energy      =      -0.3319889122014858 [Eh]
	 Correlation Energy        =      -0.4121265018464326 [Eh]
	 Total Energy              =     -79.6720910630566266 [Eh]

	 ================> DF-SCS-MP2 Energies <==================
	-----------------------------------------------------------
	 SCS Same-Spin Scale       =       0.3333333333333333 [-]
	 SCS Opposite-Spin Scale   =       1.2000000000000000 [-]
	 SCS Same-Spin Energy      =      -0.0267125298816489 [Eh]
	 SCS Opposite-Spin Energy  =      -0.3983866946417829 [Eh]
	 SCS Correlation Energy    =      -0.4250992245234319 [Eh]
	 SCS Total Energy          =     -79.6850637857336324 [Eh]
	-----------------------------------------------------------

  Dipole Moment: [D]
     X:     0.0047      Y:     0.0000      Z:     0.0000     Total:     0.0047

*** Psi4 exiting successfully. Buy a developer a beer!
