                               Psi4 1.3.2 release

  ==> Input File <==

--------------------------------------------------------------------------
#psi4
#
memory 32 gb

molecule  {
0 1
  C       -0.0000300     0.0047370     0.7629490
  C        0.0000290    -0.0047360    -0.7629500
  H        0.7172715     0.7210872     1.1722547
  H       -0.9750100     0.3047700     1.1561430
  H        0.2297260    -0.9859220     1.1642350
  H       -0.2296570     0.9859320    -1.1642500
  H        0.9750020    -0.3048390    -1.1561240
  H       -0.7451930    -0.7026970    -1.1537350
units angstrom
no_reorient  #important for SAPT in psi4, default
symmetry c1  #important for SAPT in psi4, default
}

set PROPERTIES_ORIGIN ["COM"]
properties('MP2/aug-cc-pvtz', properties = ['dipole'])
--------------------------------------------------------------------------

    Molecular point group: c1
  Charge       = 0
  Multiplicity = 1
  Basis Set: AUG-CC-PVTZ
    Blend: AUG-CC-PVTZ
  Basis Set: (AUG-CC-PVTZ AUX)
    Blend: AUG-CC-PVTZ-JKFIT

    Orbital Energies [Eh]
    ---------------------

    Doubly Occupied:

       1A    -11.212446     2A    -11.211766     3A     -1.017022
       4A     -0.840751     5A     -0.597177     6A     -0.593841
       7A     -0.510460     8A     -0.487291     9A     -0.483844

  @DF-RHF Final Energy:   -79.26000990826789

   => Energetics <=

    Nuclear Repulsion Energy =             42.2276558664807666
    One-Electron Energy =                -189.0661320609437723
    Two-Electron Energy =                  67.5784662861951091
    Total Energy =                        -79.2600099082678895
  Basis Set: (AUG-CC-PVTZ AUX)
    Blend: AUG-CC-PVTZ-RI
    Molecular point group: c1

    Geometry (in Angstrom), charge = 0, multiplicity = 1:

       Center              X                  Y                   Z               Mass
    ------------   -----------------  -----------------  -----------------  -----------------
         C            0.000904887206     0.004121741476     0.762328083453    12.000000000000
         C            0.000963887206    -0.005351258524    -0.763570916547    12.000000000000
         H            0.718206387206     0.720471941476     1.171633783453     1.007825032230
         H           -0.974075112794     0.304154741476     1.155522083453     1.007825032230
         H            0.230660887206    -0.986537258524     1.163614083453     1.007825032230
         H           -0.228722112794     0.985316741476    -1.164870916547     1.007825032230
         H            0.975936887206    -0.305454258524    -1.156744916547     1.007825032230
         H           -0.744258112794    -0.703312258524    -1.154355916547     1.007825032230

  Basis Set: AUG-CC-PVTZ
    Blend: AUG-CC-PVTZ
  Basis Set: (AUG-CC-PVTZ AUX)
    Blend: AUG-CC-PVTZ-JKFIT
	 Reference Energy          =     -79.2600099082678895 [Eh]
	 Singles Energy            =      -0.0000000000000000 [Eh]
	 Same-Spin Energy          =      -0.0802351020839858 [Eh]
	 Opposite-Spin Energy      =      -0.3320422275460241 [Eh]
	 Correlation Energy        =      -0.4122773296300098 [Eh]
	 Total Energy              =     -79.6722872378979048 [Eh]

	 ================> DF-SCS-MP2 Energies <==================
	-----------------------------------------------------------
	 SCS Same-Spin Scale       =       0.3333333333333333 [-]
	 SCS Opposite-Spin Scale   =       1.2000000000000000 [-]
	 SCS Same-Spin Energy      =      -0.0267450340279953 [Eh]
	 SCS Opposite-Spin Energy  =      -0.3984506730552289 [Eh]
	 SCS Correlation Energy    =      -0.4251957070832242 [Eh]
	 SCS Total Energy          =     -79.6852056153511086 [Eh]
	-----------------------------------------------------------

  Dipole Moment: [D]
     X:    -0.0075      Y:     0.0068      Z:     0.0015     Total:     0.0102

*** Psi4 exiting successfully. Buy a developer a beer!
