                               Psi4 1.3.2 release

  ==> Input File <==

--------------------------------------------------------------------------
#psi4
#
memory 32 gb

molecule  {
0 1
  C       -0.0000300     0.0047370     0.7629490
  C       -0.0389012    -0.0410675    -0.7617964
  H        0.7451420     0.7027450     1.1537350
  H       -0.9750100     0.3047700     1.1561430
  H        0.2297260    -0.9859220     1.1642350
  H       -0.2296570     0.9859320    -1.1642500
  H        0.9750020    -0.3048390    -1.1561240
  H       -0.7451930    -0.7026970    -1.1537350
units angstrom
no_reorient  #important for SAPT in psi4, default
symmetry c1  #important for SAPT in psi4, default
}

set PROPERTIES_ORIGIN ["COM"]
properties('MP2/aug-cc-pvtz', properties = ['dipole'])
--------------------------------------------------------------------------

    Molecular point group: c1
  Charge       = 0
  Multiplicity = 1
  Basis Set: AUG-CC-PVTZ
    Blend: AUG-CC-PVTZ
  Basis Set: (AUG-CC-PVTZ AUX)
    Blend: AUG-CC-PVTZ-JKFIT

    Orbital Energies [Eh]
    ---------------------

    Doubly Occupied:

       1A    -11.212705     2A    -11.212048     3A     -1.017477
       4A     -0.840856     5A     -0.602940     6A     -0.589823
       7A     -0.514489     8A     -0.489295     9A     -0.476173

  @DF-RHF Final Energy:   -79.25692924758242

   => Energetics <=

    Nuclear Repulsion Energy =             42.2388675078243452
    One-Electron Energy =                -189.0799790119829993
    Two-Electron Energy =                  67.5841822565762271
    Total Energy =                        -79.2569292475824199
  Basis Set: (AUG-CC-PVTZ AUX)
    Blend: AUG-CC-PVTZ-RI
    Molecular point group: c1

    Geometry (in Angstrom), charge = 0, multiplicity = 1:

       Center              X                  Y                   Z               Mass
    ------------   -----------------  -----------------  -----------------  -----------------
         C            0.015517811633     0.019246861509     0.762488546236    12.000000000000
         C           -0.023353388367    -0.026557638491    -0.762256853764    12.000000000000
         H            0.760689811633     0.717254861509     1.153274546236     1.007825032230
         H           -0.959462188367     0.319279861509     1.155682546236     1.007825032230
         H            0.245273811633    -0.971412138491     1.163774546236     1.007825032230
         H           -0.214109188367     1.000441861509    -1.164710453764     1.007825032230
         H            0.990549811633    -0.290329138491    -1.156584453764     1.007825032230
         H           -0.729645188367    -0.688187138491    -1.154195453764     1.007825032230

  Basis Set: AUG-CC-PVTZ
    Blend: AUG-CC-PVTZ
  Basis Set: (AUG-CC-PVTZ AUX)
    Blend: AUG-CC-PVTZ-JKFIT
	 Reference Energy          =     -79.2569292475824199 [Eh]
	 Singles Energy            =      -0.0000000000000000 [Eh]
	 Same-Spin Energy          =      -0.0802656301148690 [Eh]
	 Opposite-Spin Energy      =      -0.3321762676467851 [Eh]
	 Correlation Energy        =      -0.4124418977616541 [Eh]
	 Total Energy              =     -79.6693711453440727 [Eh]

	 ================> DF-SCS-MP2 Energies <==================
	-----------------------------------------------------------
	 SCS Same-Spin Scale       =       0.3333333333333333 [-]
	 SCS Opposite-Spin Scale   =       1.2000000000000000 [-]
	 SCS Same-Spin Energy      =      -0.0267552100382897 [Eh]
	 SCS Opposite-Spin Energy  =      -0.3986115211761421 [Eh]
	 SCS Correlation Energy    =      -0.4253667312144318 [Eh]
	 SCS Total Energy          =     -79.6822959787968585 [Eh]
	-----------------------------------------------------------

  Dipole Moment: [D]
     X:    -0.0123      Y:    -0.0114      Z:     0.0055     Total:     0.0177

*** Psi4 exiting successfully. Buy a developer a beer!
