                               Psi4 1.4a3.dev225

  ==> Input File <==

--------------------------------------------------------------------------
#psi4
#
memory 32 gb

molecule  {
0 1
  C       -0.7629840     0.0000000    -0.0000020
  C        0.7629840     0.0000000    -0.0000010
  H       -1.1652804    -1.0375988     0.0297179
  H       -1.1580510     0.5347520     0.8678520
  H       -1.1580440     0.4842120    -0.8970350
  H        1.1580380    -0.4842010     0.8970430
  H        1.1580570    -0.5347620    -0.8678450
  H        1.1580520     1.0189580    -0.0291810
units angstrom
no_reorient  #important for SAPT in psi4, default
symmetry c1  #important for SAPT in psi4, default
}

set PROPERTIES_ORIGIN ["COM"]
properties('MP2/aug-cc-pvtz', properties = ['dipole'])
--------------------------------------------------------------------------

    Molecular point group: c1
  Charge       = 0
  Multiplicity = 1
  Basis Set: AUG-CC-PVTZ
    Blend: AUG-CC-PVTZ
  Basis Set: (AUG-CC-PVTZ AUX)
    Blend: AUG-CC-PVTZ-JKFIT

    Orbital Energies [Eh]
    ---------------------

    Doubly Occupied:

       1A    -11.214560     2A    -11.212211     3A     -1.016463
       4A     -0.838841     5A     -0.596246     6A     -0.594102
       7A     -0.509389     8A     -0.486121     9A     -0.483852

  @DF-RHF Final Energy:   -79.25967139504868

   => Energetics <=

    Nuclear Repulsion Energy =             42.1664129908666894
    One-Electron Energy =                -188.9485971017172119
    Two-Electron Energy =                  67.5225127158018381
    Total Energy =                        -79.2596713950486844
  Basis Set: (AUG-CC-PVTZ AUX)
    Blend: AUG-CC-PVTZ-RI
    Molecular point group: c1

    Geometry (in Angstrom), charge = 0, multiplicity = 1:

       Center              X                  Y                   Z               Mass
    ------------   -----------------  -----------------  -----------------  -----------------
         C           -0.762741547358     0.000625210110    -0.000019313525    12.000000000000
         C            0.763226452642     0.000625210110    -0.000018313525    12.000000000000
         H           -1.165037947358    -1.036973589890     0.029700586475     1.007825032230
         H           -1.157808547358     0.535377210110     0.867834686475     1.007825032230
         H           -1.157801547358     0.484837210110    -0.897052313525     1.007825032230
         H            1.158280452642    -0.483575789890     0.897025686475     1.007825032230
         H            1.158299452642    -0.534136789890    -0.867862313525     1.007825032230
         H            1.158294452642     1.019583210110    -0.029198313525     1.007825032230

  Basis Set: AUG-CC-PVTZ
    Blend: AUG-CC-PVTZ
  Basis Set: (AUG-CC-PVTZ AUX)
    Blend: AUG-CC-PVTZ-JKFIT
	 Reference Energy          =     -79.2596713950486844 [Eh]
	 Singles Energy            =      -0.0000000000000000 [Eh]
	 Same-Spin Energy          =      -0.0802068735360584 [Eh]
	 Opposite-Spin Energy      =      -0.3321474023594910 [Eh]
	 Correlation Energy        =      -0.4123542758955494 [Eh]
	 Total Energy              =     -79.6720256709442367 [Eh]

	 ================> DF-SCS-MP2 Energies <==================
	-----------------------------------------------------------
	 SCS Same-Spin Scale       =       0.3333333333333333 [-]
	 SCS Opposite-Spin Scale   =       1.2000000000000000 [-]
	 SCS Same-Spin Energy      =      -0.0267356245120195 [Eh]
	 SCS Opposite-Spin Energy  =      -0.3985768828313891 [Eh]
	 SCS Correlation Energy    =      -0.4253125073434086 [Eh]
	 SCS Total Energy          =     -79.6849839023920907 [Eh]
	-----------------------------------------------------------

  Dipole Moment: [D]
     X:     0.0089      Y:     0.0123      Z:    -0.0003     Total:     0.0152

*** Psi4 exiting successfully. Buy a developer a beer!
