                               Psi4 1.4a3.dev225

  ==> Input File <==

--------------------------------------------------------------------------
#psi4
#
memory 32 gb

molecule  {
0 1
  C       -0.7629840     0.0000000    -0.0000020
  C        0.7629840     0.0000000    -0.0000010
  H       -1.1508256    -1.0003172     0.0286501
  H       -1.1580510     0.5347520     0.8678520
  H       -1.1580440     0.4842120    -0.8970350
  H        1.1580380    -0.4842010     0.8970430
  H        1.1580570    -0.5347620    -0.8678450
  H        1.1580520     1.0189580    -0.0291810
units angstrom
no_reorient  #important for SAPT in psi4, default
symmetry c1  #important for SAPT in psi4, default
}

set PROPERTIES_ORIGIN ["COM"]
properties('MP2/aug-cc-pvtz', properties = ['dipole'])
--------------------------------------------------------------------------

    Molecular point group: c1
  Charge       = 0
  Multiplicity = 1
  Basis Set: AUG-CC-PVTZ
    Blend: AUG-CC-PVTZ
  Basis Set: (AUG-CC-PVTZ AUX)
    Blend: AUG-CC-PVTZ-JKFIT

    Orbital Energies [Eh]
    ---------------------

    Doubly Occupied:

       1A    -11.211784     2A    -11.209402     3A     -1.017986
       4A     -0.841623     5A     -0.597916     6A     -0.595696
       7A     -0.509379     8A     -0.487712     9A     -0.485597

  @DF-RHF Final Energy:   -79.26012897339443

   => Energetics <=

    Nuclear Repulsion Energy =             42.3093835355194372
    One-Electron Energy =                -189.2248334131672891
    Two-Electron Energy =                  67.6553209042534291
    Total Energy =                        -79.2601289733944299
  Basis Set: (AUG-CC-PVTZ AUX)
    Blend: AUG-CC-PVTZ-RI
    Molecular point group: c1

    Geometry (in Angstrom), charge = 0, multiplicity = 1:

       Center              X                  Y                   Z               Mass
    ------------   -----------------  -----------------  -----------------  -----------------
         C           -0.763226385559    -0.000625277193     0.000016502275    12.000000000000
         C            0.762741614441    -0.000625277193     0.000017502275    12.000000000000
         H           -1.151067985559    -1.000942477193     0.028668602275     1.007825032230
         H           -1.158293385559     0.534126722807     0.867870502275     1.007825032230
         H           -1.158286385559     0.483586722807    -0.897016497725     1.007825032230
         H            1.157795614441    -0.484826277193     0.897061502275     1.007825032230
         H            1.157814614441    -0.535387277193    -0.867826497725     1.007825032230
         H            1.157809614441     1.018332722807    -0.029162497725     1.007825032230

  Basis Set: AUG-CC-PVTZ
    Blend: AUG-CC-PVTZ
  Basis Set: (AUG-CC-PVTZ AUX)
    Blend: AUG-CC-PVTZ-JKFIT
	 Reference Energy          =     -79.2601289733944299 [Eh]
	 Singles Energy            =      -0.0000000000000000 [Eh]
	 Same-Spin Energy          =      -0.0802495841194552 [Eh]
	 Opposite-Spin Energy      =      -0.3319488821054433 [Eh]
	 Correlation Energy        =      -0.4121984662248985 [Eh]
	 Total Energy              =     -79.6723274396193233 [Eh]

	 ================> DF-SCS-MP2 Energies <==================
	-----------------------------------------------------------
	 SCS Same-Spin Scale       =       0.3333333333333333 [-]
	 SCS Opposite-Spin Scale   =       1.2000000000000000 [-]
	 SCS Same-Spin Energy      =      -0.0267498613731517 [Eh]
	 SCS Opposite-Spin Energy  =      -0.3983386585265320 [Eh]
	 SCS Correlation Energy    =      -0.4250885198996837 [Eh]
	 SCS Total Energy          =     -79.6852174932941182 [Eh]
	-----------------------------------------------------------

  Dipole Moment: [D]
     X:    -0.0085      Y:    -0.0117      Z:     0.0003     Total:     0.0144

*** Psi4 exiting successfully. Buy a developer a beer!
