                               Psi4 1.3.2 release

  ==> Input File <==

--------------------------------------------------------------------------
#psi4
#
memory 32 gb

molecule  {
0 1
  C       -0.0000300     0.0047370     0.7629490
  C        0.0000290    -0.0047360    -0.7629500
  H        0.6885271     0.7385565     1.1902758
  H       -0.9750100     0.3047700     1.1561430
  H        0.2297260    -0.9859220     1.1642350
  H       -0.2296570     0.9859320    -1.1642500
  H        0.9750020    -0.3048390    -1.1561240
  H       -0.7451930    -0.7026970    -1.1537350
units angstrom
no_reorient  #important for SAPT in psi4, default
symmetry c1  #important for SAPT in psi4, default
}

set PROPERTIES_ORIGIN ["COM"]
properties('MP2/aug-cc-pvtz', properties = ['dipole'])
--------------------------------------------------------------------------

    Molecular point group: c1
  Charge       = 0
  Multiplicity = 1
  Basis Set: AUG-CC-PVTZ
    Blend: AUG-CC-PVTZ
  Basis Set: (AUG-CC-PVTZ AUX)
    Blend: AUG-CC-PVTZ-JKFIT

    Orbital Energies [Eh]
    ---------------------

    Doubly Occupied:

       1A    -11.212661     2A    -11.211796     3A     -1.016895
       4A     -0.841356     5A     -0.598433     6A     -0.591790
       7A     -0.511670     8A     -0.488565     9A     -0.481667

  @DF-RHF Final Energy:   -79.25959262804298

   => Energetics <=

    Nuclear Repulsion Energy =             42.2189620899788594
    One-Electron Energy =                -189.0474426617809911
    Two-Electron Energy =                  67.5688879437591368
    Total Energy =                        -79.2595926280429808
  Basis Set: (AUG-CC-PVTZ AUX)
    Blend: AUG-CC-PVTZ-RI
    Molecular point group: c1

    Geometry (in Angstrom), charge = 0, multiplicity = 1:

       Center              X                  Y                   Z               Mass
    ------------   -----------------  -----------------  -----------------  -----------------
         C            0.001869022523     0.003535791896     0.761723625578    12.000000000000
         C            0.001928022523    -0.005937208104    -0.764175374422    12.000000000000
         H            0.690426122523     0.737355291896     1.189050425578     1.007825032230
         H           -0.973110977477     0.303568791896     1.154917625578     1.007825032230
         H            0.231625022523    -0.987123208104     1.163009625578     1.007825032230
         H           -0.227757977477     0.984730791896    -1.165475374422     1.007825032230
         H            0.976901022523    -0.306040208104    -1.157349374422     1.007825032230
         H           -0.743293977477    -0.703898208104    -1.154960374422     1.007825032230

  Basis Set: AUG-CC-PVTZ
    Blend: AUG-CC-PVTZ
  Basis Set: (AUG-CC-PVTZ AUX)
    Blend: AUG-CC-PVTZ-JKFIT
	 Reference Energy          =     -79.2595926280429808 [Eh]
	 Singles Energy            =      -0.0000000000000000 [Eh]
	 Same-Spin Energy          =      -0.0802543468848789 [Eh]
	 Opposite-Spin Energy      =      -0.3320588902959953 [Eh]
	 Correlation Energy        =      -0.4123132371808743 [Eh]
	 Total Energy              =     -79.6719058652238488 [Eh]

	 ================> DF-SCS-MP2 Energies <==================
	-----------------------------------------------------------
	 SCS Same-Spin Scale       =       0.3333333333333333 [-]
	 SCS Opposite-Spin Scale   =       1.2000000000000000 [-]
	 SCS Same-Spin Energy      =      -0.0267514489616263 [Eh]
	 SCS Opposite-Spin Energy  =      -0.3984706683551944 [Eh]
	 SCS Correlation Energy    =      -0.4252221173168207 [Eh]
	 SCS Total Energy          =     -79.6848147453598017 [Eh]
	-----------------------------------------------------------

  Dipole Moment: [D]
     X:    -0.0157      Y:     0.0135      Z:     0.0030     Total:     0.0209

*** Psi4 exiting successfully. Buy a developer a beer!
