                               Psi4 1.3.2 release

  ==> Input File <==

--------------------------------------------------------------------------
#psi4
#
memory 32 gb

molecule  {
0 1
  C       -0.0000300     0.0047370     0.7629490
  C       -0.0777840    -0.0773432    -0.7587851
  H        0.7451420     0.7027450     1.1537350
  H       -0.9750100     0.3047700     1.1561430
  H        0.2297260    -0.9859220     1.1642350
  H       -0.2296570     0.9859320    -1.1642500
  H        0.9750020    -0.3048390    -1.1561240
  H       -0.7451930    -0.7026970    -1.1537350
units angstrom
no_reorient  #important for SAPT in psi4, default
symmetry c1  #important for SAPT in psi4, default
}

set PROPERTIES_ORIGIN ["COM"]
properties('MP2/aug-cc-pvtz', properties = ['dipole'])
--------------------------------------------------------------------------

    Molecular point group: c1
  Charge       = 0
  Multiplicity = 1
  Basis Set: AUG-CC-PVTZ
    Blend: AUG-CC-PVTZ
  Basis Set: (AUG-CC-PVTZ AUX)
    Blend: AUG-CC-PVTZ-JKFIT

    Orbital Energies [Eh]
    ---------------------

    Doubly Occupied:

       1A    -11.214103     2A    -11.212964     3A     -1.018372
       4A     -0.843121     5A     -0.610080     6A     -0.584983
       7A     -0.525978     8A     -0.485130     9A     -0.465572

  @DF-RHF Final Energy:   -79.24666933008615

   => Energetics <=

    Nuclear Repulsion Energy =             42.2458674843734272
    One-Electron Energy =                -189.0644674262875071
    Two-Electron Energy =                  67.5719306118279235
    Total Energy =                        -79.2466693300861493
  Basis Set: (AUG-CC-PVTZ AUX)
    Blend: AUG-CC-PVTZ-RI
    Molecular point group: c1

    Geometry (in Angstrom), charge = 0, multiplicity = 1:

       Center              X                  Y                   Z               Mass
    ------------   -----------------  -----------------  -----------------  -----------------
         C            0.031046628934     0.033734468311     0.761285908372    12.000000000000
         C           -0.046707371066    -0.048345731689    -0.760448191628    12.000000000000
         H            0.776218628934     0.731742468311     1.152071908372     1.007825032230
         H           -0.943933371066     0.333767468311     1.154479908372     1.007825032230
         H            0.260802628934    -0.956924531689     1.162571908372     1.007825032230
         H           -0.198580371066     1.014929468311    -1.165913091628     1.007825032230
         H            1.006078628934    -0.275841531689    -1.157787091628     1.007825032230
         H           -0.714116371066    -0.673699531689    -1.155398091628     1.007825032230

  Basis Set: AUG-CC-PVTZ
    Blend: AUG-CC-PVTZ
  Basis Set: (AUG-CC-PVTZ AUX)
    Blend: AUG-CC-PVTZ-JKFIT
	 Reference Energy          =     -79.2466693300861493 [Eh]
	 Singles Energy            =      -0.0000000000000000 [Eh]
	 Same-Spin Energy          =      -0.0803816752722793 [Eh]
	 Opposite-Spin Energy      =      -0.3325903189252685 [Eh]
	 Correlation Energy        =      -0.4129719941975478 [Eh]
	 Total Energy              =     -79.6596413242836974 [Eh]

	 ================> DF-SCS-MP2 Energies <==================
	-----------------------------------------------------------
	 SCS Same-Spin Scale       =       0.3333333333333333 [-]
	 SCS Opposite-Spin Scale   =       1.2000000000000000 [-]
	 SCS Same-Spin Energy      =      -0.0267938917574264 [Eh]
	 SCS Opposite-Spin Energy  =      -0.3991083827103222 [Eh]
	 SCS Correlation Energy    =      -0.4259022744677486 [Eh]
	 SCS Total Energy          =     -79.6725716045538945 [Eh]
	-----------------------------------------------------------

  Dipole Moment: [D]
     X:    -0.0202      Y:    -0.0187      Z:     0.0222     Total:     0.0354

*** Psi4 exiting successfully. Buy a developer a beer!
