                               Psi4 1.3.2 release

  ==> Input File <==

--------------------------------------------------------------------------
#psi4
#
memory 32 gb

molecule  {
0 1
  C       -0.0000300     0.0047370     0.7629490
  C        0.0000290    -0.0047360    -0.7629500
  H        0.8133028     0.7665917     1.1894801
  H       -0.9750100     0.3047700     1.1561430
  H        0.2297260    -0.9859220     1.1642350
  H       -0.2296570     0.9859320    -1.1642500
  H        0.9750020    -0.3048390    -1.1561240
  H       -0.7451930    -0.7026970    -1.1537350
units angstrom
no_reorient  #important for SAPT in psi4, default
symmetry c1  #important for SAPT in psi4, default
}

set PROPERTIES_ORIGIN ["COM"]
properties('MP2/aug-cc-pvtz', properties = ['dipole'])
--------------------------------------------------------------------------

    Molecular point group: c1
  Charge       = 0
  Multiplicity = 1
  Basis Set: AUG-CC-PVTZ
    Blend: AUG-CC-PVTZ
  Basis Set: (AUG-CC-PVTZ AUX)
    Blend: AUG-CC-PVTZ-JKFIT

    Orbital Energies [Eh]
    ---------------------

    Doubly Occupied:

       1A    -11.224398     2A    -11.213414     3A     -1.014413
       4A     -0.834428     5A     -0.597557     6A     -0.587638
       7A     -0.510124     8A     -0.487363     9A     -0.474649

  @DF-RHF Final Energy:   -79.25385874039370

   => Energetics <=

    Nuclear Repulsion Energy =             41.9041441613527965
    One-Electron Energy =                -188.4280356040408435
    Two-Electron Energy =                  67.2700327022943441
    Total Energy =                        -79.2538587403936958
  Basis Set: (AUG-CC-PVTZ AUX)
    Blend: AUG-CC-PVTZ-RI
    Molecular point group: c1

    Geometry (in Angstrom), charge = 0, multiplicity = 1:

       Center              X                  Y                   Z               Mass
    ------------   -----------------  -----------------  -----------------  -----------------
         C           -0.002316163430     0.002595444335     0.761750314688    12.000000000000
         C           -0.002257163430    -0.006877555665    -0.764148685312    12.000000000000
         H            0.811016636570     0.764450144335     1.188281414688     1.007825032230
         H           -0.977296163430     0.302628444335     1.154944314688     1.007825032230
         H            0.227439836570    -0.988063555665     1.163036314688     1.007825032230
         H           -0.231943163430     0.983790444335    -1.165448685312     1.007825032230
         H            0.972715836570    -0.306980555665    -1.157322685312     1.007825032230
         H           -0.747479163430    -0.704838555665    -1.154933685312     1.007825032230

  Basis Set: AUG-CC-PVTZ
    Blend: AUG-CC-PVTZ
  Basis Set: (AUG-CC-PVTZ AUX)
    Blend: AUG-CC-PVTZ-JKFIT
	 Reference Energy          =     -79.2538587403936958 [Eh]
	 Singles Energy            =      -0.0000000000000000 [Eh]
	 Same-Spin Energy          =      -0.0801243921566240 [Eh]
	 Opposite-Spin Energy      =      -0.3326345613596389 [Eh]
	 Correlation Energy        =      -0.4127589535162628 [Eh]
	 Total Energy              =     -79.6666176939099557 [Eh]

	 ================> DF-SCS-MP2 Energies <==================
	-----------------------------------------------------------
	 SCS Same-Spin Scale       =       0.3333333333333333 [-]
	 SCS Opposite-Spin Scale   =       1.2000000000000000 [-]
	 SCS Same-Spin Energy      =      -0.0267081307188747 [Eh]
	 SCS Opposite-Spin Energy  =      -0.3991614736315666 [Eh]
	 SCS Correlation Energy    =      -0.4258696043504413 [Eh]
	 SCS Total Energy          =     -79.6797283447441345 [Eh]
	-----------------------------------------------------------

  Dipole Moment: [D]
     X:    -0.0496      Y:    -0.0466      Z:    -0.0479     Total:     0.0833

*** Psi4 exiting successfully. Buy a developer a beer!
