                               Psi4 1.3.2 release

  ==> Input File <==

--------------------------------------------------------------------------
#psi4
#
memory 32 gb

molecule  {
0 1
  C       -0.0000300     0.0047370     0.7629490
  C        0.0000290    -0.0047360    -0.7629500
  H        0.7451420     0.7027450     1.1537350
  H       -0.9750100     0.3047700     1.1561430
  H        0.2297260    -0.9859220     1.1642350
  H       -0.2296570     0.9859320    -1.1642500
  H        0.9750020    -0.3048390    -1.1561240
  H       -0.7451930    -0.7026970    -1.1537350
units angstrom
no_reorient  #important for SAPT in psi4, default
symmetry c1  #important for SAPT in psi4, default
}

set PROPERTIES_ORIGIN ["COM"]
properties('MP2/aug-cc-pvtz', properties = ['dipole'])
--------------------------------------------------------------------------

    Molecular point group: c1
  Charge       = 0
  Multiplicity = 1
  Basis Set: AUG-CC-PVTZ
    Blend: AUG-CC-PVTZ
  Basis Set: (AUG-CC-PVTZ AUX)
    Blend: AUG-CC-PVTZ-JKFIT

    Orbital Energies [Eh]
    ---------------------

    Doubly Occupied:

       1A    -11.212294     2A    -11.211687     3A     -1.017186
       4A     -0.840182     5A     -0.595962     6A     -0.595961
       7A     -0.509368     8A     -0.485845     9A     -0.485843

  @DF-RHF Final Energy:   -79.26014496163201

   => Energetics <=

    Nuclear Repulsion Energy =             42.2371358855305630
    One-Electron Energy =                -189.0859046868442306
    Two-Electron Energy =                  67.5886238396816594
    Total Energy =                        -79.2601449616320082
  Basis Set: (AUG-CC-PVTZ AUX)
    Blend: AUG-CC-PVTZ-RI
    Molecular point group: c1

    Geometry (in Angstrom), charge = 0, multiplicity = 1:

       Center              X                  Y                   Z               Mass
    ------------   -----------------  -----------------  -----------------  -----------------
         C           -0.000029936042     0.004736969583     0.762949265208    12.000000000000
         C            0.000029063958    -0.004736030417    -0.762949734792    12.000000000000
         H            0.745142063958     0.702744969583     1.153735265208     1.007825032230
         H           -0.975009936042     0.304769969583     1.156143265208     1.007825032230
         H            0.229726063958    -0.985922030417     1.164235265208     1.007825032230
         H           -0.229656936042     0.985931969583    -1.164249734792     1.007825032230
         H            0.975002063958    -0.304839030417    -1.156123734792     1.007825032230
         H           -0.745192936042    -0.702697030417    -1.153734734792     1.007825032230

  Basis Set: AUG-CC-PVTZ
    Blend: AUG-CC-PVTZ
  Basis Set: (AUG-CC-PVTZ AUX)
    Blend: AUG-CC-PVTZ-JKFIT
	 Reference Energy          =     -79.2601449616320082 [Eh]
	 Singles Energy            =      -0.0000000000000000 [Eh]
	 Same-Spin Energy          =      -0.0802281025620021 [Eh]
	 Opposite-Spin Energy      =      -0.3320437048432440 [Eh]
	 Correlation Energy        =      -0.4122718074052460 [Eh]
	 Total Energy              =     -79.6724167690372553 [Eh]

	 ================> DF-SCS-MP2 Energies <==================
	-----------------------------------------------------------
	 SCS Same-Spin Scale       =       0.3333333333333333 [-]
	 SCS Opposite-Spin Scale   =       1.2000000000000000 [-]
	 SCS Same-Spin Energy      =      -0.0267427008540007 [Eh]
	 SCS Opposite-Spin Energy  =      -0.3984524458118928 [Eh]
	 SCS Correlation Energy    =      -0.4251951466658935 [Eh]
	 SCS Total Energy          =     -79.6853401082979076 [Eh]
	-----------------------------------------------------------

  Dipole Moment: [D]
     X:    -0.0000      Y:     0.0000      Z:     0.0000     Total:     0.0000

*** Psi4 exiting successfully. Buy a developer a beer!
