                               Psi4 1.3.2 release

  ==> Input File <==

--------------------------------------------------------------------------
#psi4
#
memory 32 gb

molecule  {
0 1
  C       -0.0000300     0.0047370     0.7629490
  C        0.0000290    -0.0047360    -0.7629500
  H        0.7721046     0.6835524     1.1347392
  H       -0.9750100     0.3047700     1.1561430
  H        0.2297260    -0.9859220     1.1642350
  H       -0.2296570     0.9859320    -1.1642500
  H        0.9750020    -0.3048390    -1.1561240
  H       -0.7451930    -0.7026970    -1.1537350
units angstrom
no_reorient  #important for SAPT in psi4, default
symmetry c1  #important for SAPT in psi4, default
}

set PROPERTIES_ORIGIN ["COM"]
properties('MP2/aug-cc-pvtz', properties = ['dipole'])
--------------------------------------------------------------------------

    Molecular point group: c1
  Charge       = 0
  Multiplicity = 1
  Basis Set: AUG-CC-PVTZ
    Blend: AUG-CC-PVTZ
  Basis Set: (AUG-CC-PVTZ AUX)
    Blend: AUG-CC-PVTZ-JKFIT

    Orbital Energies [Eh]
    ---------------------

    Doubly Occupied:

       1A    -11.212222     2A    -11.211544     3A     -1.017387
       4A     -0.839646     5A     -0.598149     6A     -0.594784
       7A     -0.508412     8A     -0.487664     9A     -0.484211

  @DF-RHF Final Energy:   -79.25999743019885

   => Energetics <=

    Nuclear Repulsion Energy =             42.2474016238741257
    One-Electron Energy =                -189.1067566181480402
    Two-Electron Energy =                  67.5993575640750777
    Total Energy =                        -79.2599974301988510
  Basis Set: (AUG-CC-PVTZ AUX)
    Blend: AUG-CC-PVTZ-RI
    Molecular point group: c1

    Geometry (in Angstrom), charge = 0, multiplicity = 1:

       Center              X                  Y                   Z               Mass
    ------------   -----------------  -----------------  -----------------  -----------------
         C           -0.000934306803     0.005380721531     0.763586416155    12.000000000000
         C           -0.000875306803    -0.004092278469    -0.762312583845    12.000000000000
         H            0.771200293197     0.684196121531     1.135376616155     1.007825032230
         H           -0.975914306803     0.305413721531     1.156780416155     1.007825032230
         H            0.228821693197    -0.985278278469     1.164872416155     1.007825032230
         H           -0.230561306803     0.986575721531    -1.163612583845     1.007825032230
         H            0.974097693197    -0.304195278469    -1.155486583845     1.007825032230
         H           -0.746097306803    -0.702053278469    -1.153097583845     1.007825032230

  Basis Set: AUG-CC-PVTZ
    Blend: AUG-CC-PVTZ
  Basis Set: (AUG-CC-PVTZ AUX)
    Blend: AUG-CC-PVTZ-JKFIT
	 Reference Energy          =     -79.2599974301988510 [Eh]
	 Singles Energy            =      -0.0000000000000000 [Eh]
	 Same-Spin Energy          =      -0.0802332232137510 [Eh]
	 Opposite-Spin Energy      =      -0.3320627587457875 [Eh]
	 Correlation Energy        =      -0.4122959819595384 [Eh]
	 Total Energy              =     -79.6722934121583961 [Eh]

	 ================> DF-SCS-MP2 Energies <==================
	-----------------------------------------------------------
	 SCS Same-Spin Scale       =       0.3333333333333333 [-]
	 SCS Opposite-Spin Scale   =       1.2000000000000000 [-]
	 SCS Same-Spin Energy      =      -0.0267444077379170 [Eh]
	 SCS Opposite-Spin Energy  =      -0.3984753104949450 [Eh]
	 SCS Correlation Energy    =      -0.4252197182328620 [Eh]
	 SCS Total Energy          =     -79.6852171484317182 [Eh]
	-----------------------------------------------------------

  Dipole Moment: [D]
     X:     0.0067      Y:    -0.0068      Z:    -0.0014     Total:     0.0097

*** Psi4 exiting successfully. Buy a developer a beer!
