                               Psi4 1.4a3.dev225

  ==> Input File <==

--------------------------------------------------------------------------
#psi4
#
memory 32 gb

molecule  {
0 1
  C       -0.7629840     0.0000000    -0.0000020
  C        0.7629840     0.0000000    -0.0000010
  H       -1.1761215    -1.0655600     0.0305188
  H       -1.1580510     0.5347520     0.8678520
  H       -1.1580440     0.4842120    -0.8970350
  H        1.1580380    -0.4842010     0.8970430
  H        1.1580570    -0.5347620    -0.8678450
  H        1.1580520     1.0189580    -0.0291810
units angstrom
no_reorient  #important for SAPT in psi4, default
symmetry c1  #important for SAPT in psi4, default
}

set PROPERTIES_ORIGIN ["COM"]
properties('MP2/aug-cc-pvtz', properties = ['dipole'])
--------------------------------------------------------------------------

    Molecular point group: c1
  Charge       = 0
  Multiplicity = 1
  Basis Set: AUG-CC-PVTZ
    Blend: AUG-CC-PVTZ
  Basis Set: (AUG-CC-PVTZ AUX)
    Blend: AUG-CC-PVTZ-JKFIT

    Orbital Energies [Eh]
    ---------------------

    Doubly Occupied:

       1A    -11.218286     2A    -11.212649     3A     -1.015548
       4A     -0.837011     5A     -0.596705     6A     -0.591492
       7A     -0.509563     8A     -0.486558     9A     -0.480614

  @DF-RHF Final Energy:   -79.25815628952206

   => Energetics <=

    Nuclear Repulsion Energy =             42.0645041774015453
    One-Electron Energy =                -188.7484702289851271
    Two-Electron Energy =                  67.4258097620615189
    Total Energy =                        -79.2581562895220628
  Basis Set: (AUG-CC-PVTZ AUX)
    Blend: AUG-CC-PVTZ-RI
    Molecular point group: c1

    Geometry (in Angstrom), charge = 0, multiplicity = 1:

       Center              X                  Y                   Z               Mass
    ------------   -----------------  -----------------  -----------------  -----------------
         C           -0.762377918707     0.001563075588    -0.000046177053    12.000000000000
         C            0.763590081293     0.001563075588    -0.000045177053    12.000000000000
         H           -1.175515418707    -1.063996924412     0.030474622947     1.007825032230
         H           -1.157444918707     0.536315075588     0.867807822947     1.007825032230
         H           -1.157437918707     0.485775075588    -0.897079177053     1.007825032230
         H            1.158644081293    -0.482637924412     0.896998822947     1.007825032230
         H            1.158663081293    -0.533198924412    -0.867889177053     1.007825032230
         H            1.158658081293     1.020521075588    -0.029225177053     1.007825032230

  Basis Set: AUG-CC-PVTZ
    Blend: AUG-CC-PVTZ
  Basis Set: (AUG-CC-PVTZ AUX)
    Blend: AUG-CC-PVTZ-JKFIT
	 Reference Energy          =     -79.2581562895220628 [Eh]
	 Singles Energy            =      -0.0000000000000000 [Eh]
	 Same-Spin Energy          =      -0.0801760151547595 [Eh]
	 Opposite-Spin Energy      =      -0.3323178082528345 [Eh]
	 Correlation Energy        =      -0.4124938234075939 [Eh]
	 Total Energy              =     -79.6706501129296498 [Eh]

	 ================> DF-SCS-MP2 Energies <==================
	-----------------------------------------------------------
	 SCS Same-Spin Scale       =       0.3333333333333333 [-]
	 SCS Opposite-Spin Scale   =       1.2000000000000000 [-]
	 SCS Same-Spin Energy      =      -0.0267253383849198 [Eh]
	 SCS Opposite-Spin Energy  =      -0.3987813699034014 [Eh]
	 SCS Correlation Energy    =      -0.4255067082883212 [Eh]
	 SCS Total Energy          =     -79.6836629978103872 [Eh]
	-----------------------------------------------------------

  Dipole Moment: [D]
     X:     0.0229      Y:     0.0320      Z:    -0.0009     Total:     0.0394

*** Psi4 exiting successfully. Buy a developer a beer!
