                               Psi4 1.3.2 release

  ==> Input File <==

--------------------------------------------------------------------------
#psi4
#
memory 32 gb

molecule  {
0 1
  C       -0.0000300     0.0047370     0.7629490
  C        0.0000290    -0.0047360    -0.7629500
  H        0.7313181     0.7120238     1.1630558
  H       -0.9750100     0.3047700     1.1561430
  H        0.2297260    -0.9859220     1.1642350
  H       -0.2296570     0.9859320    -1.1642500
  H        0.9750020    -0.3048390    -1.1561240
  H       -0.7451930    -0.7026970    -1.1537350
units angstrom
no_reorient  #important for SAPT in psi4, default
symmetry c1  #important for SAPT in psi4, default
}

set PROPERTIES_ORIGIN ["COM"]
properties('MP2/aug-cc-pvtz', properties = ['dipole'])
--------------------------------------------------------------------------

    Molecular point group: c1
  Charge       = 0
  Multiplicity = 1
  Basis Set: AUG-CC-PVTZ
    Blend: AUG-CC-PVTZ
  Basis Set: (AUG-CC-PVTZ AUX)
    Blend: AUG-CC-PVTZ-JKFIT

    Orbital Energies [Eh]
    ---------------------

    Doubly Occupied:

       1A    -11.212360     2A    -11.211734     3A     -1.017100
       4A     -0.840463     5A     -0.596564     6A     -0.594893
       7A     -0.509898     8A     -0.486591     9A     -0.484866

  @DF-RHF Final Energy:   -79.26011273565609

   => Energetics <=

    Nuclear Repulsion Energy =             42.2322977776376618
    One-Electron Energy =                -189.0758834829439081
    Two-Electron Energy =                  67.5834729696501597
    Total Energy =                        -79.2601127356560937
  Basis Set: (AUG-CC-PVTZ AUX)
    Blend: AUG-CC-PVTZ-RI
    Molecular point group: c1

    Geometry (in Angstrom), charge = 0, multiplicity = 1:

       Center              X                  Y                   Z               Mass
    ------------   -----------------  -----------------  -----------------  -----------------
         C            0.000433740717     0.004425743091     0.762636629966    12.000000000000
         C            0.000492740717    -0.005047256909    -0.763262370034    12.000000000000
         H            0.731781840717     0.711712543091     1.162743429966     1.007825032230
         H           -0.974546259283     0.304458743091     1.155830629966     1.007825032230
         H            0.230189740717    -0.986233256909     1.163922629966     1.007825032230
         H           -0.229193259283     0.985620743091    -1.164562370034     1.007825032230
         H            0.975465740717    -0.305150256909    -1.156436370034     1.007825032230
         H           -0.744729259283    -0.703008256909    -1.154047370034     1.007825032230

  Basis Set: AUG-CC-PVTZ
    Blend: AUG-CC-PVTZ
  Basis Set: (AUG-CC-PVTZ AUX)
    Blend: AUG-CC-PVTZ-JKFIT
	 Reference Energy          =     -79.2601127356560937 [Eh]
	 Singles Energy            =      -0.0000000000000000 [Eh]
	 Same-Spin Energy          =      -0.0802300802837911 [Eh]
	 Opposite-Spin Energy      =      -0.3320407357135258 [Eh]
	 Correlation Energy        =      -0.4122708159973169 [Eh]
	 Total Energy              =     -79.6723835516534109 [Eh]

	 ================> DF-SCS-MP2 Energies <==================
	-----------------------------------------------------------
	 SCS Same-Spin Scale       =       0.3333333333333333 [-]
	 SCS Opposite-Spin Scale   =       1.2000000000000000 [-]
	 SCS Same-Spin Energy      =      -0.0267433600945970 [Eh]
	 SCS Opposite-Spin Energy  =      -0.3984488828562309 [Eh]
	 SCS Correlation Energy    =      -0.4251922429508280 [Eh]
	 SCS Total Energy          =     -79.6853049786069221 [Eh]
	-----------------------------------------------------------

  Dipole Moment: [D]
     X:    -0.0036      Y:     0.0034      Z:     0.0007     Total:     0.0050

*** Psi4 exiting successfully. Buy a developer a beer!
