                               Psi4 1.4a3.dev225

  ==> Input File <==

--------------------------------------------------------------------------
#psi4
#
memory 32 gb

molecule  {
0 1
  C       -0.7629840     0.0000000    -0.0000020
  C        0.7129840     0.0000000    -0.0000010
  H       -1.1580530    -1.0189580     0.0291840
  H       -1.1580510     0.5347520     0.8678520
  H       -1.1580440     0.4842120    -0.8970350
  H        1.1580380    -0.4842010     0.8970430
  H        1.1580570    -0.5347620    -0.8678450
  H        1.1580520     1.0189580    -0.0291810
units angstrom
no_reorient  #important for SAPT in psi4, default
symmetry c1  #important for SAPT in psi4, default
}

set PROPERTIES_ORIGIN ["COM"]
properties('MP2/aug-cc-pvtz', properties = ['dipole'])
--------------------------------------------------------------------------

    Molecular point group: c1
  Charge       = 0
  Multiplicity = 1
  Basis Set: AUG-CC-PVTZ
    Blend: AUG-CC-PVTZ
  Basis Set: (AUG-CC-PVTZ AUX)
    Blend: AUG-CC-PVTZ-JKFIT

    Orbital Energies [Eh]
    ---------------------

    Doubly Occupied:

       1A    -11.214707     2A    -11.210087     3A     -1.026941
       4A     -0.835309     5A     -0.596782     6A     -0.596781
       7A     -0.527521     8A     -0.476515     9A     -0.476515

  @DF-RHF Final Energy:   -79.25717505698374

   => Energetics <=

    Nuclear Repulsion Energy =             42.6010952417602482
    One-Electron Energy =                -189.7942244051707235
    Two-Electron Energy =                  67.9359541064267347
    Total Energy =                        -79.2571750569837405
  Basis Set: (AUG-CC-PVTZ AUX)
    Blend: AUG-CC-PVTZ-RI
    Molecular point group: c1

    Geometry (in Angstrom), charge = 0, multiplicity = 1:

       Center              X                  Y                   Z               Mass
    ------------   -----------------  -----------------  -----------------  -----------------
         C           -0.743015217679    -0.000000033542    -0.000001405625    12.000000000000
         C            0.732952782321    -0.000000033542    -0.000000405625    12.000000000000
         H           -1.138084217679    -1.018958033542     0.029184594375     1.007825032230
         H           -1.138082217679     0.534751966458     0.867852594375     1.007825032230
         H           -1.138075217679     0.484211966458    -0.897034405625     1.007825032230
         H            1.178006782321    -0.484201033542     0.897043594375     1.007825032230
         H            1.178025782321    -0.534762033542    -0.867844405625     1.007825032230
         H            1.178020782321     1.018957966458    -0.029180405625     1.007825032230

  Basis Set: AUG-CC-PVTZ
    Blend: AUG-CC-PVTZ
  Basis Set: (AUG-CC-PVTZ AUX)
    Blend: AUG-CC-PVTZ-JKFIT
	 Reference Energy          =     -79.2571750569837405 [Eh]
	 Singles Energy            =      -0.0000000000000000 [Eh]
	 Same-Spin Energy          =      -0.0805592099181890 [Eh]
	 Opposite-Spin Energy      =      -0.3323759291905971 [Eh]
	 Correlation Energy        =      -0.4129351391087860 [Eh]
	 Total Energy              =     -79.6701101960925229 [Eh]

	 ================> DF-SCS-MP2 Energies <==================
	-----------------------------------------------------------
	 SCS Same-Spin Scale       =       0.3333333333333333 [-]
	 SCS Opposite-Spin Scale   =       1.2000000000000000 [-]
	 SCS Same-Spin Energy      =      -0.0268530699727297 [Eh]
	 SCS Opposite-Spin Energy  =      -0.3988511150287165 [Eh]
	 SCS Correlation Energy    =      -0.4257041850014461 [Eh]
	 SCS Total Energy          =     -79.6828792419851908 [Eh]
	-----------------------------------------------------------

  Dipole Moment: [D]
     X:    -0.0169      Y:     0.0000      Z:     0.0000     Total:     0.0169

*** Psi4 exiting successfully. Buy a developer a beer!
