                               Psi4 1.4a3.dev225

  ==> Input File <==

--------------------------------------------------------------------------
#psi4
#
memory 32 gb

molecule  {
0 1
  N       -0.0000290    -1.1591300    -0.3735420
  C        1.1123271    -0.4699046     0.1641769
  C        0.7747020     1.0224440    -0.0604010
  C       -0.7746420     1.0224920    -0.0603770
  C       -1.1516700    -0.4454840     0.1831620
  H        2.0755230    -0.7432530    -0.3219180
  H        1.2811600    -0.6246790     1.2656070
  H        1.1964400     1.6801430     0.7046680
  H        1.1574950     1.3535440    -1.0288480
  H       -1.1963110     1.6801840     0.7047360
  H       -1.1574460     1.3536640    -1.0287950
  H       -1.2812310    -0.6246320     1.2655810
  H       -2.0755560    -0.7431270    -0.3219670
  H       -0.0000580    -2.1413730    -0.0976590
units angstrom
no_reorient  #important for SAPT in psi4, default
symmetry c1  #important for SAPT in psi4, default
}

set PROPERTIES_ORIGIN ["COM"]
properties('MP2/aug-cc-pvtz', properties = ['dipole'])
--------------------------------------------------------------------------

    Molecular point group: c1
  Charge       = 0
  Multiplicity = 1
  Basis Set: AUG-CC-PVTZ
    Blend: AUG-CC-PVTZ
  Basis Set: (AUG-CC-PVTZ AUX)
    Blend: AUG-CC-PVTZ-JKFIT

    Orbital Energies [Eh]
    ---------------------

    Doubly Occupied:

       1A    -15.539810     2A    -11.243687     3A    -11.243248
       4A    -11.215250     5A    -11.214659     6A     -1.230589
       7A     -1.021397     8A     -0.968681     9A     -0.802207
      10A     -0.779502    11A     -0.691938    12A     -0.654869
      13A     -0.588290    14A     -0.555661    15A     -0.520120
      16A     -0.507567    17A     -0.478168    18A     -0.465427
      19A     -0.451327    20A     -0.370281

  @DF-RHF Final Energy:  -211.21962587016418

   => Energetics <=

    Nuclear Repulsion Energy =            191.1224838986353518
    One-Electron Energy =                -663.5988603375959656
    Two-Electron Energy =                 261.2567505687964626
    Total Energy =                       -211.2196258701641796
  Basis Set: (AUG-CC-PVTZ AUX)
    Blend: AUG-CC-PVTZ-RI
    Molecular point group: c1

    Geometry (in Angstrom), charge = 0, multiplicity = 1:

       Center              X                  Y                   Z               Mass
    ------------   -----------------  -----------------  -----------------  -----------------
         N            0.006608984180    -1.138348303426    -0.354383397253    14.003074004430
         C            1.118965084180    -0.449122903426     0.183335502747    12.000000000000
         C            0.781339984180     1.043225696574    -0.041242397253    12.000000000000
         C           -0.768004015820     1.043273696574    -0.041218397253    12.000000000000
         C           -1.145032015820    -0.424702303426     0.202320602747    12.000000000000
         H            2.082160984180    -0.722471303426    -0.302759397253     1.007825032230
         H            1.287797984180    -0.603897303426     1.284765602747     1.007825032230
         H            1.203077984180     1.700924696574     0.723826602747     1.007825032230
         H            1.164132984180     1.374325696574    -1.009689397253     1.007825032230
         H           -1.189673015820     1.700965696574     0.723894602747     1.007825032230
         H           -1.150808015820     1.374445696574    -1.009636397253     1.007825032230
         H           -1.274593015820    -0.603850303426     1.284739602747     1.007825032230
         H           -2.068918015820    -0.722345303426    -0.302808397253     1.007825032230
         H            0.006579984180    -2.120591303426    -0.078500397253     1.007825032230

  Basis Set: AUG-CC-PVTZ
    Blend: AUG-CC-PVTZ
  Basis Set: (AUG-CC-PVTZ AUX)
    Blend: AUG-CC-PVTZ-JKFIT
	 Reference Energy          =    -211.2196258701641796 [Eh]
	 Singles Energy            =      -0.0000000000000000 [Eh]
	 Same-Spin Energy          =      -0.2245985143411338 [Eh]
	 Opposite-Spin Energy      =      -0.7853260963872669 [Eh]
	 Correlation Energy        =      -1.0099246107284006 [Eh]
	 Total Energy              =    -212.2295504808925841 [Eh]

	 ================> DF-SCS-MP2 Energies <==================
	-----------------------------------------------------------
	 SCS Same-Spin Scale       =       0.3333333333333333 [-]
	 SCS Opposite-Spin Scale   =       1.2000000000000000 [-]
	 SCS Same-Spin Energy      =      -0.0748661714470446 [Eh]
	 SCS Opposite-Spin Energy  =      -0.9423913156647202 [Eh]
	 SCS Correlation Energy    =      -1.0172574871117648 [Eh]
	 SCS Total Energy          =    -212.2368833572759570 [Eh]
	-----------------------------------------------------------

  Dipole Moment: [D]
     X:    -0.0948      Y:    -0.1090      Z:     1.0025     Total:     1.0129

*** Psi4 exiting successfully. Buy a developer a beer!
