                               Psi4 1.3.2 release

  ==> Input File <==

--------------------------------------------------------------------------
#psi4
#
memory 32 gb

molecule  {
0 1
  N        0.0001290    -1.1591520    -0.3736740
  C        1.1194388    -0.4140624     0.2074979
  C        0.7745390     1.0224530    -0.0603730
  C       -0.7747520     1.0222960    -0.0603410
  C       -1.1516460    -0.4455610     0.1830910
  H        2.0757380    -0.7429690    -0.3218440
  H        1.2812380    -0.6245340     1.2655430
  H        1.1961900     1.6802890     0.7046720
  H        1.1575090     1.3538250    -1.0286970
  H       -1.1965050     1.6800050     0.7047560
  H       -1.1578340     1.3536480    -1.0286290
  H       -1.2811530    -0.6248340     1.2655100
  H       -2.0755680    -0.7433930    -0.3219080
  H        0.0002320    -2.1412100    -0.0966390
units angstrom
no_reorient  #important for SAPT in psi4, default
symmetry c1  #important for SAPT in psi4, default
}

set PROPERTIES_ORIGIN ["COM"]
properties('MP2/aug-cc-pvtz', properties = ['dipole'])
--------------------------------------------------------------------------

    Molecular point group: c1
  Charge       = 0
  Multiplicity = 1
  Basis Set: AUG-CC-PVTZ
    Blend: AUG-CC-PVTZ
  Basis Set: (AUG-CC-PVTZ AUX)
    Blend: AUG-CC-PVTZ-JKFIT

    Orbital Energies [Eh]
    ---------------------

    Doubly Occupied:

       1A    -15.539295     2A    -11.243369     3A    -11.241835
       4A    -11.215189     5A    -11.213971     6A     -1.220556
       7A     -1.023044     8A     -0.970475     9A     -0.804321
      10A     -0.777996    11A     -0.688866    12A     -0.652997
      13A     -0.589022    14A     -0.555877    15A     -0.516689
      16A     -0.498546    17A     -0.481030    18A     -0.469414
      19A     -0.453283    20A     -0.372504

  @DF-RHF Final Energy:  -211.21863607812534

   => Energetics <=

    Nuclear Repulsion Energy =            191.0538877199410308
    One-Electron Energy =                -663.4884864821200381
    Two-Electron Energy =                 261.2159626840536362
    Total Energy =                       -211.2186360781253711
  Basis Set: (AUG-CC-PVTZ AUX)
    Blend: AUG-CC-PVTZ-RI
    Molecular point group: c1

    Geometry (in Angstrom), charge = 0, multiplicity = 1:

       Center              X                  Y                   Z               Mass
    ------------   -----------------  -----------------  -----------------  -----------------
         N            0.005579557585    -1.147754801512    -0.361821766485    14.003074004430
         C            1.124889357585    -0.402665201512     0.219350133515    12.000000000000
         C            0.779989557585     1.033850198488    -0.048520766485    12.000000000000
         C           -0.769301442415     1.033693198488    -0.048488766485    12.000000000000
         C           -1.146195442415    -0.434163801512     0.194943233515    12.000000000000
         H            2.081188557585    -0.731571801512    -0.309991766485     1.007825032230
         H            1.286688557585    -0.613136801512     1.277395233515     1.007825032230
         H            1.201640557585     1.691686198488     0.716524233515     1.007825032230
         H            1.162959557585     1.365222198488    -1.016844766485     1.007825032230
         H           -1.191054442415     1.691402198488     0.716608233515     1.007825032230
         H           -1.152383442415     1.365045198488    -1.016776766485     1.007825032230
         H           -1.275702442415    -0.613436801512     1.277362233515     1.007825032230
         H           -2.070117442415    -0.731995801512    -0.310055766485     1.007825032230
         H            0.005682557585    -2.129812801512    -0.084786766485     1.007825032230

  Basis Set: AUG-CC-PVTZ
    Blend: AUG-CC-PVTZ
  Basis Set: (AUG-CC-PVTZ AUX)
    Blend: AUG-CC-PVTZ-JKFIT
	 Reference Energy          =    -211.2186360781253427 [Eh]
	 Singles Energy            =      -0.0000000000000000 [Eh]
	 Same-Spin Energy          =      -0.2246798229773503 [Eh]
	 Opposite-Spin Energy      =      -0.7857599552500836 [Eh]
	 Correlation Energy        =      -1.0104397782274339 [Eh]
	 Total Energy              =    -212.2290758563527788 [Eh]

	 ================> DF-SCS-MP2 Energies <==================
	-----------------------------------------------------------
	 SCS Same-Spin Scale       =       0.3333333333333333 [-]
	 SCS Opposite-Spin Scale   =       1.2000000000000000 [-]
	 SCS Same-Spin Energy      =      -0.0748932743257834 [Eh]
	 SCS Opposite-Spin Energy  =      -0.9429119463001002 [Eh]
	 SCS Correlation Energy    =      -1.0178052206258836 [Eh]
	 SCS Total Energy          =    -212.2364412987512310 [Eh]
	-----------------------------------------------------------

  Dipole Moment: [D]
     X:    -0.0308      Y:    -0.0466      Z:     1.1006     Total:     1.1020

*** Psi4 exiting successfully. Buy a developer a beer!
