                               Psi4 1.3.2 release

  ==> Input File <==

--------------------------------------------------------------------------
#psi4
#
memory 32 gb

molecule  {
0 1
  N        0.0001290    -1.1591520    -0.3736740
  C        1.2120806    -0.5103901     0.1323447
  C        0.7745390     1.0224530    -0.0603730
  C       -0.7747520     1.0222960    -0.0603410
  C       -1.1516460    -0.4455610     0.1830910
  H        2.0757380    -0.7429690    -0.3218440
  H        1.2812380    -0.6245340     1.2655430
  H        1.1961900     1.6802890     0.7046720
  H        1.1575090     1.3538250    -1.0286970
  H       -1.1965050     1.6800050     0.7047560
  H       -1.1578340     1.3536480    -1.0286290
  H       -1.2811530    -0.6248340     1.2655100
  H       -2.0755680    -0.7433930    -0.3219080
  H        0.0002320    -2.1412100    -0.0966390
units angstrom
no_reorient  #important for SAPT in psi4, default
symmetry c1  #important for SAPT in psi4, default
}

set PROPERTIES_ORIGIN ["COM"]
properties('MP2/aug-cc-pvtz', properties = ['dipole'])
--------------------------------------------------------------------------

    Molecular point group: c1
  Charge       = 0
  Multiplicity = 1
  Basis Set: AUG-CC-PVTZ
    Blend: AUG-CC-PVTZ
  Basis Set: (AUG-CC-PVTZ AUX)
    Blend: AUG-CC-PVTZ-JKFIT

    Orbital Energies [Eh]
    ---------------------

    Doubly Occupied:

       1A    -15.539162     2A    -11.243842     3A    -11.242305
       4A    -11.217778     5A    -11.215535     6A     -1.213168
       7A     -1.014728     8A     -0.969537     9A     -0.808370
      10A     -0.780000    11A     -0.683915    12A     -0.658410
      13A     -0.582300    14A     -0.555535    15A     -0.529758
      16A     -0.503667    17A     -0.473147    18A     -0.471701
      19A     -0.444078    20A     -0.367226

  @DF-RHF Final Energy:  -211.21033781126076

   => Energetics <=

    Nuclear Repulsion Energy =            189.5456239092188184
    One-Electron Energy =                -660.4835997473774114
    Two-Electron Energy =                 259.7276380268978073
    Total Energy =                       -211.2103378112607857
  Basis Set: (AUG-CC-PVTZ AUX)
    Blend: AUG-CC-PVTZ-RI
    Molecular point group: c1

    Geometry (in Angstrom), charge = 0, multiplicity = 1:

       Center              X                  Y                   Z               Mass
    ------------   -----------------  -----------------  -----------------  -----------------
         N           -0.010062019248    -1.131490899896    -0.349132952666    14.003074004430
         C            1.201889580752    -0.482728999896     0.156885747334    12.000000000000
         C            0.764347980752     1.050114100104    -0.035831952666    12.000000000000
         C           -0.784943019248     1.049957100104    -0.035799952666    12.000000000000
         C           -1.161837019248    -0.417899899896     0.207632047334    12.000000000000
         H            2.065546980752    -0.715307899896    -0.297302952666     1.007825032230
         H            1.271046980752    -0.596872899896     1.290084047334     1.007825032230
         H            1.185998980752     1.707950100104     0.729213047334     1.007825032230
         H            1.147317980752     1.381486100104    -1.004155952666     1.007825032230
         H           -1.206696019248     1.707666100104     0.729297047334     1.007825032230
         H           -1.168025019248     1.381309100104    -1.004087952666     1.007825032230
         H           -1.291344019248    -0.597172899896     1.290051047334     1.007825032230
         H           -2.085759019248    -0.715731899896    -0.297366952666     1.007825032230
         H           -0.009959019248    -2.113548899896    -0.072097952666     1.007825032230

  Basis Set: AUG-CC-PVTZ
    Blend: AUG-CC-PVTZ
  Basis Set: (AUG-CC-PVTZ AUX)
    Blend: AUG-CC-PVTZ-JKFIT
	 Reference Energy          =    -211.2103378112607572 [Eh]
	 Singles Energy            =      -0.0000000000000000 [Eh]
	 Same-Spin Energy          =      -0.2241736138147781 [Eh]
	 Opposite-Spin Energy      =      -0.7857609646827030 [Eh]
	 Correlation Energy        =      -1.0099345784974811 [Eh]
	 Total Energy              =    -212.2202723897582359 [Eh]

	 ================> DF-SCS-MP2 Energies <==================
	-----------------------------------------------------------
	 SCS Same-Spin Scale       =       0.3333333333333333 [-]
	 SCS Opposite-Spin Scale   =       1.2000000000000000 [-]
	 SCS Same-Spin Energy      =      -0.0747245379382594 [Eh]
	 SCS Opposite-Spin Energy  =      -0.9429131576192435 [Eh]
	 SCS Correlation Energy    =      -1.0176376955575028 [Eh]
	 SCS Total Energy          =    -212.2279755068182681 [Eh]
	-----------------------------------------------------------

  Dipole Moment: [D]
     X:     0.0146      Y:    -0.0865      Z:     0.9877     Total:     0.9915

*** Psi4 exiting successfully. Buy a developer a beer!
