                               Psi4 1.3.2 release

  ==> Input File <==

--------------------------------------------------------------------------
#psi4
#
memory 32 gb

molecule  {
0 1
  N        0.0001290    -1.1591520    -0.3736740
  C        1.2400565    -0.5441334     0.1060191
  C        0.7745390     1.0224530    -0.0603730
  C       -0.7747520     1.0222960    -0.0603410
  C       -1.1516460    -0.4455610     0.1830910
  H        2.0757380    -0.7429690    -0.3218440
  H        1.2812380    -0.6245340     1.2655430
  H        1.1961900     1.6802890     0.7046720
  H        1.1575090     1.3538250    -1.0286970
  H       -1.1965050     1.6800050     0.7047560
  H       -1.1578340     1.3536480    -1.0286290
  H       -1.2811530    -0.6248340     1.2655100
  H       -2.0755680    -0.7433930    -0.3219080
  H        0.0002320    -2.1412100    -0.0966390
units angstrom
no_reorient  #important for SAPT in psi4, default
symmetry c1  #important for SAPT in psi4, default
}

set PROPERTIES_ORIGIN ["COM"]
properties('MP2/aug-cc-pvtz', properties = ['dipole'])
--------------------------------------------------------------------------

    Molecular point group: c1
  Charge       = 0
  Multiplicity = 1
  Basis Set: AUG-CC-PVTZ
    Blend: AUG-CC-PVTZ
  Basis Set: (AUG-CC-PVTZ AUX)
    Blend: AUG-CC-PVTZ-JKFIT

    Orbital Energies [Eh]
    ---------------------

    Doubly Occupied:

       1A    -15.539798     2A    -11.245023     3A    -11.243467
       4A    -11.219333     5A    -11.216039     6A     -1.211538
       7A     -1.013649     8A     -0.969724     9A     -0.813008
      10A     -0.780432    11A     -0.684544    12A     -0.659128
      13A     -0.578874    14A     -0.558087    15A     -0.539297
      16A     -0.502605    17A     -0.472755    18A     -0.469918
      19A     -0.435546    20A     -0.364674

  @DF-RHF Final Energy:  -211.19408821155230

   => Energetics <=

    Nuclear Repulsion Energy =            189.0789085904547449
    One-Electron Energy =                -659.5111190096454266
    Two-Electron Energy =                 259.2381222076384120
    Total Energy =                       -211.1940882115522982
  Basis Set: (AUG-CC-PVTZ AUX)
    Blend: AUG-CC-PVTZ-RI
    Molecular point group: c1

    Geometry (in Angstrom), charge = 0, multiplicity = 1:

       Center              X                  Y                   Z               Mass
    ------------   -----------------  -----------------  -----------------  -----------------
         N           -0.014785450672    -1.125793704682    -0.344688156741    14.003074004430
         C            1.225142049328    -0.510775104682     0.135004943259    12.000000000000
         C            0.759624549328     1.055811295318    -0.031387156741    12.000000000000
         C           -0.789666450672     1.055654295318    -0.031355156741    12.000000000000
         C           -1.166560450672    -0.412202704682     0.212076843259    12.000000000000
         H            2.060823549328    -0.709610704682    -0.292858156741     1.007825032230
         H            1.266323549328    -0.591175704682     1.294528843259     1.007825032230
         H            1.181275549328     1.713647295318     0.733657843259     1.007825032230
         H            1.142594549328     1.387183295318    -0.999711156741     1.007825032230
         H           -1.211419450672     1.713363295318     0.733741843259     1.007825032230
         H           -1.172748450672     1.387006295318    -0.999643156741     1.007825032230
         H           -1.296067450672    -0.591475704682     1.294495843259     1.007825032230
         H           -2.090482450672    -0.710034704682    -0.292922156741     1.007825032230
         H           -0.014682450672    -2.107851704682    -0.067653156741     1.007825032230

  Basis Set: AUG-CC-PVTZ
    Blend: AUG-CC-PVTZ
  Basis Set: (AUG-CC-PVTZ AUX)
    Blend: AUG-CC-PVTZ-JKFIT
	 Reference Energy          =    -211.1940882115522982 [Eh]
	 Singles Energy            =      -0.0000000000000000 [Eh]
	 Same-Spin Energy          =      -0.2243246594751860 [Eh]
	 Opposite-Spin Energy      =      -0.7864826239025082 [Eh]
	 Correlation Energy        =      -1.0108072833776942 [Eh]
	 Total Energy              =    -212.2048954949299855 [Eh]

	 ================> DF-SCS-MP2 Energies <==================
	-----------------------------------------------------------
	 SCS Same-Spin Scale       =       0.3333333333333333 [-]
	 SCS Opposite-Spin Scale   =       1.2000000000000000 [-]
	 SCS Same-Spin Energy      =      -0.0747748864917286 [Eh]
	 SCS Opposite-Spin Energy  =      -0.9437791486830098 [Eh]
	 SCS Correlation Energy    =      -1.0185540351747384 [Eh]
	 SCS Total Energy          =    -212.2126422467270288 [Eh]
	-----------------------------------------------------------

  Dipole Moment: [D]
     X:    -0.0013      Y:    -0.0886      Z:     0.9447     Total:     0.9488

*** Psi4 exiting successfully. Buy a developer a beer!
