                               Psi4 1.3.2 release

  ==> Input File <==

--------------------------------------------------------------------------
#psi4
#
memory 32 gb

molecule  {
0 1
  N        0.0001290    -1.1591520    -0.3736740
  C        1.0857789    -0.3837176     0.2311727
  C        0.7745390     1.0224530    -0.0603730
  C       -0.7747520     1.0222960    -0.0603410
  C       -1.1516460    -0.4455610     0.1830910
  H        2.0757380    -0.7429690    -0.3218440
  H        1.2812380    -0.6245340     1.2655430
  H        1.1961900     1.6802890     0.7046720
  H        1.1575090     1.3538250    -1.0286970
  H       -1.1965050     1.6800050     0.7047560
  H       -1.1578340     1.3536480    -1.0286290
  H       -1.2811530    -0.6248340     1.2655100
  H       -2.0755680    -0.7433930    -0.3219080
  H        0.0002320    -2.1412100    -0.0966390
units angstrom
no_reorient  #important for SAPT in psi4, default
symmetry c1  #important for SAPT in psi4, default
}

set PROPERTIES_ORIGIN ["COM"]
properties('MP2/aug-cc-pvtz', properties = ['dipole'])
--------------------------------------------------------------------------

    Molecular point group: c1
  Charge       = 0
  Multiplicity = 1
  Basis Set: AUG-CC-PVTZ
    Blend: AUG-CC-PVTZ
  Basis Set: (AUG-CC-PVTZ AUX)
    Blend: AUG-CC-PVTZ-JKFIT

    Orbital Energies [Eh]
    ---------------------

    Doubly Occupied:

       1A    -15.539984     2A    -11.245333     3A    -11.241731
       4A    -11.215422     5A    -11.213200     6A     -1.223948
       7A     -1.027628     8A     -0.970925     9A     -0.805014
      10A     -0.777644    11A     -0.692448    12A     -0.651131
      13A     -0.590281    14A     -0.558131    15A     -0.524304
      16A     -0.493800    17A     -0.482184    18A     -0.468414
      19A     -0.446795    20A     -0.373291

  @DF-RHF Final Energy:  -211.20970210226250

   => Energetics <=

    Nuclear Repulsion Energy =            191.5855793553802187
    One-Electron Energy =                -664.5073470799894721
    Two-Electron Energy =                 261.7120656223467563
    Total Energy =                       -211.2097021022624972
  Basis Set: (AUG-CC-PVTZ AUX)
    Blend: AUG-CC-PVTZ-RI
    Molecular point group: c1

    Geometry (in Angstrom), charge = 0, multiplicity = 1:

       Center              X                  Y                   Z               Mass
    ------------   -----------------  -----------------  -----------------  -----------------
         N            0.011262671601    -1.152878196358    -0.365819003188    14.003074004430
         C            1.096912571601    -0.377443796358     0.239027696812    12.000000000000
         C            0.785672671601     1.028726803642    -0.052518003188    12.000000000000
         C           -0.763618328399     1.028569803642    -0.052486003188    12.000000000000
         C           -1.140512328399    -0.439287196358     0.190945996812    12.000000000000
         H            2.086871671601    -0.736695196358    -0.313989003188     1.007825032230
         H            1.292371671601    -0.618260196358     1.273397996812     1.007825032230
         H            1.207323671601     1.686562803642     0.712526996812     1.007825032230
         H            1.168642671601     1.360098803642    -1.020842003188     1.007825032230
         H           -1.185371328399     1.686278803642     0.712610996812     1.007825032230
         H           -1.146700328399     1.359921803642    -1.020774003188     1.007825032230
         H           -1.270019328399    -0.618560196358     1.273364996812     1.007825032230
         H           -2.064434328399    -0.737119196358    -0.314053003188     1.007825032230
         H            0.011365671601    -2.134936196358    -0.088784003188     1.007825032230

  Basis Set: AUG-CC-PVTZ
    Blend: AUG-CC-PVTZ
  Basis Set: (AUG-CC-PVTZ AUX)
    Blend: AUG-CC-PVTZ-JKFIT
	 Reference Energy          =    -211.2097021022624972 [Eh]
	 Singles Energy            =      -0.0000000000000000 [Eh]
	 Same-Spin Energy          =      -0.2251659446567491 [Eh]
	 Opposite-Spin Energy      =      -0.7864605306157439 [Eh]
	 Correlation Energy        =      -1.0116264752724931 [Eh]
	 Total Energy              =    -212.2213285775349902 [Eh]

	 ================> DF-SCS-MP2 Energies <==================
	-----------------------------------------------------------
	 SCS Same-Spin Scale       =       0.3333333333333333 [-]
	 SCS Opposite-Spin Scale   =       1.2000000000000000 [-]
	 SCS Same-Spin Energy      =      -0.0750553148855830 [Eh]
	 SCS Opposite-Spin Energy  =      -0.9437526367388926 [Eh]
	 SCS Correlation Energy    =      -1.0188079516244757 [Eh]
	 SCS Total Energy          =    -212.2285100538869642 [Eh]
	-----------------------------------------------------------

  Dipole Moment: [D]
     X:    -0.0773      Y:    -0.0217      Z:     1.1344     Total:     1.1372

*** Psi4 exiting successfully. Buy a developer a beer!
