                               Psi4 1.3.2 release

  ==> Input File <==

--------------------------------------------------------------------------
#psi4
#
memory 32 gb

molecule  {
0 1
  N        0.0001290    -1.1591520    -0.3736740
  C        1.0507962    -0.3543175     0.2541106
  C        0.7745390     1.0224530    -0.0603730
  C       -0.7747520     1.0222960    -0.0603410
  C       -1.1516460    -0.4455610     0.1830910
  H        2.0757380    -0.7429690    -0.3218440
  H        1.2812380    -0.6245340     1.2655430
  H        1.1961900     1.6802890     0.7046720
  H        1.1575090     1.3538250    -1.0286970
  H       -1.1965050     1.6800050     0.7047560
  H       -1.1578340     1.3536480    -1.0286290
  H       -1.2811530    -0.6248340     1.2655100
  H       -2.0755680    -0.7433930    -0.3219080
  H        0.0002320    -2.1412100    -0.0966390
units angstrom
no_reorient  #important for SAPT in psi4, default
symmetry c1  #important for SAPT in psi4, default
}

set PROPERTIES_ORIGIN ["COM"]
properties('MP2/aug-cc-pvtz', properties = ['dipole'])
--------------------------------------------------------------------------

    Molecular point group: c1
  Charge       = 0
  Multiplicity = 1
  Basis Set: AUG-CC-PVTZ
    Blend: AUG-CC-PVTZ
  Basis Set: (AUG-CC-PVTZ AUX)
    Blend: AUG-CC-PVTZ-JKFIT

    Orbital Energies [Eh]
    ---------------------

    Doubly Occupied:

       1A    -15.540973     2A    -11.248158     3A    -11.241943
       4A    -11.215936     5A    -11.212675     6A     -1.227856
       7A     -1.033081     8A     -0.971373     9A     -0.806208
      10A     -0.777579    11A     -0.696598    12A     -0.649750
      13A     -0.591284    14A     -0.562089    15A     -0.531662
      16A     -0.492168    17A     -0.482694    18A     -0.468500
      19A     -0.435812    20A     -0.373176

  @DF-RHF Final Energy:  -211.19583583279081

   => Energetics <=

    Nuclear Repulsion Energy =            192.1272948015412396
    One-Electron Energy =                -665.5272321705884906
    Two-Electron Energy =                 262.2041015362564735
    Total Energy =                       -211.1958358327908059
  Basis Set: (AUG-CC-PVTZ AUX)
    Blend: AUG-CC-PVTZ-RI
    Molecular point group: c1

    Geometry (in Angstrom), charge = 0, multiplicity = 1:

       Center              X                  Y                   Z               Mass
    ------------   -----------------  -----------------  -----------------  -----------------
         N            0.017169126245    -1.157842088716    -0.369691822209    14.003074004430
         C            1.067836326245    -0.353007588716     0.258092777791    12.000000000000
         C            0.791579126245     1.023762911284    -0.056390822209    12.000000000000
         C           -0.757711873755     1.023605911284    -0.056358822209    12.000000000000
         C           -1.134605873755    -0.444251088716     0.187073177791    12.000000000000
         H            2.092778126245    -0.741659088716    -0.317861822209     1.007825032230
         H            1.298278126245    -0.623224088716     1.269525177791     1.007825032230
         H            1.213230126245     1.681598911284     0.708654177791     1.007825032230
         H            1.174549126245     1.355134911284    -1.024714822209     1.007825032230
         H           -1.179464873755     1.681314911284     0.708738177791     1.007825032230
         H           -1.140793873755     1.354957911284    -1.024646822209     1.007825032230
         H           -1.264112873755    -0.623524088716     1.269492177791     1.007825032230
         H           -2.058527873755    -0.742083088716    -0.317925822209     1.007825032230
         H            0.017272126245    -2.139900088716    -0.092656822209     1.007825032230

  Basis Set: AUG-CC-PVTZ
    Blend: AUG-CC-PVTZ
  Basis Set: (AUG-CC-PVTZ AUX)
    Blend: AUG-CC-PVTZ-JKFIT
	 Reference Energy          =    -211.1958358327908059 [Eh]
	 Singles Energy            =      -0.0000000000000000 [Eh]
	 Same-Spin Energy          =      -0.2258103167205514 [Eh]
	 Opposite-Spin Energy      =      -0.7875028774078191 [Eh]
	 Correlation Energy        =      -1.0133131941283706 [Eh]
	 Total Energy              =    -212.2091490269191638 [Eh]

	 ================> DF-SCS-MP2 Energies <==================
	-----------------------------------------------------------
	 SCS Same-Spin Scale       =       0.3333333333333333 [-]
	 SCS Opposite-Spin Scale   =       1.2000000000000000 [-]
	 SCS Same-Spin Energy      =      -0.0752701055735171 [Eh]
	 SCS Opposite-Spin Energy  =      -0.9450034528893829 [Eh]
	 SCS Correlation Energy    =      -1.0202735584629001 [Eh]
	 SCS Total Energy          =    -212.2161093912536955 [Eh]
	-----------------------------------------------------------

  Dipole Moment: [D]
     X:    -0.1394      Y:     0.0091      Z:     1.1669     Total:     1.1753

*** Psi4 exiting successfully. Buy a developer a beer!
