                               Psi4 1.4a3.dev225

  ==> Input File <==

--------------------------------------------------------------------------
#psi4
#
memory 32 gb

molecule  {
0 1
  N       -0.0000290    -1.1591300    -0.3735420
  C        1.1359148    -0.4552894     0.1755794
  C        0.7747020     1.0224440    -0.0604010
  C       -0.7746420     1.0224920    -0.0603770
  C       -1.1516700    -0.4454840     0.1831620
  H        2.0755230    -0.7432530    -0.3219180
  H        1.2811600    -0.6246790     1.2656070
  H        1.1964400     1.6801430     0.7046680
  H        1.1574950     1.3535440    -1.0288480
  H       -1.1963110     1.6801840     0.7047360
  H       -1.1574460     1.3536640    -1.0287950
  H       -1.2812310    -0.6246320     1.2655810
  H       -2.0755560    -0.7431270    -0.3219670
  H       -0.0000580    -2.1413730    -0.0976590
units angstrom
no_reorient  #important for SAPT in psi4, default
symmetry c1  #important for SAPT in psi4, default
}

set PROPERTIES_ORIGIN ["COM"]
properties('MP2/aug-cc-pvtz', properties = ['dipole'])
--------------------------------------------------------------------------

    Molecular point group: c1
  Charge       = 0
  Multiplicity = 1
  Basis Set: AUG-CC-PVTZ
    Blend: AUG-CC-PVTZ
  Basis Set: (AUG-CC-PVTZ AUX)
    Blend: AUG-CC-PVTZ-JKFIT

    Orbital Energies [Eh]
    ---------------------

    Doubly Occupied:

       1A    -15.539263     2A    -11.242784     3A    -11.242550
       4A    -11.215288     5A    -11.214722     6A     -1.222589
       7A     -1.020087     8A     -0.969501     9A     -0.803486
      10A     -0.778942    11A     -0.688392    12A     -0.654921
      13A     -0.587501    14A     -0.555081    15A     -0.513867
      16A     -0.507901    17A     -0.478294    18A     -0.469070
      19A     -0.452932    20A     -0.370957

  @DF-RHF Final Energy:  -211.22172375901934

   => Energetics <=

    Nuclear Repulsion Energy =            190.7667719182687733
    One-Electron Energy =                -662.9207379759740206
    Two-Electron Energy =                 260.9322422986859351
    Total Energy =                       -211.2217237590193122
  Basis Set: (AUG-CC-PVTZ AUX)
    Blend: AUG-CC-PVTZ-RI
    Molecular point group: c1

    Geometry (in Angstrom), charge = 0, multiplicity = 1:

       Center              X                  Y                   Z               Mass
    ------------   -----------------  -----------------  -----------------  -----------------
         N            0.002626453380    -1.140815923590    -0.356308587392    14.003074004430
         C            1.138570253380    -0.436975323590     0.192812812608    12.000000000000
         C            0.777357453380     1.040758076410    -0.043167587392    12.000000000000
         C           -0.771986546620     1.040806076410    -0.043143587392    12.000000000000
         C           -1.149014546620    -0.427169923590     0.200395412608    12.000000000000
         H            2.078178453380    -0.724938923590    -0.304684587392     1.007825032230
         H            1.283815453380    -0.606364923590     1.282840412608     1.007825032230
         H            1.199095453380     1.698457076410     0.721901412608     1.007825032230
         H            1.160150453380     1.371858076410    -1.011614587392     1.007825032230
         H           -1.193655546620     1.698498076410     0.721969412608     1.007825032230
         H           -1.154790546620     1.371978076410    -1.011561587392     1.007825032230
         H           -1.278575546620    -0.606317923590     1.282814412608     1.007825032230
         H           -2.072900546620    -0.724812923590    -0.304733587392     1.007825032230
         H            0.002597453380    -2.123058923590    -0.080425587392     1.007825032230

  Basis Set: AUG-CC-PVTZ
    Blend: AUG-CC-PVTZ
  Basis Set: (AUG-CC-PVTZ AUX)
    Blend: AUG-CC-PVTZ-JKFIT
	 Reference Energy          =    -211.2217237590193406 [Eh]
	 Singles Energy            =      -0.0000000000000000 [Eh]
	 Same-Spin Energy          =      -0.2244253866490935 [Eh]
	 Opposite-Spin Energy      =      -0.7853303031413146 [Eh]
	 Correlation Energy        =      -1.0097556897904081 [Eh]
	 Total Energy              =    -212.2314794488097505 [Eh]

	 ================> DF-SCS-MP2 Energies <==================
	-----------------------------------------------------------
	 SCS Same-Spin Scale       =       0.3333333333333333 [-]
	 SCS Opposite-Spin Scale   =       1.2000000000000000 [-]
	 SCS Same-Spin Energy      =      -0.0748084622163645 [Eh]
	 SCS Opposite-Spin Energy  =      -0.9423963637695775 [Eh]
	 SCS Correlation Energy    =      -1.0172048259859419 [Eh]
	 SCS Total Energy          =    -212.2389285850052829 [Eh]
	-----------------------------------------------------------

  Dipole Moment: [D]
     X:    -0.0358      Y:    -0.0834      Z:     1.0404     Total:     1.0443

*** Psi4 exiting successfully. Buy a developer a beer!
