                               Psi4 1.3.2 release

  ==> Input File <==

--------------------------------------------------------------------------
#psi4
#
memory 32 gb

molecule  {
0 1
  N        0.0001290    -1.1591520    -0.3736740
  C        1.1673594    -0.4612699     0.1706673
  C        0.7745390     1.0224530    -0.0603730
  C       -0.7747520     1.0222960    -0.0603410
  C       -1.1516460    -0.4455610     0.1830910
  H        2.0757380    -0.7429690    -0.3218440
  H        1.2812380    -0.6245340     1.2655430
  H        1.1961900     1.6802890     0.7046720
  H        1.1575090     1.3538250    -1.0286970
  H       -1.1965050     1.6800050     0.7047560
  H       -1.1578340     1.3536480    -1.0286290
  H       -1.2811530    -0.6248340     1.2655100
  H       -2.0755680    -0.7433930    -0.3219080
  H        0.0002320    -2.1412100    -0.0966390
units angstrom
no_reorient  #important for SAPT in psi4, default
symmetry c1  #important for SAPT in psi4, default
}

set PROPERTIES_ORIGIN ["COM"]
properties('MP2/aug-cc-pvtz', properties = ['dipole'])
--------------------------------------------------------------------------

    Molecular point group: c1
  Charge       = 0
  Multiplicity = 1
  Basis Set: AUG-CC-PVTZ
    Blend: AUG-CC-PVTZ
  Basis Set: (AUG-CC-PVTZ AUX)
    Blend: AUG-CC-PVTZ-JKFIT

    Orbital Energies [Eh]
    ---------------------

    Doubly Occupied:

       1A    -15.538855     2A    -11.242537     3A    -11.241964
       4A    -11.215796     5A    -11.215016     6A     -1.216367
       7A     -1.017878     8A     -0.969852     9A     -0.804823
      10A     -0.778967    11A     -0.685089    12A     -0.656096
      13A     -0.586300    14A     -0.554630    15A     -0.512752
      16A     -0.507878    17A     -0.477199    18A     -0.471521
      19A     -0.452705    20A     -0.370315

  @DF-RHF Final Energy:  -211.22158380123210

   => Energetics <=

    Nuclear Repulsion Energy =            190.2812249558602105
    One-Electron Energy =                -661.9725387062172786
    Two-Electron Energy =                 260.4697299491249396
    Total Energy =                       -211.2215838012321001
  Basis Set: (AUG-CC-PVTZ AUX)
    Blend: AUG-CC-PVTZ-RI
    Molecular point group: c1

    Geometry (in Angstrom), charge = 0, multiplicity = 1:

       Center              X                  Y                   Z               Mass
    ------------   -----------------  -----------------  -----------------  -----------------
         N           -0.002511323062    -1.139784320170    -0.355603313694    14.003074004430
         C            1.164719076938    -0.441902220170     0.188737986306    12.000000000000
         C            0.771898676938     1.041820679830    -0.042302313694    12.000000000000
         C           -0.777392323062     1.041663679830    -0.042270313694    12.000000000000
         C           -1.154286323062    -0.426193320170     0.201161686306    12.000000000000
         H            2.073097676938    -0.723601320170    -0.303773313694     1.007825032230
         H            1.278597676938    -0.605166320170     1.283613686306     1.007825032230
         H            1.193549676938     1.699656679830     0.722742686306     1.007825032230
         H            1.154868676938     1.373192679830    -1.010626313694     1.007825032230
         H           -1.199145323062     1.699372679830     0.722826686306     1.007825032230
         H           -1.160474323062     1.373015679830    -1.010558313694     1.007825032230
         H           -1.283793323062    -0.605466320170     1.283580686306     1.007825032230
         H           -2.078208323062    -0.724025320170    -0.303837313694     1.007825032230
         H           -0.002408323062    -2.121842320170    -0.078568313694     1.007825032230

  Basis Set: AUG-CC-PVTZ
    Blend: AUG-CC-PVTZ
  Basis Set: (AUG-CC-PVTZ AUX)
    Blend: AUG-CC-PVTZ-JKFIT
	 Reference Energy          =    -211.2215838012321001 [Eh]
	 Singles Energy            =      -0.0000000000000000 [Eh]
	 Same-Spin Energy          =      -0.2242475315374785 [Eh]
	 Opposite-Spin Energy      =      -0.7853616136369619 [Eh]
	 Correlation Energy        =      -1.0096091451744404 [Eh]
	 Total Energy              =    -212.2311929464065372 [Eh]

	 ================> DF-SCS-MP2 Energies <==================
	-----------------------------------------------------------
	 SCS Same-Spin Scale       =       0.3333333333333333 [-]
	 SCS Opposite-Spin Scale   =       1.2000000000000000 [-]
	 SCS Same-Spin Energy      =      -0.0747491771791595 [Eh]
	 SCS Opposite-Spin Energy  =      -0.9424339363643542 [Eh]
	 SCS Correlation Energy    =      -1.0171831135435137 [Eh]
	 SCS Total Energy          =    -212.2387669147756242 [Eh]
	-----------------------------------------------------------

  Dipole Moment: [D]
     X:     0.0095      Y:    -0.0729      Z:     1.0467     Total:     1.0492

*** Psi4 exiting successfully. Buy a developer a beer!
