                               Psi4 1.3.2 release

  ==> Input File <==

--------------------------------------------------------------------------
#psi4
#
memory 32 gb

molecule  {
0 1
  N        0.0001290    -1.1591520    -0.3736740
  C        1.1517350    -0.4453150     0.1831150
  C        0.7745390     1.0224530    -0.0603730
  C       -0.7747520     1.0222960    -0.0603410
  C       -1.1516460    -0.4455610     0.1830910
  H        2.0757380    -0.7429690    -0.3218440
  H        1.2812380    -0.6245340     1.2655430
  H        1.1961900     1.6802890     0.7046720
  H        1.1575090     1.3538250    -1.0286970
  H       -1.1965050     1.6800050     0.7047560
  H       -1.1578340     1.3536480    -1.0286290
  H       -1.2811530    -0.6248340     1.2655100
  H       -2.0755680    -0.7433930    -0.3219080
  H        0.0002522    -2.3336977    -0.0423389
units angstrom
no_reorient  #important for SAPT in psi4, default
symmetry c1  #important for SAPT in psi4, default
}

set PROPERTIES_ORIGIN ["COM"]
properties('MP2/aug-cc-pvtz', properties = ['dipole'])
--------------------------------------------------------------------------

    Molecular point group: c1
  Charge       = 0
  Multiplicity = 1
  Basis Set: AUG-CC-PVTZ
    Blend: AUG-CC-PVTZ
  Basis Set: (AUG-CC-PVTZ AUX)
    Blend: AUG-CC-PVTZ-JKFIT

    Orbital Energies [Eh]
    ---------------------

    Doubly Occupied:

       1A    -15.559533     2A    -11.243170     3A    -11.243151
       4A    -11.216735     5A    -11.216175     6A     -1.207887
       7A     -1.009668     8A     -0.970892     9A     -0.791203
      10A     -0.779200    11A     -0.664483    12A     -0.655117
      13A     -0.588124    14A     -0.554806    15A     -0.508094
      16A     -0.493705    17A     -0.479377    18A     -0.468112
      19A     -0.454690    20A     -0.368944

  @DF-RHF Final Energy:  -211.19387756334510

   => Energetics <=

    Nuclear Repulsion Energy =            189.5615936385846680
    One-Electron Energy =                -660.5648141460374063
    Two-Electron Energy =                 259.8093429441076410
    Total Energy =                       -211.1938775633450973
  Basis Set: (AUG-CC-PVTZ AUX)
    Blend: AUG-CC-PVTZ-RI
    Molecular point group: c1

    Geometry (in Angstrom), charge = 0, multiplicity = 1:

       Center              X                  Y                   Z               Mass
    ------------   -----------------  -----------------  -----------------  -----------------
         N            0.000126403288    -1.139748651145    -0.358474952238    14.003074004430
         C            1.151732403288    -0.425911651145     0.198314047762    12.000000000000
         C            0.774536403288     1.041856348855    -0.045173952238    12.000000000000
         C           -0.774754596712     1.041699348855    -0.045141952238    12.000000000000
         C           -1.151648596712    -0.426157651145     0.198290047762    12.000000000000
         H            2.075735403288    -0.723565651145    -0.306644952238     1.007825032230
         H            1.281235403288    -0.605130651145     1.280742047762     1.007825032230
         H            1.196187403288     1.699692348855     0.719871047762     1.007825032230
         H            1.157506403288     1.373228348855    -1.013497952238     1.007825032230
         H           -1.196507596712     1.699408348855     0.719955047762     1.007825032230
         H           -1.157836596712     1.373051348855    -1.013429952238     1.007825032230
         H           -1.281155596712    -0.605430651145     1.280709047762     1.007825032230
         H           -2.075570596712    -0.723989651145    -0.306708952238     1.007825032230
         H            0.000249603288    -2.314294351145    -0.027139852238     1.007825032230

  Basis Set: AUG-CC-PVTZ
    Blend: AUG-CC-PVTZ
  Basis Set: (AUG-CC-PVTZ AUX)
    Blend: AUG-CC-PVTZ-JKFIT
	 Reference Energy          =    -211.1938775633450973 [Eh]
	 Singles Energy            =      -0.0000000000000000 [Eh]
	 Same-Spin Energy          =      -0.2254560185192035 [Eh]
	 Opposite-Spin Energy      =      -0.7895257212597722 [Eh]
	 Correlation Energy        =      -1.0149817397789755 [Eh]
	 Total Energy              =    -212.2088593031240862 [Eh]

	 ================> DF-SCS-MP2 Energies <==================
	-----------------------------------------------------------
	 SCS Same-Spin Scale       =       0.3333333333333333 [-]
	 SCS Opposite-Spin Scale   =       1.2000000000000000 [-]
	 SCS Same-Spin Energy      =      -0.0751520061730678 [Eh]
	 SCS Opposite-Spin Energy  =      -0.9474308655117265 [Eh]
	 SCS Correlation Energy    =      -1.0225828716847944 [Eh]
	 SCS Total Energy          =    -212.2164604350298873 [Eh]
	-----------------------------------------------------------

  Dipole Moment: [D]
     X:    -0.0000      Y:    -0.0176      Z:     1.0859     Total:     1.0861

*** Psi4 exiting successfully. Buy a developer a beer!
