                               Psi4 1.3.2 release

  ==> Input File <==

--------------------------------------------------------------------------
#psi4
#
memory 32 gb

molecule  {
0 1
  N        0.0001290    -1.1591520    -0.3736740
  C        1.1826282    -0.4774373     0.1580538
  C        0.7745390     1.0224530    -0.0603730
  C       -0.7747520     1.0222960    -0.0603410
  C       -1.1516460    -0.4455610     0.1830910
  H        2.0757380    -0.7429690    -0.3218440
  H        1.2812380    -0.6245340     1.2655430
  H        1.1961900     1.6802890     0.7046720
  H        1.1575090     1.3538250    -1.0286970
  H       -1.1965050     1.6800050     0.7047560
  H       -1.1578340     1.3536480    -1.0286290
  H       -1.2811530    -0.6248340     1.2655100
  H       -2.0755680    -0.7433930    -0.3219080
  H        0.0002320    -2.1412100    -0.0966390
units angstrom
no_reorient  #important for SAPT in psi4, default
symmetry c1  #important for SAPT in psi4, default
}

set PROPERTIES_ORIGIN ["COM"]
properties('MP2/aug-cc-pvtz', properties = ['dipole'])
--------------------------------------------------------------------------

    Molecular point group: c1
  Charge       = 0
  Multiplicity = 1
  Basis Set: AUG-CC-PVTZ
    Blend: AUG-CC-PVTZ
  Basis Set: (AUG-CC-PVTZ AUX)
    Blend: AUG-CC-PVTZ-JKFIT

    Orbital Energies [Eh]
    ---------------------

    Doubly Occupied:

       1A    -15.538873     2A    -11.242907     3A    -11.241888
       4A    -11.216391     5A    -11.215169     6A     -1.215196
       7A     -1.016611     8A     -0.969693     9A     -0.805596
      10A     -0.779338    11A     -0.684385    12A     -0.657015
      13A     -0.585118    14A     -0.554669    15A     -0.518466
      16A     -0.506017    17A     -0.475617    18A     -0.471857
      19A     -0.450553    20A     -0.369380

  @DF-RHF Final Energy:  -211.21950233693477

   => Energetics <=

    Nuclear Repulsion Energy =            190.0315544714875955
    One-Electron Energy =                -661.4726359479141138
    Two-Electron Energy =                 260.2215791394917801
    Total Energy =                       -211.2195023369347382
  Basis Set: (AUG-CC-PVTZ AUX)
    Blend: AUG-CC-PVTZ-RI
    Molecular point group: c1

    Geometry (in Angstrom), charge = 0, multiplicity = 1:

       Center              X                  Y                   Z               Mass
    ------------   -----------------  -----------------  -----------------  -----------------
         N           -0.005089296594    -1.137054627642    -0.353473659161    14.003074004430
         C            1.177409903406    -0.455339927642     0.178254140839    12.000000000000
         C            0.769320703406     1.044550372358    -0.040172659161    12.000000000000
         C           -0.779970296594     1.044393372358    -0.040140659161    12.000000000000
         C           -1.156864296594    -0.423463627642     0.203291340839    12.000000000000
         H            2.070519703406    -0.720871627642    -0.301643659161     1.007825032230
         H            1.276019703406    -0.602436627642     1.285743340839     1.007825032230
         H            1.190971703406     1.702386372358     0.724872340839     1.007825032230
         H            1.152290703406     1.375922372358    -1.008496659161     1.007825032230
         H           -1.201723296594     1.702102372358     0.724956340839     1.007825032230
         H           -1.163052296594     1.375745372358    -1.008428659161     1.007825032230
         H           -1.286371296594    -0.602736627642     1.285710340839     1.007825032230
         H           -2.080786296594    -0.721295627642    -0.301707659161     1.007825032230
         H           -0.004986296594    -2.119112627642    -0.076438659161     1.007825032230

  Basis Set: AUG-CC-PVTZ
    Blend: AUG-CC-PVTZ
  Basis Set: (AUG-CC-PVTZ AUX)
    Blend: AUG-CC-PVTZ-JKFIT
	 Reference Energy          =    -211.2195023369347666 [Eh]
	 Singles Energy            =      -0.0000000000000000 [Eh]
	 Same-Spin Energy          =      -0.2241829279913657 [Eh]
	 Opposite-Spin Energy      =      -0.7854050360529377 [Eh]
	 Correlation Energy        =      -1.0095879640443033 [Eh]
	 Total Energy              =    -212.2290903009790668 [Eh]

	 ================> DF-SCS-MP2 Energies <==================
	-----------------------------------------------------------
	 SCS Same-Spin Scale       =       0.3333333333333333 [-]
	 SCS Opposite-Spin Scale   =       1.2000000000000000 [-]
	 SCS Same-Spin Energy      =      -0.0747276426637886 [Eh]
	 SCS Opposite-Spin Energy  =      -0.9424860432635251 [Eh]
	 SCS Correlation Energy    =      -1.0172136859273138 [Eh]
	 SCS Total Energy          =    -212.2367160228620833 [Eh]
	-----------------------------------------------------------

  Dipole Moment: [D]
     X:     0.0151      Y:    -0.0789      Z:     1.0276     Total:     1.0308

*** Psi4 exiting successfully. Buy a developer a beer!
