                               Psi4 1.3.2 release

  ==> Input File <==

--------------------------------------------------------------------------
#psi4
#
memory 32 gb

molecule  {
0 1
  N        0.0001290    -1.1591520    -0.3736740
  C        1.1517350    -0.4453150     0.1831150
  C        0.7745390     1.0224530    -0.0603730
  C       -0.7747520     1.0222960    -0.0603410
  C       -1.1516460    -0.4455610     0.1830910
  H        2.0757380    -0.7429690    -0.3218440
  H        1.2812380    -0.6245340     1.2655430
  H        1.1961900     1.6802890     0.7046720
  H        1.1575090     1.3538250    -1.0286970
  H       -1.1965050     1.6800050     0.7047560
  H       -1.1578340     1.3536480    -1.0286290
  H       -1.2811530    -0.6248340     1.2655100
  H       -2.0755680    -0.7433930    -0.3219080
  H        0.0002320    -2.1412100    -0.0966390
units angstrom
no_reorient  #important for SAPT in psi4, default
symmetry c1  #important for SAPT in psi4, default
}

set PROPERTIES_ORIGIN ["COM"]
properties('MP2/aug-cc-pvtz', properties = ['dipole'])
--------------------------------------------------------------------------

    Molecular point group: c1
  Charge       = 0
  Multiplicity = 1
  Basis Set: AUG-CC-PVTZ
    Blend: AUG-CC-PVTZ
  Basis Set: (AUG-CC-PVTZ AUX)
    Blend: AUG-CC-PVTZ-JKFIT

    Orbital Energies [Eh]
    ---------------------

    Doubly Occupied:

       1A    -15.538921     2A    -11.242242     3A    -11.242224
       4A    -11.215359     5A    -11.214800     6A     -1.217648
       7A     -1.019370     8A     -0.970043     9A     -0.804389
      10A     -0.778603    11A     -0.686090    12A     -0.655085
      13A     -0.587339    14A     -0.554812    15A     -0.510324
      16A     -0.507292    17A     -0.478719    18A     -0.470972
      19A     -0.453996    20A     -0.371153

  @DF-RHF Final Energy:  -211.22208733830010

   => Energetics <=

    Nuclear Repulsion Energy =            190.5350322589569600
    One-Electron Energy =                -662.4754766969992943
    Two-Electron Energy =                 260.7183570997422066
    Total Energy =                       -211.2220873383001276
  Basis Set: (AUG-CC-PVTZ AUX)
    Blend: AUG-CC-PVTZ-RI
    Molecular point group: c1

    Geometry (in Angstrom), charge = 0, multiplicity = 1:

       Center              X                  Y                   Z               Mass
    ------------   -----------------  -----------------  -----------------  -----------------
         N            0.000126689725    -1.142478134347    -0.357704974672    14.003074004430
         C            1.151732689725    -0.428641134347     0.199084025328    12.000000000000
         C            0.774536689725     1.039126865653    -0.044403974672    12.000000000000
         C           -0.774754310275     1.038969865653    -0.044371974672    12.000000000000
         C           -1.151648310275    -0.428887134347     0.199060025328    12.000000000000
         H            2.075735689725    -0.726295134347    -0.305874974672     1.007825032230
         H            1.281235689725    -0.607860134347     1.281512025328     1.007825032230
         H            1.196187689725     1.696962865653     0.720641025328     1.007825032230
         H            1.157506689725     1.370498865653    -1.012727974672     1.007825032230
         H           -1.196507310275     1.696678865653     0.720725025328     1.007825032230
         H           -1.157836310275     1.370321865653    -1.012659974672     1.007825032230
         H           -1.281155310275    -0.608160134347     1.281479025328     1.007825032230
         H           -2.075570310275    -0.726719134347    -0.305938974672     1.007825032230
         H            0.000229689725    -2.124536134347    -0.080669974672     1.007825032230

  Basis Set: AUG-CC-PVTZ
    Blend: AUG-CC-PVTZ
  Basis Set: (AUG-CC-PVTZ AUX)
    Blend: AUG-CC-PVTZ-JKFIT
	 Reference Energy          =    -211.2220873383000992 [Eh]
	 Singles Energy            =      -0.0000000000000000 [Eh]
	 Same-Spin Energy          =      -0.2243519546122525 [Eh]
	 Opposite-Spin Energy      =      -0.7854067252054481 [Eh]
	 Correlation Energy        =      -1.0097586798177005 [Eh]
	 Total Energy              =    -212.2318460181178068 [Eh]

	 ================> DF-SCS-MP2 Energies <==================
	-----------------------------------------------------------
	 SCS Same-Spin Scale       =       0.3333333333333333 [-]
	 SCS Opposite-Spin Scale   =       1.2000000000000000 [-]
	 SCS Same-Spin Energy      =      -0.0747839848707508 [Eh]
	 SCS Opposite-Spin Energy  =      -0.9424880702465377 [Eh]
	 SCS Correlation Energy    =      -1.0172720551172885 [Eh]
	 SCS Total Energy          =    -212.2393593934173737 [Eh]
	-----------------------------------------------------------

  Dipole Moment: [D]
     X:    -0.0000      Y:    -0.0656      Z:     1.0651     Total:     1.0671

*** Psi4 exiting successfully. Buy a developer a beer!
