                               Psi4 1.4a3.dev225

  ==> Input File <==

--------------------------------------------------------------------------
#psi4
#
memory 32 gb

molecule  {
0 1
  N       -0.0000290    -1.1591300    -0.3735420
  C        1.1516400    -0.4455460     0.1831810
  C        0.7747020     1.0224440    -0.0604010
  C       -0.7746420     1.0224920    -0.0603770
  C       -1.1516700    -0.4454840     0.1831620
  H        2.0755230    -0.7432530    -0.3219180
  H        1.2811600    -0.6246790     1.2656070
  H        1.1964400     1.6801430     0.7046680
  H        1.1574950     1.3535440    -1.0288480
  H       -1.1963110     1.6801840     0.7047360
  H       -1.1574460     1.3536640    -1.0287950
  H       -1.2812310    -0.6246320     1.2655810
  H       -2.0755560    -0.7431270    -0.3219670
  H       -0.0000586    -2.1606279    -0.0922509
units angstrom
no_reorient  #important for SAPT in psi4, default
symmetry c1  #important for SAPT in psi4, default
}

set PROPERTIES_ORIGIN ["COM"]
properties('MP2/aug-cc-pvtz', properties = ['dipole'])
--------------------------------------------------------------------------

    Molecular point group: c1
  Charge       = 0
  Multiplicity = 1
  Basis Set: AUG-CC-PVTZ
    Blend: AUG-CC-PVTZ
  Basis Set: (AUG-CC-PVTZ AUX)
    Blend: AUG-CC-PVTZ-JKFIT

    Orbital Energies [Eh]
    ---------------------

    Doubly Occupied:

       1A    -15.541134     2A    -11.242279     3A    -11.242260
       4A    -11.215432     5A    -11.214873     6A     -1.216156
       7A     -1.018003     8A     -0.970040     9A     -0.802561
      10A     -0.778606    11A     -0.683796    12A     -0.655080
      13A     -0.587367    14A     -0.554795    15A     -0.508738
      16A     -0.507304    17A     -0.478679    18A     -0.470765
      19A     -0.454046    20A     -0.370824

  @DF-RHF Final Energy:  -211.22106056687636

   => Energetics <=

    Nuclear Repulsion Energy =            190.4248289109185350
    One-Electron Energy =                -662.2663024346936709
    Two-Electron Energy =                 260.6204129568987469
    Total Energy =                       -211.2210605668763606
  Basis Set: (AUG-CC-PVTZ AUX)
    Blend: AUG-CC-PVTZ-RI
    Molecular point group: c1

    Geometry (in Angstrom), charge = 0, multiplicity = 1:

       Center              X                  Y                   Z               Mass
    ------------   -----------------  -----------------  -----------------  -----------------
         N           -0.000028569901    -1.142187957200    -0.357668723301    14.003074004430
         C            1.151640430099    -0.428603957200     0.199054276699    12.000000000000
         C            0.774702430099     1.039386042800    -0.044527723301    12.000000000000
         C           -0.774641569901     1.039434042800    -0.044503723301    12.000000000000
         C           -1.151669569901    -0.428541957200     0.199035276699    12.000000000000
         H            2.075523430099    -0.726310957200    -0.306044723301     1.007825032230
         H            1.281160430099    -0.607736957200     1.281480276699     1.007825032230
         H            1.196440430099     1.697085042800     0.720541276699     1.007825032230
         H            1.157495430099     1.370486042800    -1.012974723301     1.007825032230
         H           -1.196310569901     1.697126042800     0.720609276699     1.007825032230
         H           -1.157445569901     1.370606042800    -1.012921723301     1.007825032230
         H           -1.281230569901    -0.607689957200     1.281454276699     1.007825032230
         H           -2.075555569901    -0.726184957200    -0.306093723301     1.007825032230
         H           -0.000058169901    -2.143685857200    -0.076377623301     1.007825032230

  Basis Set: AUG-CC-PVTZ
    Blend: AUG-CC-PVTZ
  Basis Set: (AUG-CC-PVTZ AUX)
    Blend: AUG-CC-PVTZ-JKFIT
	 Reference Energy          =    -211.2210605668763606 [Eh]
	 Singles Energy            =      -0.0000000000000000 [Eh]
	 Same-Spin Energy          =      -0.2244680023940621 [Eh]
	 Opposite-Spin Energy      =      -0.7857682660348941 [Eh]
	 Correlation Energy        =      -1.0102362684289563 [Eh]
	 Total Energy              =    -212.2312968353053293 [Eh]

	 ================> DF-SCS-MP2 Energies <==================
	-----------------------------------------------------------
	 SCS Same-Spin Scale       =       0.3333333333333333 [-]
	 SCS Opposite-Spin Scale   =       1.2000000000000000 [-]
	 SCS Same-Spin Energy      =      -0.0748226674646874 [Eh]
	 SCS Opposite-Spin Energy  =      -0.9429219192418730 [Eh]
	 SCS Correlation Energy    =      -1.0177445867065602 [Eh]
	 SCS Total Energy          =    -212.2388051535829163 [Eh]
	-----------------------------------------------------------

  Dipole Moment: [D]
     X:    -0.0000      Y:    -0.0666      Z:     1.0652     Total:     1.0673

*** Psi4 exiting successfully. Buy a developer a beer!
