                               Psi4 1.4a3.dev225

  ==> Input File <==

--------------------------------------------------------------------------
#psi4
#
memory 32 gb

molecule  {
0 1
  N       -0.0000290    -1.1591300    -0.3735420
  C        1.1516400    -0.4455460     0.1831810
  C        0.7747020     1.0224440    -0.0604010
  C       -0.7746420     1.0224920    -0.0603770
  C       -1.1516700    -0.4454840     0.1831620
  H        2.0755230    -0.7432530    -0.3219180
  H        1.2811600    -0.6246790     1.2656070
  H        1.1964400     1.6801430     0.7046680
  H        1.1574950     1.3535440    -1.0288480
  H       -1.1963110     1.6801840     0.7047360
  H       -1.1574460     1.3536640    -1.0287950
  H       -1.2812310    -0.6246320     1.2655810
  H       -2.0755560    -0.7431270    -0.3219670
  H       -0.0000566    -2.0932357    -0.1111793
units angstrom
no_reorient  #important for SAPT in psi4, default
symmetry c1  #important for SAPT in psi4, default
}

set PROPERTIES_ORIGIN ["COM"]
properties('MP2/aug-cc-pvtz', properties = ['dipole'])
--------------------------------------------------------------------------

    Molecular point group: c1
  Charge       = 0
  Multiplicity = 1
  Basis Set: AUG-CC-PVTZ
    Blend: AUG-CC-PVTZ
  Basis Set: (AUG-CC-PVTZ AUX)
    Blend: AUG-CC-PVTZ-JKFIT

    Orbital Energies [Eh]
    ---------------------

    Doubly Occupied:

       1A    -15.533067     2A    -11.242185     3A    -11.242167
       4A    -11.215218     5A    -11.214659     6A     -1.222068
       7A     -1.023147     8A     -0.969993     9A     -0.809591
      10A     -0.778637    11A     -0.691774    12A     -0.655136
      13A     -0.587374    14A     -0.555004    15A     -0.514294
      16A     -0.507389    17A     -0.478658    18A     -0.471271
      19A     -0.454009    20A     -0.371852

  @DF-RHF Final Energy:  -211.22178568304801

   => Energetics <=

    Nuclear Repulsion Energy =            190.8207649407828796
    One-Electron Energy =                -663.0101161283729425
    Two-Electron Energy =                 260.9675655045421081
    Total Energy =                       -211.2217856830479832
  Basis Set: (AUG-CC-PVTZ AUX)
    Blend: AUG-CC-PVTZ-RI
    Molecular point group: c1

    Geometry (in Angstrom), charge = 0, multiplicity = 1:

       Center              X                  Y                   Z               Mass
    ------------   -----------------  -----------------  -----------------  -----------------
         N           -0.000028598261    -1.143143581262    -0.357400317840    14.003074004430
         C            1.151640401739    -0.429559581262     0.199322682160    12.000000000000
         C            0.774702401739     1.038430418738    -0.044259317840    12.000000000000
         C           -0.774641598261     1.038478418738    -0.044235317840    12.000000000000
         C           -1.151669598261    -0.429497581262     0.199303682160    12.000000000000
         H            2.075523401739    -0.727266581262    -0.305776317840     1.007825032230
         H            1.281160401739    -0.608692581262     1.281748682160     1.007825032230
         H            1.196440401739     1.696129418738     0.720809682160     1.007825032230
         H            1.157495401739     1.369530418738    -1.012706317840     1.007825032230
         H           -1.196310598261     1.696170418738     0.720877682160     1.007825032230
         H           -1.157445598261     1.369650418738    -1.012653317840     1.007825032230
         H           -1.281230598261    -0.608645581262     1.281722682160     1.007825032230
         H           -2.075555598261    -0.727140581262    -0.305825317840     1.007825032230
         H           -0.000056198261    -2.077249281262    -0.095037617840     1.007825032230

  Basis Set: AUG-CC-PVTZ
    Blend: AUG-CC-PVTZ
  Basis Set: (AUG-CC-PVTZ AUX)
    Blend: AUG-CC-PVTZ-JKFIT
	 Reference Energy          =    -211.2217856830480116 [Eh]
	 Singles Energy            =      -0.0000000000000000 [Eh]
	 Same-Spin Energy          =      -0.2240547168346234 [Eh]
	 Opposite-Spin Energy      =      -0.7845388691066175 [Eh]
	 Correlation Energy        =      -1.0085935859412409 [Eh]
	 Total Energy              =    -212.2303792689892532 [Eh]

	 ================> DF-SCS-MP2 Energies <==================
	-----------------------------------------------------------
	 SCS Same-Spin Scale       =       0.3333333333333333 [-]
	 SCS Opposite-Spin Scale   =       1.2000000000000000 [-]
	 SCS Same-Spin Energy      =      -0.0746849056115411 [Eh]
	 SCS Opposite-Spin Energy  =      -0.9414466429279410 [Eh]
	 SCS Correlation Energy    =      -1.0161315485394822 [Eh]
	 SCS Total Energy          =    -212.2379172315874882 [Eh]
	-----------------------------------------------------------

  Dipole Moment: [D]
     X:    -0.0000      Y:    -0.0625      Z:     1.0595     Total:     1.0613

*** Psi4 exiting successfully. Buy a developer a beer!
