                               Psi4 1.3.2 release

  ==> Input File <==

--------------------------------------------------------------------------
#psi4
#
memory 32 gb

molecule  {
0 1
  N        0.0001290    -1.1591520    -0.3736740
  C        1.3089674    -0.3478526     0.2591351
  C        0.7745390     1.0224530    -0.0603730
  C       -0.7747520     1.0222960    -0.0603410
  C       -1.1516460    -0.4455610     0.1830910
  H        2.0757380    -0.7429690    -0.3218440
  H        1.2812380    -0.6245340     1.2655430
  H        1.1961900     1.6802890     0.7046720
  H        1.1575090     1.3538250    -1.0286970
  H       -1.1965050     1.6800050     0.7047560
  H       -1.1578340     1.3536480    -1.0286290
  H       -1.2811530    -0.6248340     1.2655100
  H       -2.0755680    -0.7433930    -0.3219080
  H        0.0002320    -2.1412100    -0.0966390
units angstrom
no_reorient  #important for SAPT in psi4, default
symmetry c1  #important for SAPT in psi4, default
}

set PROPERTIES_ORIGIN ["COM"]
properties('MP2/aug-cc-pvtz', properties = ['dipole'])
--------------------------------------------------------------------------

    Molecular point group: c1
  Charge       = 0
  Multiplicity = 1
  Basis Set: AUG-CC-PVTZ
    Blend: AUG-CC-PVTZ
  Basis Set: (AUG-CC-PVTZ AUX)
    Blend: AUG-CC-PVTZ-JKFIT

    Orbital Energies [Eh]
    ---------------------

    Doubly Occupied:

       1A    -15.533860     2A    -11.245749     3A    -11.238164
       4A    -11.218548     5A    -11.216259     6A     -1.181857
       7A     -1.017501     8A     -0.973111     9A     -0.814574
      10A     -0.776722    11A     -0.667075    12A     -0.660921
      13A     -0.594565    14A     -0.556433    15A     -0.518504
      16A     -0.491906    17A     -0.472949    18A     -0.465782
      19A     -0.451320    20A     -0.362824

  @DF-RHF Final Energy:  -211.19266760445589

   => Energetics <=

    Nuclear Repulsion Energy =            188.3181968982470664
    One-Electron Energy =                -658.1044826228395550
    Two-Electron Energy =                 258.5936181201366253
    Total Energy =                       -211.1926676044558917
  Basis Set: (AUG-CC-PVTZ AUX)
    Blend: AUG-CC-PVTZ-RI
    Molecular point group: c1

    Geometry (in Angstrom), charge = 0, multiplicity = 1:

       Center              X                  Y                   Z               Mass
    ------------   -----------------  -----------------  -----------------  -----------------
         N           -0.026420318917    -1.158933617918    -0.370540155281    14.003074004430
         C            1.282418081083    -0.347634217918     0.262268944719    12.000000000000
         C            0.747989681083     1.022671382082    -0.057239155281    12.000000000000
         C           -0.801301318917     1.022514382082    -0.057207155281    12.000000000000
         C           -1.178195318917    -0.445342617918     0.186224844719    12.000000000000
         H            2.049188681083    -0.742750617918    -0.318710155281     1.007825032230
         H            1.254688681083    -0.624315617918     1.268676844719     1.007825032230
         H            1.169640681083     1.680507382082     0.707805844719     1.007825032230
         H            1.130959681083     1.354043382082    -1.025563155281     1.007825032230
         H           -1.223054318917     1.680223382082     0.707889844719     1.007825032230
         H           -1.184383318917     1.353866382082    -1.025495155281     1.007825032230
         H           -1.307702318917    -0.624615617918     1.268643844719     1.007825032230
         H           -2.102117318917    -0.743174617918    -0.318774155281     1.007825032230
         H           -0.026317318917    -2.140991617918    -0.093505155281     1.007825032230

  Basis Set: AUG-CC-PVTZ
    Blend: AUG-CC-PVTZ
  Basis Set: (AUG-CC-PVTZ AUX)
    Blend: AUG-CC-PVTZ-JKFIT
	 Reference Energy          =    -211.1926676044558917 [Eh]
	 Singles Energy            =      -0.0000000000000000 [Eh]
	 Same-Spin Energy          =      -0.2251663477341141 [Eh]
	 Opposite-Spin Energy      =      -0.7888590629348458 [Eh]
	 Correlation Energy        =      -1.0140254106689599 [Eh]
	 Total Energy              =    -212.2066930151248414 [Eh]

	 ================> DF-SCS-MP2 Energies <==================
	-----------------------------------------------------------
	 SCS Same-Spin Scale       =       0.3333333333333333 [-]
	 SCS Opposite-Spin Scale   =       1.2000000000000000 [-]
	 SCS Same-Spin Energy      =      -0.0750554492447047 [Eh]
	 SCS Opposite-Spin Energy  =      -0.9466308755218149 [Eh]
	 SCS Correlation Energy    =      -1.0216863247665195 [Eh]
	 SCS Total Energy          =    -212.2143539292223977 [Eh]
	-----------------------------------------------------------

  Dipole Moment: [D]
     X:     0.2220      Y:     0.0823      Z:     1.2176     Total:     1.2404

*** Psi4 exiting successfully. Buy a developer a beer!
