                               Psi4 1.4a3.dev225

  ==> Input File <==

--------------------------------------------------------------------------
#psi4
#
memory 32 gb

molecule  {
0 1
  N       -0.0000290    -1.1591300    -0.3735420
  C        1.1673652    -0.4358026     0.1907826
  C        0.7747020     1.0224440    -0.0604010
  C       -0.7746420     1.0224920    -0.0603770
  C       -1.1516700    -0.4454840     0.1831620
  H        2.0755230    -0.7432530    -0.3219180
  H        1.2811600    -0.6246790     1.2656070
  H        1.1964400     1.6801430     0.7046680
  H        1.1574950     1.3535440    -1.0288480
  H       -1.1963110     1.6801840     0.7047360
  H       -1.1574460     1.3536640    -1.0287950
  H       -1.2812310    -0.6246320     1.2655810
  H       -2.0755560    -0.7431270    -0.3219670
  H       -0.0000580    -2.1413730    -0.0976590
units angstrom
no_reorient  #important for SAPT in psi4, default
symmetry c1  #important for SAPT in psi4, default
}

set PROPERTIES_ORIGIN ["COM"]
properties('MP2/aug-cc-pvtz', properties = ['dipole'])
--------------------------------------------------------------------------

    Molecular point group: c1
  Charge       = 0
  Multiplicity = 1
  Basis Set: AUG-CC-PVTZ
    Blend: AUG-CC-PVTZ
  Basis Set: (AUG-CC-PVTZ AUX)
    Blend: AUG-CC-PVTZ-JKFIT

    Orbital Energies [Eh]
    ---------------------

    Doubly Occupied:

       1A    -15.538487     2A    -11.242029     3A    -11.241711
       4A    -11.215461     5A    -11.214892     6A     -1.213020
       7A     -1.018730     8A     -0.970494     9A     -0.805371
      10A     -0.778290    11A     -0.683874    12A     -0.655348
      13A     -0.587465    14A     -0.554713    15A     -0.509865
      16A     -0.503702    17A     -0.479321    18A     -0.472175
      19A     -0.455118    20A     -0.371018

  @DF-RHF Final Energy:  -211.22172241389472

   => Energetics <=

    Nuclear Repulsion Energy =            190.3041467524210759
    One-Electron Energy =                -662.0295717669250735
    Two-Electron Energy =                 260.5037026006093015
    Total Energy =                       -211.2217224138947245
  Basis Set: (AUG-CC-PVTZ AUX)
    Blend: AUG-CC-PVTZ-RI
    Molecular point group: c1

    Geometry (in Angstrom), charge = 0, multiplicity = 1:

       Center              X                  Y                   Z               Mass
    ------------   -----------------  -----------------  -----------------  -----------------
         N           -0.002683610198    -1.144106061297    -0.358875485065    14.003074004430
         C            1.164710589802    -0.420778661297     0.205449114935    12.000000000000
         C            0.772047389802     1.037467938703    -0.045734485065    12.000000000000
         C           -0.777296610198     1.037515938703    -0.045710485065    12.000000000000
         C           -1.154324610198    -0.430460061297     0.197828514935    12.000000000000
         H            2.072868389802    -0.728229061297    -0.307251485065     1.007825032230
         H            1.278505389802    -0.609655061297     1.280273514935     1.007825032230
         H            1.193785389802     1.695166938703     0.719334514935     1.007825032230
         H            1.154840389802     1.368567938703    -1.014181485065     1.007825032230
         H           -1.198965610198     1.695207938703     0.719402514935     1.007825032230
         H           -1.160100610198     1.368687938703    -1.014128485065     1.007825032230
         H           -1.283885610198    -0.609608061297     1.280247514935     1.007825032230
         H           -2.078210610198    -0.728103061297    -0.307300485065     1.007825032230
         H           -0.002712610198    -2.126349061297    -0.082992485065     1.007825032230

  Basis Set: AUG-CC-PVTZ
    Blend: AUG-CC-PVTZ
  Basis Set: (AUG-CC-PVTZ AUX)
    Blend: AUG-CC-PVTZ-JKFIT
	 Reference Energy          =    -211.2217224138947245 [Eh]
	 Singles Energy            =      -0.0000000000000000 [Eh]
	 Same-Spin Energy          =      -0.2243057542955208 [Eh]
	 Opposite-Spin Energy      =      -0.7855239979488933 [Eh]
	 Correlation Energy        =      -1.0098297522444142 [Eh]
	 Total Energy              =    -212.2315521661391244 [Eh]

	 ================> DF-SCS-MP2 Energies <==================
	-----------------------------------------------------------
	 SCS Same-Spin Scale       =       0.3333333333333333 [-]
	 SCS Opposite-Spin Scale   =       1.2000000000000000 [-]
	 SCS Same-Spin Energy      =      -0.0747685847651736 [Eh]
	 SCS Opposite-Spin Energy  =      -0.9426287975386719 [Eh]
	 SCS Correlation Energy    =      -1.0173973823038456 [Eh]
	 SCS Total Energy          =    -212.2391197961985654 [Eh]
	-----------------------------------------------------------

  Dipole Moment: [D]
     X:     0.0332      Y:    -0.0503      Z:     1.0849     Total:     1.0866

*** Psi4 exiting successfully. Buy a developer a beer!
