                               Psi4 1.3.2 release

  ==> Input File <==

--------------------------------------------------------------------------
#psi4
#
memory 32 gb

molecule  {
0 1
  N        0.0001290    -1.1591520    -0.3736740
  C        1.1357599    -0.4295776     0.1953931
  C        0.7745390     1.0224530    -0.0603730
  C       -0.7747520     1.0222960    -0.0603410
  C       -1.1516460    -0.4455610     0.1830910
  H        2.0757380    -0.7429690    -0.3218440
  H        1.2812380    -0.6245340     1.2655430
  H        1.1961900     1.6802890     0.7046720
  H        1.1575090     1.3538250    -1.0286970
  H       -1.1965050     1.6800050     0.7047560
  H       -1.1578340     1.3536480    -1.0286290
  H       -1.2811530    -0.6248340     1.2655100
  H       -2.0755680    -0.7433930    -0.3219080
  H        0.0002320    -2.1412100    -0.0966390
units angstrom
no_reorient  #important for SAPT in psi4, default
symmetry c1  #important for SAPT in psi4, default
}

set PROPERTIES_ORIGIN ["COM"]
properties('MP2/aug-cc-pvtz', properties = ['dipole'])
--------------------------------------------------------------------------

    Molecular point group: c1
  Charge       = 0
  Multiplicity = 1
  Basis Set: AUG-CC-PVTZ
    Blend: AUG-CC-PVTZ
  Basis Set: (AUG-CC-PVTZ AUX)
    Blend: AUG-CC-PVTZ-JKFIT

    Orbital Energies [Eh]
    ---------------------

    Doubly Occupied:

       1A    -15.539068     2A    -11.242700     3A    -11.241998
       4A    -11.215192     5A    -11.214413     6A     -1.219043
       7A     -1.021092     8A     -0.970254     9A     -0.804239
      10A     -0.778273    11A     -0.687361    12A     -0.654035
      13A     -0.588242    14A     -0.555220    15A     -0.513268
      16A     -0.502478    17A     -0.480025    18A     -0.470227
      19A     -0.454272    20A     -0.371887

  @DF-RHF Final Energy:  -211.22108167693605

   => Energetics <=

    Nuclear Repulsion Energy =            190.7926884627038646
    One-Electron Energy =                -662.9809650857736187
    Two-Electron Energy =                 260.9671949461337590
    Total Energy =                       -211.2210816769360235
  Basis Set: (AUG-CC-PVTZ AUX)
    Blend: AUG-CC-PVTZ-RI
    Molecular point group: c1

    Geometry (in Angstrom), charge = 0, multiplicity = 1:

       Center              X                  Y                   Z               Mass
    ------------   -----------------  -----------------  -----------------  -----------------
         N            0.002823914456    -1.145135225976    -0.359778000504    14.003074004430
         C            1.138454814456    -0.415560825976     0.209289099496    12.000000000000
         C            0.777233914456     1.036469774024    -0.046477000504    12.000000000000
         C           -0.772057085544     1.036312774024    -0.046445000504    12.000000000000
         C           -1.148951085544    -0.431544225976     0.196986999496    12.000000000000
         H            2.078432914456    -0.728952225976    -0.307948000504     1.007825032230
         H            1.283932914456    -0.610517225976     1.279438999496     1.007825032230
         H            1.198884914456     1.694305774024     0.718567999496     1.007825032230
         H            1.160203914456     1.367841774024    -1.014801000504     1.007825032230
         H           -1.193810085544     1.694021774024     0.718651999496     1.007825032230
         H           -1.155139085544     1.367664774024    -1.014733000504     1.007825032230
         H           -1.278458085544    -0.610817225976     1.279405999496     1.007825032230
         H           -2.072873085544    -0.729376225976    -0.308012000504     1.007825032230
         H            0.002926914456    -2.127193225976    -0.082743000504     1.007825032230

  Basis Set: AUG-CC-PVTZ
    Blend: AUG-CC-PVTZ
  Basis Set: (AUG-CC-PVTZ AUX)
    Blend: AUG-CC-PVTZ-JKFIT
	 Reference Energy          =    -211.2210816769360520 [Eh]
	 Singles Energy            =      -0.0000000000000000 [Eh]
	 Same-Spin Energy          =      -0.2244960826411191 [Eh]
	 Opposite-Spin Energy      =      -0.7855396870608707 [Eh]
	 Correlation Energy        =      -1.0100357697019899 [Eh]
	 Total Energy              =    -212.2311174466380521 [Eh]

	 ================> DF-SCS-MP2 Energies <==================
	-----------------------------------------------------------
	 SCS Same-Spin Scale       =       0.3333333333333333 [-]
	 SCS Opposite-Spin Scale   =       1.2000000000000000 [-]
	 SCS Same-Spin Energy      =      -0.0748320275470397 [Eh]
	 SCS Opposite-Spin Energy  =      -0.9426476244730448 [Eh]
	 SCS Correlation Energy    =      -1.0174796520200846 [Eh]
	 SCS Total Energy          =    -212.2385613289561377 [Eh]
	-----------------------------------------------------------

  Dipole Moment: [D]
     X:    -0.0134      Y:    -0.0568      Z:     1.0831     Total:     1.0847

*** Psi4 exiting successfully. Buy a developer a beer!
