                               Psi4 1.3.2 release

  ==> Input File <==

--------------------------------------------------------------------------
#psi4
#
memory 32 gb

molecule  {
0 1
  N        0.0001290    -1.1591520    -0.3736740
  C        1.0731188    -0.4940462     0.1451049
  C        0.7745390     1.0224530    -0.0603730
  C       -0.7747520     1.0222960    -0.0603410
  C       -1.1516460    -0.4455610     0.1830910
  H        2.0757380    -0.7429690    -0.3218440
  H        1.2812380    -0.6245340     1.2655430
  H        1.1961900     1.6802890     0.7046720
  H        1.1575090     1.3538250    -1.0286970
  H       -1.1965050     1.6800050     0.7047560
  H       -1.1578340     1.3536480    -1.0286290
  H       -1.2811530    -0.6248340     1.2655100
  H       -2.0755680    -0.7433930    -0.3219080
  H        0.0002320    -2.1412100    -0.0966390
units angstrom
no_reorient  #important for SAPT in psi4, default
symmetry c1  #important for SAPT in psi4, default
}

set PROPERTIES_ORIGIN ["COM"]
properties('MP2/aug-cc-pvtz', properties = ['dipole'])
--------------------------------------------------------------------------

    Molecular point group: c1
  Charge       = 0
  Multiplicity = 1
  Basis Set: AUG-CC-PVTZ
    Blend: AUG-CC-PVTZ
  Basis Set: (AUG-CC-PVTZ AUX)
    Blend: AUG-CC-PVTZ-JKFIT

    Orbital Energies [Eh]
    ---------------------

    Doubly Occupied:

       1A    -15.540750     2A    -11.245431     3A    -11.244970
       4A    -11.215338     5A    -11.214697     6A     -1.245670
       7A     -1.024164     8A     -0.967252     9A     -0.800464
      10A     -0.780541    11A     -0.698098    12A     -0.655328
      13A     -0.591376    14A     -0.557236    15A     -0.529224
      16A     -0.507213    17A     -0.478578    18A     -0.458212
      19A     -0.448591    20A     -0.367796

  @DF-RHF Final Energy:  -211.21152188170134

   => Energetics <=

    Nuclear Repulsion Energy =            191.7367730326231481
    One-Electron Energy =                -664.7547299611081826
    Two-Electron Energy =                 261.8064350467836903
    Total Energy =                       -211.2115218817013442
  Basis Set: (AUG-CC-PVTZ AUX)
    Blend: AUG-CC-PVTZ-RI
    Molecular point group: c1

    Geometry (in Angstrom), charge = 0, multiplicity = 1:

       Center              X                  Y                   Z               Mass
    ------------   -----------------  -----------------  -----------------  -----------------
         N            0.013400194046    -1.134250392561    -0.351287375925    14.003074004430
         C            1.086389994046    -0.469144592561     0.167491524075    12.000000000000
         C            0.787810194046     1.047354607439    -0.037986375925    12.000000000000
         C           -0.761480805954     1.047197607439    -0.037954375925    12.000000000000
         C           -1.138374805954    -0.420659392561     0.205477624075    12.000000000000
         H            2.089009194046    -0.718067392561    -0.299457375925     1.007825032230
         H            1.294509194046    -0.599632392561     1.287929624075     1.007825032230
         H            1.209461194046     1.705190607439     0.727058624075     1.007825032230
         H            1.170780194046     1.378726607439    -1.006310375925     1.007825032230
         H           -1.183233805954     1.704906607439     0.727142624075     1.007825032230
         H           -1.144562805954     1.378549607439    -1.006242375925     1.007825032230
         H           -1.267881805954    -0.599932392561     1.287896624075     1.007825032230
         H           -2.062296805954    -0.718491392561    -0.299521375925     1.007825032230
         H            0.013503194046    -2.116308392561    -0.074252375925     1.007825032230

  Basis Set: AUG-CC-PVTZ
    Blend: AUG-CC-PVTZ
  Basis Set: (AUG-CC-PVTZ AUX)
    Blend: AUG-CC-PVTZ-JKFIT
	 Reference Energy          =    -211.2115218817013442 [Eh]
	 Singles Energy            =      -0.0000000000000000 [Eh]
	 Same-Spin Energy          =      -0.2250539693587847 [Eh]
	 Opposite-Spin Energy      =      -0.7856015541814498 [Eh]
	 Correlation Energy        =      -1.0106555235402346 [Eh]
	 Total Energy              =    -212.2221774052415810 [Eh]

	 ================> DF-SCS-MP2 Energies <==================
	-----------------------------------------------------------
	 SCS Same-Spin Scale       =       0.3333333333333333 [-]
	 SCS Opposite-Spin Scale   =       1.2000000000000000 [-]
	 SCS Same-Spin Energy      =      -0.0750179897862616 [Eh]
	 SCS Opposite-Spin Energy  =      -0.9427218650177398 [Eh]
	 SCS Correlation Energy    =      -1.0177398548040013 [Eh]
	 SCS Total Energy          =    -212.2292617365053502 [Eh]
	-----------------------------------------------------------

  Dipole Moment: [D]
     X:    -0.2084      Y:    -0.1526      Z:     0.9316     Total:     0.9667

*** Psi4 exiting successfully. Buy a developer a beer!
