                               Psi4 1.4a3.dev225

  ==> Input File <==

--------------------------------------------------------------------------
#psi4
#
memory 32 gb

molecule  {
0 1
  N       -0.0000290    -1.1591300    -0.3735420
  C        1.1909529    -0.4211874     0.2021851
  C        0.7747020     1.0224440    -0.0604010
  C       -0.7746420     1.0224920    -0.0603770
  C       -1.1516700    -0.4454840     0.1831620
  H        2.0755230    -0.7432530    -0.3219180
  H        1.2811600    -0.6246790     1.2656070
  H        1.1964400     1.6801430     0.7046680
  H        1.1574950     1.3535440    -1.0288480
  H       -1.1963110     1.6801840     0.7047360
  H       -1.1574460     1.3536640    -1.0287950
  H       -1.2812310    -0.6246320     1.2655810
  H       -2.0755560    -0.7431270    -0.3219670
  H       -0.0000580    -2.1413730    -0.0976590
units angstrom
no_reorient  #important for SAPT in psi4, default
symmetry c1  #important for SAPT in psi4, default
}

set PROPERTIES_ORIGIN ["COM"]
properties('MP2/aug-cc-pvtz', properties = ['dipole'])
--------------------------------------------------------------------------

    Molecular point group: c1
  Charge       = 0
  Multiplicity = 1
  Basis Set: AUG-CC-PVTZ
    Blend: AUG-CC-PVTZ
  Basis Set: (AUG-CC-PVTZ AUX)
    Blend: AUG-CC-PVTZ-JKFIT

    Orbital Energies [Eh]
    ---------------------

    Doubly Occupied:

       1A    -15.537850     2A    -11.241957     3A    -11.240990
       4A    -11.215702     5A    -11.215065     6A     -1.206582
       7A     -1.017998     8A     -0.971148     9A     -0.806871
      10A     -0.777877    11A     -0.680650    12A     -0.655920
      13A     -0.588039    14A     -0.554684    15A     -0.510760
      16A     -0.496975    17A     -0.480524    18A     -0.473016
      19A     -0.456723    20A     -0.370523

  @DF-RHF Final Energy:  -211.21986390052299

   => Energetics <=

    Nuclear Repulsion Energy =            189.9643229303118517
    One-Electron Energy =                -661.3686654782698042
    Two-Electron Energy =                 260.1844786474349576
    Total Energy =                       -211.2198639005230234
  Basis Set: (AUG-CC-PVTZ AUX)
    Blend: AUG-CC-PVTZ-RI
    Molecular point group: c1

    Geometry (in Angstrom), charge = 0, multiplicity = 1:

       Center              X                  Y                   Z               Mass
    ------------   -----------------  -----------------  -----------------  -----------------
         N           -0.006666140998    -1.146573681461    -0.360800675205    14.003074004430
         C            1.184315759002    -0.408631081461     0.214926424795    12.000000000000
         C            0.768064859002     1.035000318539    -0.047659675205    12.000000000000
         C           -0.781279140998     1.035048318539    -0.047635675205    12.000000000000
         C           -1.158307140998    -0.432927681461     0.195903324795    12.000000000000
         H            2.068885859002    -0.730696681461    -0.309176675205     1.007825032230
         H            1.274522859002    -0.612122681461     1.278348324795     1.007825032230
         H            1.189802859002     1.692699318539     0.717409324795     1.007825032230
         H            1.150857859002     1.366100318539    -1.016106675205     1.007825032230
         H           -1.202948140998     1.692740318539     0.717477324795     1.007825032230
         H           -1.164083140998     1.366220318539    -1.016053675205     1.007825032230
         H           -1.287868140998    -0.612075681461     1.278322324795     1.007825032230
         H           -2.082193140998    -0.730570681461    -0.309225675205     1.007825032230
         H           -0.006695140998    -2.128816681461    -0.084917675205     1.007825032230

  Basis Set: AUG-CC-PVTZ
    Blend: AUG-CC-PVTZ
  Basis Set: (AUG-CC-PVTZ AUX)
    Blend: AUG-CC-PVTZ-JKFIT
	 Reference Energy          =    -211.2198639005229950 [Eh]
	 Singles Energy            =      -0.0000000000000000 [Eh]
	 Same-Spin Energy          =      -0.2242959102958100 [Eh]
	 Opposite-Spin Energy      =      -0.7858056753214753 [Eh]
	 Correlation Energy        =      -1.0101015856172852 [Eh]
	 Total Energy              =    -212.2299654861402871 [Eh]

	 ================> DF-SCS-MP2 Energies <==================
	-----------------------------------------------------------
	 SCS Same-Spin Scale       =       0.3333333333333333 [-]
	 SCS Opposite-Spin Scale   =       1.2000000000000000 [-]
	 SCS Same-Spin Energy      =      -0.0747653034319367 [Eh]
	 SCS Opposite-Spin Energy  =      -0.9429668103857702 [Eh]
	 SCS Correlation Energy    =      -1.0177321138177069 [Eh]
	 SCS Total Energy          =    -212.2375960143407099 [Eh]
	-----------------------------------------------------------

  Dipole Moment: [D]
     X:     0.0783      Y:    -0.0263      Z:     1.1143     Total:     1.1173

*** Psi4 exiting successfully. Buy a developer a beer!
