                               Psi4 1.3.2 release

  ==> Input File <==

--------------------------------------------------------------------------
#psi4
#
memory 32 gb

molecule  {
0 1
  N        0.0001290    -1.1591520    -0.3736740
  C        1.1517350    -0.4453150     0.1831150
  C        0.7745390     1.0224530    -0.0603730
  C       -0.7747520     1.0222960    -0.0603410
  C       -1.1516460    -0.4455610     0.1830910
  H        2.0757380    -0.7429690    -0.3218440
  H        1.2812380    -0.6245340     1.2655430
  H        1.1961900     1.6802890     0.7046720
  H        1.1575090     1.3538250    -1.0286970
  H       -1.1965050     1.6800050     0.7047560
  H       -1.1578340     1.3536480    -1.0286290
  H       -1.2811530    -0.6248340     1.2655100
  H       -2.0755680    -0.7433930    -0.3219080
  H        0.0002421    -2.2374538    -0.0694890
units angstrom
no_reorient  #important for SAPT in psi4, default
symmetry c1  #important for SAPT in psi4, default
}

set PROPERTIES_ORIGIN ["COM"]
properties('MP2/aug-cc-pvtz', properties = ['dipole'])
--------------------------------------------------------------------------

    Molecular point group: c1
  Charge       = 0
  Multiplicity = 1
  Basis Set: AUG-CC-PVTZ
    Blend: AUG-CC-PVTZ
  Basis Set: (AUG-CC-PVTZ AUX)
    Blend: AUG-CC-PVTZ-JKFIT

    Orbital Energies [Eh]
    ---------------------

    Doubly Occupied:

       1A    -15.549737     2A    -11.242556     3A    -11.242537
       4A    -11.215874     5A    -11.215314     6A     -1.211436
       7A     -1.013511     8A     -0.970301     9A     -0.796407
      10A     -0.778742    11A     -0.674660    12A     -0.655126
      13A     -0.587547    14A     -0.554668    15A     -0.507459
      16A     -0.501957    17A     -0.478907    18A     -0.470012
      19A     -0.454206    20A     -0.369921

  @DF-RHF Final Energy:  -211.21206040895308

   => Energetics <=

    Nuclear Repulsion Energy =            190.0177128955645287
    One-Electron Energy =                -661.4777907420743759
    Two-Electron Energy =                 260.2480174375568254
    Total Energy =                       -211.2120604089530502
  Basis Set: (AUG-CC-PVTZ AUX)
    Blend: AUG-CC-PVTZ-RI
    Molecular point group: c1

    Geometry (in Angstrom), charge = 0, multiplicity = 1:

       Center              X                  Y                   Z               Mass
    ------------   -----------------  -----------------  -----------------  -----------------
         N            0.000126546507    -1.141113393455    -0.358089962746    14.003074004430
         C            1.151732546507    -0.427276393455     0.198699037254    12.000000000000
         C            0.774536546507     1.040491606545    -0.044788962746    12.000000000000
         C           -0.774754453493     1.040334606545    -0.044756962746    12.000000000000
         C           -1.151648453493    -0.427522393455     0.198675037254    12.000000000000
         H            2.075735546507    -0.724930393455    -0.306259962746     1.007825032230
         H            1.281235546507    -0.606495393455     1.281127037254     1.007825032230
         H            1.196187546507     1.698327606545     0.720256037254     1.007825032230
         H            1.157506546507     1.371863606545    -1.013112962746     1.007825032230
         H           -1.196507453493     1.698043606545     0.720340037254     1.007825032230
         H           -1.157836453493     1.371686606545    -1.013044962746     1.007825032230
         H           -1.281155453493    -0.606795393455     1.281094037254     1.007825032230
         H           -2.075570453493    -0.725354393455    -0.306323962746     1.007825032230
         H            0.000239646507    -2.219415193455    -0.053904962746     1.007825032230

  Basis Set: AUG-CC-PVTZ
    Blend: AUG-CC-PVTZ
  Basis Set: (AUG-CC-PVTZ AUX)
    Blend: AUG-CC-PVTZ-JKFIT
	 Reference Energy          =    -211.2120604089530786 [Eh]
	 Singles Energy            =      -0.0000000000000000 [Eh]
	 Same-Spin Energy          =      -0.2249291976604207 [Eh]
	 Opposite-Spin Energy      =      -0.7873537386574105 [Eh]
	 Correlation Energy        =      -1.0122829363178312 [Eh]
	 Total Energy              =    -212.2243433452709098 [Eh]

	 ================> DF-SCS-MP2 Energies <==================
	-----------------------------------------------------------
	 SCS Same-Spin Scale       =       0.3333333333333333 [-]
	 SCS Opposite-Spin Scale   =       1.2000000000000000 [-]
	 SCS Same-Spin Energy      =      -0.0749763992201402 [Eh]
	 SCS Opposite-Spin Energy  =      -0.9448244863888926 [Eh]
	 SCS Correlation Energy    =      -1.0198008856090328 [Eh]
	 SCS Total Energy          =    -212.2318612945621226 [Eh]
	-----------------------------------------------------------

  Dipole Moment: [D]
     X:    -0.0000      Y:    -0.0548      Z:     1.0748     Total:     1.0762

*** Psi4 exiting successfully. Buy a developer a beer!
