                               Psi4 1.3.2 release

  ==> Input File <==

--------------------------------------------------------------------------
#psi4
#
memory 32 gb

molecule  {
0 1
  N        0.0001290    -1.1591520    -0.3736740
  C        0.9945026    -0.5427774     0.1070949
  C        0.7745390     1.0224530    -0.0603730
  C       -0.7747520     1.0222960    -0.0603410
  C       -1.1516460    -0.4455610     0.1830910
  H        2.0757380    -0.7429690    -0.3218440
  H        1.2812380    -0.6245340     1.2655430
  H        1.1961900     1.6802890     0.7046720
  H        1.1575090     1.3538250    -1.0286970
  H       -1.1965050     1.6800050     0.7047560
  H       -1.1578340     1.3536480    -1.0286290
  H       -1.2811530    -0.6248340     1.2655100
  H       -2.0755680    -0.7433930    -0.3219080
  H        0.0002320    -2.1412100    -0.0966390
units angstrom
no_reorient  #important for SAPT in psi4, default
symmetry c1  #important for SAPT in psi4, default
}

set PROPERTIES_ORIGIN ["COM"]
properties('MP2/aug-cc-pvtz', properties = ['dipole'])
--------------------------------------------------------------------------

    Molecular point group: c1
  Charge       = 0
  Multiplicity = 1
  Basis Set: AUG-CC-PVTZ
    Blend: AUG-CC-PVTZ
  Basis Set: (AUG-CC-PVTZ AUX)
    Blend: AUG-CC-PVTZ-JKFIT

    Orbital Energies [Eh]
    ---------------------

    Doubly Occupied:

       1A    -15.543048     2A    -11.250241     3A    -11.250086
       4A    -11.216061     5A    -11.215230     6A     -1.283526
       7A     -1.031710     8A     -0.964403     9A     -0.799594
      10A     -0.783038    11A     -0.710986    12A     -0.658616
      13A     -0.604504    14A     -0.562229    15A     -0.541724
      16A     -0.508395    17A     -0.480024    18A     -0.451182
      19A     -0.434485    20A     -0.356525

  @DF-RHF Final Energy:  -211.17398093871552

   => Energetics <=

    Nuclear Repulsion Energy =            193.0648413024057390
    One-Electron Energy =                -667.1864315475554577
    Two-Electron Energy =                 262.9476093064342308
    Total Energy =                       -211.1739809387154878
  Basis Set: (AUG-CC-PVTZ AUX)
    Blend: AUG-CC-PVTZ-RI
    Molecular point group: c1

    Geometry (in Angstrom), charge = 0, multiplicity = 1:

       Center              X                  Y                   Z               Mass
    ------------   -----------------  -----------------  -----------------  -----------------
         N            0.026673698367    -1.126022650776    -0.344869794062    14.003074004430
         C            1.021047298367    -0.509648050776     0.135899105938    12.000000000000
         C            0.801083698367     1.055582349224    -0.031568794062    12.000000000000
         C           -0.748207301633     1.055425349224    -0.031536794062    12.000000000000
         C           -1.125101301633    -0.412431650776     0.211895205938    12.000000000000
         H            2.102282698367    -0.709839650776    -0.293039794062     1.007825032230
         H            1.307782698367    -0.591404650776     1.294347205938     1.007825032230
         H            1.222734698367     1.713418349224     0.733476205938     1.007825032230
         H            1.184053698367     1.386954349224    -0.999892794062     1.007825032230
         H           -1.169960301633     1.713134349224     0.733560205938     1.007825032230
         H           -1.131289301633     1.386777349224    -0.999824794062     1.007825032230
         H           -1.254608301633    -0.591704650776     1.294314205938     1.007825032230
         H           -2.049023301633    -0.710263650776    -0.293103794062     1.007825032230
         H            0.026776698367    -2.108080650776    -0.067834794062     1.007825032230

  Basis Set: AUG-CC-PVTZ
    Blend: AUG-CC-PVTZ
  Basis Set: (AUG-CC-PVTZ AUX)
    Blend: AUG-CC-PVTZ-JKFIT
	 Reference Energy          =    -211.1739809387155162 [Eh]
	 Singles Energy            =      -0.0000000000000000 [Eh]
	 Same-Spin Energy          =      -0.2266060956858901 [Eh]
	 Opposite-Spin Energy      =      -0.7872055679629291 [Eh]
	 Correlation Energy        =      -1.0138116636488190 [Eh]
	 Total Energy              =    -212.1877926023643397 [Eh]

	 ================> DF-SCS-MP2 Energies <==================
	-----------------------------------------------------------
	 SCS Same-Spin Scale       =       0.3333333333333333 [-]
	 SCS Opposite-Spin Scale   =       1.2000000000000000 [-]
	 SCS Same-Spin Energy      =      -0.0755353652286300 [Eh]
	 SCS Opposite-Spin Energy  =      -0.9446466815555148 [Eh]
	 SCS Correlation Energy    =      -1.0201820467841447 [Eh]
	 SCS Total Energy          =    -212.1941629854996734 [Eh]
	-----------------------------------------------------------

  Dipole Moment: [D]
     X:    -0.5045      Y:    -0.2530      Z:     0.7430     Total:     0.9330

*** Psi4 exiting successfully. Buy a developer a beer!
