                               Psi4 1.3.2 release

  ==> Input File <==

--------------------------------------------------------------------------
#psi4
#
memory 32 gb

molecule  {
0 1
  N        0.0001290    -1.1591520    -0.3736740
  C        1.1517350    -0.4453150     0.1831150
  C        0.7745390     1.0224530    -0.0603730
  C       -0.7747520     1.0222960    -0.0603410
  C       -1.1516460    -0.4455610     0.1830910
  H        2.0757380    -0.7429690    -0.3218440
  H        1.2812380    -0.6245340     1.2655430
  H        1.1961900     1.6802890     0.7046720
  H        1.1575090     1.3538250    -1.0286970
  H       -1.1965050     1.6800050     0.7047560
  H       -1.1578340     1.3536480    -1.0286290
  H       -1.2811530    -0.6248340     1.2655100
  H       -2.0755680    -0.7433930    -0.3219080
  H        0.0002219    -2.0449662    -0.1237890
units angstrom
no_reorient  #important for SAPT in psi4, default
symmetry c1  #important for SAPT in psi4, default
}

set PROPERTIES_ORIGIN ["COM"]
properties('MP2/aug-cc-pvtz', properties = ['dipole'])
--------------------------------------------------------------------------

    Molecular point group: c1
  Charge       = 0
  Multiplicity = 1
  Basis Set: AUG-CC-PVTZ
    Blend: AUG-CC-PVTZ
  Basis Set: (AUG-CC-PVTZ AUX)
    Blend: AUG-CC-PVTZ-JKFIT

    Orbital Energies [Eh]
    ---------------------

    Doubly Occupied:

       1A    -15.527029     2A    -11.242197     3A    -11.242179
       4A    -11.215158     5A    -11.214598     6A     -1.227555
       7A     -1.027570     8A     -0.970065     9A     -0.815530
      10A     -0.778735    11A     -0.697162    12A     -0.655237
      13A     -0.587453    14A     -0.555183    15A     -0.517951
      16A     -0.507559    17A     -0.478765    18A     -0.471641
      19A     -0.454018    20A     -0.372763

  @DF-RHF Final Energy:  -211.21611249557066

   => Energetics <=

    Nuclear Repulsion Energy =            191.1308765672737309
    One-Electron Energy =                -663.5772873731899608
    Two-Electron Energy =                 261.2302983103455745
    Total Energy =                       -211.2161124955706555
  Basis Set: (AUG-CC-PVTZ AUX)
    Blend: AUG-CC-PVTZ-RI
    Molecular point group: c1

    Geometry (in Angstrom), charge = 0, multiplicity = 1:

       Center              X                  Y                   Z               Mass
    ------------   -----------------  -----------------  -----------------  -----------------
         N            0.000126832944    -1.143842875239    -0.357319986597    14.003074004430
         C            1.151732832944    -0.430005875239     0.199469013403    12.000000000000
         C            0.774536832944     1.037762124761    -0.044018986597    12.000000000000
         C           -0.774754167056     1.037605124761    -0.043986986597    12.000000000000
         C           -1.151648167056    -0.430251875239     0.199445013403    12.000000000000
         H            2.075735832944    -0.727659875239    -0.305489986597     1.007825032230
         H            1.281235832944    -0.609224875239     1.281897013403     1.007825032230
         H            1.196187832944     1.695598124761     0.721026013403     1.007825032230
         H            1.157506832944     1.369134124761    -1.012342986597     1.007825032230
         H           -1.196507167056     1.695314124761     0.721110013403     1.007825032230
         H           -1.157836167056     1.368957124761    -1.012274986597     1.007825032230
         H           -1.281155167056    -0.609524875239     1.281864013403     1.007825032230
         H           -2.075570167056    -0.728083875239    -0.305553986597     1.007825032230
         H            0.000219732944    -2.029657075239    -0.107434986597     1.007825032230

  Basis Set: AUG-CC-PVTZ
    Blend: AUG-CC-PVTZ
  Basis Set: (AUG-CC-PVTZ AUX)
    Blend: AUG-CC-PVTZ-JKFIT
	 Reference Energy          =    -211.2161124955706555 [Eh]
	 Singles Energy            =      -0.0000000000000000 [Eh]
	 Same-Spin Energy          =      -0.2237685790951977 [Eh]
	 Opposite-Spin Energy      =      -0.7837763849072324 [Eh]
	 Correlation Energy        =      -1.0075449640024301 [Eh]
	 Total Energy              =    -212.2236574595730758 [Eh]

	 ================> DF-SCS-MP2 Energies <==================
	-----------------------------------------------------------
	 SCS Same-Spin Scale       =       0.3333333333333333 [-]
	 SCS Opposite-Spin Scale   =       1.2000000000000000 [-]
	 SCS Same-Spin Energy      =      -0.0745895263650659 [Eh]
	 SCS Opposite-Spin Energy  =      -0.9405316618886789 [Eh]
	 SCS Correlation Energy    =      -1.0151211882537448 [Eh]
	 SCS Total Energy          =    -212.2312336838243993 [Eh]
	-----------------------------------------------------------

  Dipole Moment: [D]
     X:    -0.0000      Y:    -0.0514      Z:     1.0579     Total:     1.0591

*** Psi4 exiting successfully. Buy a developer a beer!
