                               Psi4 1.3.2 release

  ==> Input File <==

--------------------------------------------------------------------------
#psi4
#
memory 32 gb

molecule  {
0 1
  N        0.0001290    -1.1591520    -0.3736740
  C        1.1517350    -0.4453150     0.1831150
  C        0.7745390     1.0224530    -0.0603730
  C       -0.7747520     1.0222960    -0.0603410
  C       -1.1516460    -0.4455610     0.1830910
  H        2.0757380    -0.7429690    -0.3218440
  H        1.2812380    -0.6245340     1.2655430
  H        1.1961900     1.6802890     0.7046720
  H        1.1575090     1.3538250    -1.0286970
  H       -1.1965050     1.6800050     0.7047560
  H       -1.1578340     1.3536480    -1.0286290
  H       -1.2811530    -0.6248340     1.2655100
  H       -2.0755680    -0.7433930    -0.3219080
  H        0.0002118    -1.9487223    -0.1509391
units angstrom
no_reorient  #important for SAPT in psi4, default
symmetry c1  #important for SAPT in psi4, default
}

set PROPERTIES_ORIGIN ["COM"]
properties('MP2/aug-cc-pvtz', properties = ['dipole'])
--------------------------------------------------------------------------

    Molecular point group: c1
  Charge       = 0
  Multiplicity = 1
  Basis Set: AUG-CC-PVTZ
    Blend: AUG-CC-PVTZ
  Basis Set: (AUG-CC-PVTZ AUX)
    Blend: AUG-CC-PVTZ-JKFIT

    Orbital Energies [Eh]
    ---------------------

    Doubly Occupied:

       1A    -15.514364     2A    -11.242387     3A    -11.242370
       4A    -11.215227     5A    -11.214667     6A     -1.242591
       7A     -1.038177     8A     -0.970305     9A     -0.829445
      10A     -0.779076    11A     -0.706651    12A     -0.655584
      13A     -0.587839    14A     -0.555725    15A     -0.524621
      16A     -0.508214    17A     -0.478992    18A     -0.472253
      19A     -0.454226    20A     -0.374813

  @DF-RHF Final Energy:  -211.18018235587479

   => Energetics <=

    Nuclear Repulsion Energy =            191.8308727198354688
    One-Electron Energy =                -664.8070526701980043
    Two-Electron Energy =                 261.7959975944877442
    Total Energy =                       -211.1801823558747628
  Basis Set: (AUG-CC-PVTZ AUX)
    Blend: AUG-CC-PVTZ-RI
    Molecular point group: c1

    Geometry (in Angstrom), charge = 0, multiplicity = 1:

       Center              X                  Y                   Z               Mass
    ------------   -----------------  -----------------  -----------------  -----------------
         N            0.000126976162    -1.145207617549    -0.356934997105    14.003074004430
         C            1.151732976162    -0.431370617549     0.199854002895    12.000000000000
         C            0.774536976162     1.036397382451    -0.043633997105    12.000000000000
         C           -0.774754023838     1.036240382451    -0.043601997105    12.000000000000
         C           -1.151648023838    -0.431616617549     0.199830002895    12.000000000000
         H            2.075735976162    -0.729024617549    -0.305104997105     1.007825032230
         H            1.281235976162    -0.610589617549     1.282282002895     1.007825032230
         H            1.196187976162     1.694233382451     0.721411002895     1.007825032230
         H            1.157506976162     1.367769382451    -1.011957997105     1.007825032230
         H           -1.196507023838     1.693949382451     0.721495002895     1.007825032230
         H           -1.157836023838     1.367592382451    -1.011889997105     1.007825032230
         H           -1.281155023838    -0.610889617549     1.282249002895     1.007825032230
         H           -2.075570023838    -0.729448617549    -0.305168997105     1.007825032230
         H            0.000209776162    -1.934777917549    -0.134200097105     1.007825032230

  Basis Set: AUG-CC-PVTZ
    Blend: AUG-CC-PVTZ
  Basis Set: (AUG-CC-PVTZ AUX)
    Blend: AUG-CC-PVTZ-JKFIT
	 Reference Energy          =    -211.1801823558747913 [Eh]
	 Singles Energy            =      -0.0000000000000000 [Eh]
	 Same-Spin Energy          =      -0.2232519720645079 [Eh]
	 Opposite-Spin Energy      =      -0.7825905208911501 [Eh]
	 Correlation Energy        =      -1.0058424929556580 [Eh]
	 Total Energy              =    -212.1860248488304421 [Eh]

	 ================> DF-SCS-MP2 Energies <==================
	-----------------------------------------------------------
	 SCS Same-Spin Scale       =       0.3333333333333333 [-]
	 SCS Opposite-Spin Scale   =       1.2000000000000000 [-]
	 SCS Same-Spin Energy      =      -0.0744173240215026 [Eh]
	 SCS Opposite-Spin Energy  =      -0.9391086250693801 [Eh]
	 SCS Correlation Energy    =      -1.0135259490908828 [Eh]
	 SCS Total Energy          =    -212.1937083049656678 [Eh]
	-----------------------------------------------------------

  Dipole Moment: [D]
     X:    -0.0000      Y:    -0.0156      Z:     1.0544     Total:     1.0545

*** Psi4 exiting successfully. Buy a developer a beer!
