                               Psi4 1.4a3.dev225

  ==> Input File <==

--------------------------------------------------------------------------
#psi4
#
memory 32 gb

molecule  {
0 1
  N       -0.0000290    -1.1591300    -0.3735420
  C        1.1516400    -0.4455460     0.1831810
  C        0.7747020     1.0224440    -0.0604010
  C       -0.7746420     1.0224920    -0.0603770
  C       -1.1516700    -0.4454840     0.1831620
  H        2.0755230    -0.7432530    -0.3219180
  H        1.2811600    -0.6246790     1.2656070
  H        1.1964400     1.6801430     0.7046680
  H        1.1574950     1.3535440    -1.0288480
  H       -1.1963110     1.6801840     0.7047360
  H       -1.1574460     1.3536640    -1.0287950
  H       -1.2812310    -0.6246320     1.2655810
  H       -2.0755560    -0.7431270    -0.3219670
  H       -0.0000594    -2.1895103    -0.0841387
units angstrom
no_reorient  #important for SAPT in psi4, default
symmetry c1  #important for SAPT in psi4, default
}

set PROPERTIES_ORIGIN ["COM"]
properties('MP2/aug-cc-pvtz', properties = ['dipole'])
--------------------------------------------------------------------------

    Molecular point group: c1
  Charge       = 0
  Multiplicity = 1
  Basis Set: AUG-CC-PVTZ
    Blend: AUG-CC-PVTZ
  Basis Set: (AUG-CC-PVTZ AUX)
    Blend: AUG-CC-PVTZ-JKFIT

    Orbital Energies [Eh]
    ---------------------

    Doubly Occupied:

       1A    -15.544427     2A    -11.242360     3A    -11.242341
       4A    -11.215571     5A    -11.215012     6A     -1.214161
       7A     -1.016149     8A     -0.970103     9A     -0.800028
      10A     -0.778633    11A     -0.680335    12A     -0.655085
      13A     -0.587413    14A     -0.554740    15A     -0.507333
      16A     -0.506245    17A     -0.478723    18A     -0.470505
      19A     -0.454097    20A     -0.370440

  @DF-RHF Final Energy:  -211.21849976550990

   => Energetics <=

    Nuclear Repulsion Energy =            190.2666498837992890
    One-Electron Energy =                -661.9628964388091390
    Two-Electron Energy =                 260.4777467894999177
    Total Energy =                       -211.2184997655099323
  Basis Set: (AUG-CC-PVTZ AUX)
    Blend: AUG-CC-PVTZ-RI
    Molecular point group: c1

    Geometry (in Angstrom), charge = 0, multiplicity = 1:

       Center              X                  Y                   Z               Mass
    ------------   -----------------  -----------------  -----------------  -----------------
         N           -0.000028558557    -1.141778403625    -0.357783754618    14.003074004430
         C            1.151640441443    -0.428194403625     0.198939245382    12.000000000000
         C            0.774702441443     1.039795596375    -0.044642754618    12.000000000000
         C           -0.774641558557     1.039843596375    -0.044618754618    12.000000000000
         C           -1.151669558557    -0.428132403625     0.198920245382    12.000000000000
         H            2.075523441443    -0.725901403625    -0.306159754618     1.007825032230
         H            1.281160441443    -0.607327403625     1.281365245382     1.007825032230
         H            1.196440441443     1.697494596375     0.720426245382     1.007825032230
         H            1.157495441443     1.370895596375    -1.013089754618     1.007825032230
         H           -1.196310558557     1.697535596375     0.720494245382     1.007825032230
         H           -1.157445558557     1.371015596375    -1.013036754618     1.007825032230
         H           -1.281230558557    -0.607280403625     1.281339245382     1.007825032230
         H           -2.075555558557    -0.725775403625    -0.306208754618     1.007825032230
         H           -0.000058958557    -2.172158703625    -0.068380454618     1.007825032230

  Basis Set: AUG-CC-PVTZ
    Blend: AUG-CC-PVTZ
  Basis Set: (AUG-CC-PVTZ AUX)
    Blend: AUG-CC-PVTZ-JKFIT
	 Reference Energy          =    -211.2184997655099039 [Eh]
	 Singles Energy            =      -0.0000000000000000 [Eh]
	 Same-Spin Energy          =      -0.2246432274217711 [Eh]
	 Opposite-Spin Energy      =      -0.7863411537149965 [Eh]
	 Correlation Energy        =      -1.0109843811367676 [Eh]
	 Total Energy              =    -212.2294841466466835 [Eh]

	 ================> DF-SCS-MP2 Energies <==================
	-----------------------------------------------------------
	 SCS Same-Spin Scale       =       0.3333333333333333 [-]
	 SCS Opposite-Spin Scale   =       1.2000000000000000 [-]
	 SCS Same-Spin Energy      =      -0.0748810758072570 [Eh]
	 SCS Opposite-Spin Energy  =      -0.9436093844579957 [Eh]
	 SCS Correlation Energy    =      -1.0184904602652527 [Eh]
	 SCS Total Energy          =    -212.2369902257751448 [Eh]
	-----------------------------------------------------------

  Dipole Moment: [D]
     X:    -0.0000      Y:    -0.0646      Z:     1.0681     Total:     1.0700

*** Psi4 exiting successfully. Buy a developer a beer!
