                               Psi4 1.3.2 release

  ==> Input File <==

--------------------------------------------------------------------------
#psi4
#
memory 32 gb

molecule  {
0 1
  N        0.0001290    -1.1591520    -0.3736740
  C        1.2303512    -0.3965838     0.2211251
  C        0.7745390     1.0224530    -0.0603730
  C       -0.7747520     1.0222960    -0.0603410
  C       -1.1516460    -0.4455610     0.1830910
  H        2.0757380    -0.7429690    -0.3218440
  H        1.2812380    -0.6245340     1.2655430
  H        1.1961900     1.6802890     0.7046720
  H        1.1575090     1.3538250    -1.0286970
  H       -1.1965050     1.6800050     0.7047560
  H       -1.1578340     1.3536480    -1.0286290
  H       -1.2811530    -0.6248340     1.2655100
  H       -2.0755680    -0.7433930    -0.3219080
  H        0.0002320    -2.1412100    -0.0966390
units angstrom
no_reorient  #important for SAPT in psi4, default
symmetry c1  #important for SAPT in psi4, default
}

set PROPERTIES_ORIGIN ["COM"]
properties('MP2/aug-cc-pvtz', properties = ['dipole'])
--------------------------------------------------------------------------

    Molecular point group: c1
  Charge       = 0
  Multiplicity = 1
  Basis Set: AUG-CC-PVTZ
    Blend: AUG-CC-PVTZ
  Basis Set: (AUG-CC-PVTZ AUX)
    Blend: AUG-CC-PVTZ-JKFIT

    Orbital Energies [Eh]
    ---------------------

    Doubly Occupied:

       1A    -15.536699     2A    -11.242460     3A    -11.239922
       4A    -11.216357     5A    -11.215407     6A     -1.197082
       7A     -1.017301     8A     -0.972074     9A     -0.809434
      10A     -0.777339    11A     -0.675600    12A     -0.657300
      13A     -0.589775    14A     -0.554948    15A     -0.513006
      16A     -0.489792    17A     -0.478710    18A     -0.472639
      19A     -0.459030    20A     -0.368885

  @DF-RHF Final Energy:  -211.21371942839707

   => Energetics <=

    Nuclear Repulsion Energy =            189.4093941510130605
    One-Electron Energy =                -660.2787103422029986
    Two-Electron Energy =                 259.6555967627928680
    Total Energy =                       -211.2137194283970416
  Basis Set: (AUG-CC-PVTZ AUX)
    Blend: AUG-CC-PVTZ-RI
    Molecular point group: c1

    Geometry (in Angstrom), charge = 0, multiplicity = 1:

       Center              X                  Y                   Z               Mass
    ------------   -----------------  -----------------  -----------------  -----------------
         N           -0.013146814596    -1.150705876133    -0.364122573419    14.003074004430
         C            1.217075385404    -0.388137676133     0.230676526581    12.000000000000
         C            0.761263185404     1.030899123867    -0.050821573419    12.000000000000
         C           -0.788027814596     1.030742123867    -0.050789573419    12.000000000000
         C           -1.164921814596    -0.437114876133     0.192642426581    12.000000000000
         H            2.062462185404    -0.734522876133    -0.312292573419     1.007825032230
         H            1.267962185404    -0.616087876133     1.275094426581     1.007825032230
         H            1.182914185404     1.688735123867     0.714223426581     1.007825032230
         H            1.144233185404     1.362271123867    -1.019145573419     1.007825032230
         H           -1.209780814596     1.688451123867     0.714307426581     1.007825032230
         H           -1.171109814596     1.362094123867    -1.019077573419     1.007825032230
         H           -1.294428814596    -0.616387876133     1.275061426581     1.007825032230
         H           -2.088843814596    -0.734946876133    -0.312356573419     1.007825032230
         H           -0.013043814596    -2.132763876133    -0.087087573419     1.007825032230

  Basis Set: AUG-CC-PVTZ
    Blend: AUG-CC-PVTZ
  Basis Set: (AUG-CC-PVTZ AUX)
    Blend: AUG-CC-PVTZ-JKFIT
	 Reference Energy          =    -211.2137194283970700 [Eh]
	 Singles Energy            =      -0.0000000000000000 [Eh]
	 Same-Spin Energy          =      -0.2244255818032653 [Eh]
	 Opposite-Spin Energy      =      -0.7865317677324632 [Eh]
	 Correlation Energy        =      -1.0109573495357287 [Eh]
	 Total Energy              =    -212.2246767779327854 [Eh]

	 ================> DF-SCS-MP2 Energies <==================
	-----------------------------------------------------------
	 SCS Same-Spin Scale       =       0.3333333333333333 [-]
	 SCS Opposite-Spin Scale   =       1.2000000000000000 [-]
	 SCS Same-Spin Energy      =      -0.0748085272677551 [Eh]
	 SCS Opposite-Spin Energy  =      -0.9438381212789558 [Eh]
	 SCS Correlation Energy    =      -1.0186466485467109 [Eh]
	 SCS Total Energy          =    -212.2323660769437765 [Eh]
	-----------------------------------------------------------

  Dipole Moment: [D]
     X:     0.1414      Y:     0.0134      Z:     1.1578     Total:     1.1665

*** Psi4 exiting successfully. Buy a developer a beer!
