                               Psi4 1.3.2 release

  ==> Input File <==

--------------------------------------------------------------------------
#psi4
#
memory 32 gb

molecule  {
0 1
  C       -0.7579540    -1.1732300     0.0000560
  H       -1.3480580    -2.0866370    -0.0000820
  C       -1.3950530     0.0697820    -0.0000880
  H       -2.4811350     0.1241100     0.0004410
  C       -0.6370740     1.2430170     0.0000510
  H       -1.1330860     2.2107530    -0.0001410
  C        0.7579480     1.1732410    -0.0000900
  H        1.3480720     2.0866270     0.0000520
  C        1.3950430    -0.0697940     0.0000920
  H        2.4811300    -0.1240910     0.0001910
  C        0.6370880    -1.2430179    -0.3000980
  H        1.1330780    -2.2107570     0.0000050
units angstrom
no_reorient  #important for SAPT in psi4, default
symmetry c1  #important for SAPT in psi4, default
}

set PROPERTIES_ORIGIN ["COM"]
properties('MP2/aug-cc-pvtz', properties = ['dipole'])
--------------------------------------------------------------------------

    Molecular point group: c1
  Charge       = 0
  Multiplicity = 1
  Basis Set: AUG-CC-PVTZ
    Blend: AUG-CC-PVTZ
  Basis Set: (AUG-CC-PVTZ AUX)
    Blend: AUG-CC-PVTZ-JKFIT

    Orbital Energies [Eh]
    ---------------------

    Doubly Occupied:

       1A    -11.245446     2A    -11.244874     3A    -11.243958
       4A    -11.242064     5A    -11.236565     6A    -11.236425
       7A     -1.146201     8A     -1.013390     9A     -1.009168
      10A     -0.821652    11A     -0.818622    12A     -0.703844
      13A     -0.641268    14A     -0.612266    15A     -0.586954
      16A     -0.578832    17A     -0.503424    18A     -0.491317
      19A     -0.482825    20A     -0.337414    21A     -0.333799

  @DF-RHF Final Energy:  -230.75166659322846

   => Energetics <=

    Nuclear Repulsion Energy =            202.2440356514482858
    One-Electron Energy =                -710.9307868214270911
    Two-Electron Energy =                 277.9350845767503984
    Total Energy =                       -230.7516665932284354
  Basis Set: (AUG-CC-PVTZ AUX)
    Blend: AUG-CC-PVTZ-RI
    Molecular point group: c1

    Geometry (in Angstrom), charge = 0, multiplicity = 1:

       Center              X                  Y                   Z               Mass
    ------------   -----------------  -----------------  -----------------  -----------------
         C           -0.757953705406    -1.173229772433     0.046187903228    12.000000000000
         H           -1.348057705406    -2.086636772433     0.046049903228     1.007825032230
         C           -1.395052705406     0.069782227567     0.046043903228    12.000000000000
         H           -2.481134705406     0.124110227567     0.046572903228     1.007825032230
         C           -0.637073705406     1.243017227567     0.046182903228    12.000000000000
         H           -1.133085705406     2.210753227567     0.045990903228     1.007825032230
         C            0.757948294594     1.173241227567     0.046041903228    12.000000000000
         H            1.348072294594     2.086627227567     0.046183903228     1.007825032230
         C            1.395043294594    -0.069793772433     0.046223903228    12.000000000000
         H            2.481130294594    -0.124090772433     0.046322903228     1.007825032230
         C            0.637088294594    -1.243017672433    -0.253966096772    12.000000000000
         H            1.133078294594    -2.210756772433     0.046136903228     1.007825032230

  Basis Set: AUG-CC-PVTZ
    Blend: AUG-CC-PVTZ
  Basis Set: (AUG-CC-PVTZ AUX)
    Blend: AUG-CC-PVTZ-JKFIT
	 Reference Energy          =    -230.7516665932284639 [Eh]
	 Singles Energy            =      -0.0000000000000000 [Eh]
	 Same-Spin Energy          =      -0.2567026690806942 [Eh]
	 Opposite-Spin Energy      =      -0.8232829045237486 [Eh]
	 Correlation Energy        =      -1.0799855736044428 [Eh]
	 Total Energy              =    -231.8316521668328960 [Eh]

	 ================> DF-SCS-MP2 Energies <==================
	-----------------------------------------------------------
	 SCS Same-Spin Scale       =       0.3333333333333333 [-]
	 SCS Opposite-Spin Scale   =       1.2000000000000000 [-]
	 SCS Same-Spin Energy      =      -0.0855675563602314 [Eh]
	 SCS Opposite-Spin Energy  =      -0.9879394854284983 [Eh]
	 SCS Correlation Energy    =      -1.0735070417887296 [Eh]
	 SCS Total Energy          =    -231.8251736350171939 [Eh]
	-----------------------------------------------------------

  Dipole Moment: [D]
     X:    -0.0912      Y:     0.1780      Z:     0.2028     Total:     0.2849

*** Psi4 exiting successfully. Buy a developer a beer!
