                               Psi4 1.3.2 release

  ==> Input File <==

--------------------------------------------------------------------------
#psi4
#
memory 32 gb

molecule  {
0 1
  C       -0.7579540    -1.1732300     0.0000560
  H       -1.3480580    -2.0866370    -0.0000820
  C       -1.3950530     0.0697820    -0.0000880
  H       -2.4811350     0.1241100     0.0004410
  C       -0.6370740     1.2430170     0.0000510
  H       -1.1330860     2.2107530    -0.0001410
  C        0.7579480     1.1732410    -0.0000900
  H        1.3480720     2.0866270     0.0000520
  C        1.3950430    -0.0697940     0.0000920
  H        2.4811300    -0.1240910     0.0001910
  C        0.6370890    -1.2430174    -0.1500980
  H        1.1330780    -2.2107570     0.0000050
units angstrom
no_reorient  #important for SAPT in psi4, default
symmetry c1  #important for SAPT in psi4, default
}

set PROPERTIES_ORIGIN ["COM"]
properties('MP2/aug-cc-pvtz', properties = ['dipole'])
--------------------------------------------------------------------------

    Molecular point group: c1
  Charge       = 0
  Multiplicity = 1
  Basis Set: AUG-CC-PVTZ
    Blend: AUG-CC-PVTZ
  Basis Set: (AUG-CC-PVTZ AUX)
    Blend: AUG-CC-PVTZ-JKFIT

    Orbital Energies [Eh]
    ---------------------

    Doubly Occupied:

       1A    -11.239906     2A    -11.239206     3A    -11.238689
       4A    -11.238201     5A    -11.236726     6A    -11.236344
       7A     -1.147980     8A     -1.013439     9A     -1.012443
      10A     -0.822485    11A     -0.821630    12A     -0.706200
      13A     -0.642201    14A     -0.616633    15A     -0.586811
      16A     -0.584689    17A     -0.502409    18A     -0.493566
      19A     -0.490942    20A     -0.336680    21A     -0.335771

  @DF-RHF Final Energy:  -230.77322182701892

   => Energetics <=

    Nuclear Repulsion Energy =            202.9213333978519529
    One-Electron Energy =                -712.3032078253592090
    Two-Electron Energy =                 278.6086526004883126
    Total Energy =                       -230.7732218270189151
  Basis Set: (AUG-CC-PVTZ AUX)
    Blend: AUG-CC-PVTZ-RI
    Molecular point group: c1

    Geometry (in Angstrom), charge = 0, multiplicity = 1:

       Center              X                  Y                   Z               Mass
    ------------   -----------------  -----------------  -----------------  -----------------
         C           -0.757953859159    -1.173229849310     0.023124862384    12.000000000000
         H           -1.348057859159    -2.086636849310     0.022986862384     1.007825032230
         C           -1.395052859159     0.069782150690     0.022980862384    12.000000000000
         H           -2.481134859159     0.124110150690     0.023509862384     1.007825032230
         C           -0.637073859159     1.243017150690     0.023119862384    12.000000000000
         H           -1.133085859159     2.210753150690     0.022927862384     1.007825032230
         C            0.757948140841     1.173241150690     0.022978862384    12.000000000000
         H            1.348072140841     2.086627150690     0.023120862384     1.007825032230
         C            1.395043140841    -0.069793849310     0.023160862384    12.000000000000
         H            2.481130140841    -0.124090849310     0.023259862384     1.007825032230
         C            0.637089140841    -1.243017249310    -0.127029137616    12.000000000000
         H            1.133078140841    -2.210756849310     0.023073862384     1.007825032230

  Basis Set: AUG-CC-PVTZ
    Blend: AUG-CC-PVTZ
  Basis Set: (AUG-CC-PVTZ AUX)
    Blend: AUG-CC-PVTZ-JKFIT
	 Reference Energy          =    -230.7732218270189151 [Eh]
	 Singles Energy            =      -0.0000000000000000 [Eh]
	 Same-Spin Energy          =      -0.2557927114378487 [Eh]
	 Opposite-Spin Energy      =      -0.8200527981798537 [Eh]
	 Correlation Energy        =      -1.0758455096177024 [Eh]
	 Total Energy              =    -231.8490673366366082 [Eh]

	 ================> DF-SCS-MP2 Energies <==================
	-----------------------------------------------------------
	 SCS Same-Spin Scale       =       0.3333333333333333 [-]
	 SCS Opposite-Spin Scale   =       1.2000000000000000 [-]
	 SCS Same-Spin Energy      =      -0.0852642371459496 [Eh]
	 SCS Opposite-Spin Energy  =      -0.9840633578158243 [Eh]
	 SCS Correlation Energy    =      -1.0693275949617740 [Eh]
	 SCS Total Energy          =    -231.8425494219806922 [Eh]
	-----------------------------------------------------------

  Dipole Moment: [D]
     X:    -0.0232      Y:     0.0454      Z:     0.0975     Total:     0.1100

*** Psi4 exiting successfully. Buy a developer a beer!
