                               Psi4 1.3.2 release

  ==> Input File <==

--------------------------------------------------------------------------
#psi4
#
memory 32 gb

molecule  {
0 1
  C       -0.7579540    -1.1732300     0.0000560
  H       -1.3480580    -2.0866370    -0.0000820
  C       -1.3950530     0.0697820    -0.0000880
  H       -2.4811350     0.1241100     0.0004410
  C       -0.6370740     1.2430170     0.0000510
  H       -1.1330860     2.2107530    -0.0001410
  C        0.7579480     1.1732410    -0.0000900
  H        1.3480720     2.0866270     0.0000520
  C        1.3950430    -0.0697940     0.0000920
  H        2.4811300    -0.1240910     0.0001910
  C        0.6370883    -1.2430177    -0.2500980
  H        1.1330780    -2.2107570     0.0000050
units angstrom
no_reorient  #important for SAPT in psi4, default
symmetry c1  #important for SAPT in psi4, default
}

set PROPERTIES_ORIGIN ["COM"]
properties('MP2/aug-cc-pvtz', properties = ['dipole'])
--------------------------------------------------------------------------

    Molecular point group: c1
  Charge       = 0
  Multiplicity = 1
  Basis Set: AUG-CC-PVTZ
    Blend: AUG-CC-PVTZ
  Basis Set: (AUG-CC-PVTZ AUX)
    Blend: AUG-CC-PVTZ-JKFIT

    Orbital Energies [Eh]
    ---------------------

    Doubly Occupied:

       1A    -11.243230     2A    -11.242583     3A    -11.241699
       4A    -11.240586     5A    -11.236636     6A    -11.236446
       7A     -1.146888     8A     -1.013385     9A     -1.010517
      10A     -0.821985    11A     -0.819773    12A     -0.704650
      13A     -0.641588    14A     -0.613948    15A     -0.586928
      16A     -0.581167    17A     -0.503187    18A     -0.492283
      19A     -0.486009    20A     -0.337078    21A     -0.334564

  @DF-RHF Final Energy:  -230.76050825375216

   => Energetics <=

    Nuclear Repulsion Energy =            202.5161336494848285
    One-Electron Energy =                -711.4830243698502272
    Two-Electron Energy =                 278.2063824666132632
    Total Energy =                       -230.7605082537521639
  Basis Set: (AUG-CC-PVTZ AUX)
    Blend: AUG-CC-PVTZ-RI
    Molecular point group: c1

    Geometry (in Angstrom), charge = 0, multiplicity = 1:

       Center              X                  Y                   Z               Mass
    ------------   -----------------  -----------------  -----------------  -----------------
         C           -0.757953751532    -1.173229803184     0.038500222947    12.000000000000
         H           -1.348057751532    -2.086636803184     0.038362222947     1.007825032230
         C           -1.395052751532     0.069782196816     0.038356222947    12.000000000000
         H           -2.481134751532     0.124110196816     0.038885222947     1.007825032230
         C           -0.637073751532     1.243017196816     0.038495222947    12.000000000000
         H           -1.133085751532     2.210753196816     0.038303222947     1.007825032230
         C            0.757948248468     1.173241196816     0.038354222947    12.000000000000
         H            1.348072248468     2.086627196816     0.038496222947     1.007825032230
         C            1.395043248468    -0.069793803184     0.038536222947    12.000000000000
         H            2.481130248468    -0.124090803184     0.038635222947     1.007825032230
         C            0.637088548468    -1.243017503184    -0.211653777053    12.000000000000
         H            1.133078248468    -2.210756803184     0.038449222947     1.007825032230

  Basis Set: AUG-CC-PVTZ
    Blend: AUG-CC-PVTZ
  Basis Set: (AUG-CC-PVTZ AUX)
    Blend: AUG-CC-PVTZ-JKFIT
	 Reference Energy          =    -230.7605082537521639 [Eh]
	 Singles Energy            =      -0.0000000000000000 [Eh]
	 Same-Spin Energy          =      -0.2563437832913595 [Eh]
	 Opposite-Spin Energy      =      -0.8220102532608717 [Eh]
	 Correlation Energy        =      -1.0783540365522313 [Eh]
	 Total Energy              =    -231.8388622903044052 [Eh]

	 ================> DF-SCS-MP2 Energies <==================
	-----------------------------------------------------------
	 SCS Same-Spin Scale       =       0.3333333333333333 [-]
	 SCS Opposite-Spin Scale   =       1.2000000000000000 [-]
	 SCS Same-Spin Energy      =      -0.0854479277637865 [Eh]
	 SCS Opposite-Spin Energy  =      -0.9864123039130460 [Eh]
	 SCS Correlation Energy    =      -1.0718602316768324 [Eh]
	 SCS Total Energy          =    -231.8323684854289866 [Eh]
	-----------------------------------------------------------

  Dipole Moment: [D]
     X:    -0.0638      Y:     0.1246      Z:     0.1667     Total:     0.2177

*** Psi4 exiting successfully. Buy a developer a beer!
