                               Psi4 1.3.2 release

  ==> Input File <==

--------------------------------------------------------------------------
#psi4
#
memory 32 gb

molecule  {
0 1
  C       -0.7579540    -1.1732300     0.0000560
  H       -1.3480580    -2.0866370    -0.0000820
  C       -1.3950530     0.0697820    -0.0000880
  H       -2.4811350     0.1241100     0.0004410
  C       -0.6370740     1.2430170     0.0000510
  H       -1.1330860     2.2107530    -0.0001410
  C        0.7579480     1.1732410    -0.0000900
  H        1.3480720     2.0866270     0.0000520
  C        1.3950430    -0.0697940     0.0000920
  H        2.4811300    -0.1240910     0.0001910
  C        0.6370897    -1.2430171    -0.0500980
  H        1.1330780    -2.2107570     0.0000050
units angstrom
no_reorient  #important for SAPT in psi4, default
symmetry c1  #important for SAPT in psi4, default
}

set PROPERTIES_ORIGIN ["COM"]
properties('MP2/aug-cc-pvtz', properties = ['dipole'])
--------------------------------------------------------------------------

    Molecular point group: c1
  Charge       = 0
  Multiplicity = 1
  Basis Set: AUG-CC-PVTZ
    Blend: AUG-CC-PVTZ
  Basis Set: (AUG-CC-PVTZ AUX)
    Blend: AUG-CC-PVTZ-JKFIT

    Orbital Energies [Eh]
    ---------------------

    Doubly Occupied:

       1A    -11.238365     2A    -11.237799     3A    -11.237773
       4A    -11.236594     5A    -11.236522     6A    -11.235948
       7A     -1.148580     8A     -1.013511     9A     -1.013401
      10A     -0.822759    11A     -0.822660    12A     -0.707183
      13A     -0.642591    14A     -0.618087    15A     -0.586737
      16A     -0.586496    17A     -0.501569    18A     -0.494168
      19A     -0.493823    20A     -0.336535    21A     -0.336432

  @DF-RHF Final Energy:  -230.77948598173543

   => Energetics <=

    Nuclear Repulsion Energy =            203.1284016678725663
    One-Electron Energy =                -712.7207107920714861
    Two-Electron Energy =                 278.8128231424634578
    Total Energy =                       -230.7794859817354336
  Basis Set: (AUG-CC-PVTZ AUX)
    Blend: AUG-CC-PVTZ-RI
    Molecular point group: c1

    Geometry (in Angstrom), charge = 0, multiplicity = 1:

       Center              X                  Y                   Z               Mass
    ------------   -----------------  -----------------  -----------------  -----------------
         C           -0.757953966787    -1.173229895436     0.007749501822    12.000000000000
         H           -1.348057966787    -2.086636895436     0.007611501822     1.007825032230
         C           -1.395052966787     0.069782104564     0.007605501822    12.000000000000
         H           -2.481134966787     0.124110104564     0.008134501822     1.007825032230
         C           -0.637073966787     1.243017104564     0.007744501822    12.000000000000
         H           -1.133085966787     2.210753104564     0.007552501822     1.007825032230
         C            0.757948033213     1.173241104564     0.007603501822    12.000000000000
         H            1.348072033213     2.086627104564     0.007745501822     1.007825032230
         C            1.395043033213    -0.069793895436     0.007785501822    12.000000000000
         H            2.481130033213    -0.124090895436     0.007884501822     1.007825032230
         C            0.637089733213    -1.243016995436    -0.042404498178    12.000000000000
         H            1.133078033213    -2.210756895436     0.007698501822     1.007825032230

  Basis Set: AUG-CC-PVTZ
    Blend: AUG-CC-PVTZ
  Basis Set: (AUG-CC-PVTZ AUX)
    Blend: AUG-CC-PVTZ-JKFIT
	 Reference Energy          =    -230.7794859817354336 [Eh]
	 Singles Energy            =      -0.0000000000000000 [Eh]
	 Same-Spin Energy          =      -0.2554926245130078 [Eh]
	 Opposite-Spin Energy      =      -0.8189529734241145 [Eh]
	 Correlation Energy        =      -1.0744455979371224 [Eh]
	 Total Energy              =    -231.8539315796725475 [Eh]

	 ================> DF-SCS-MP2 Energies <==================
	-----------------------------------------------------------
	 SCS Same-Spin Scale       =       0.3333333333333333 [-]
	 SCS Opposite-Spin Scale   =       1.2000000000000000 [-]
	 SCS Same-Spin Energy      =      -0.0851642081710026 [Eh]
	 SCS Opposite-Spin Energy  =      -0.9827435681089374 [Eh]
	 SCS Correlation Energy    =      -1.0679077762799400 [Eh]
	 SCS Total Energy          =    -231.8473937580153859 [Eh]
	-----------------------------------------------------------

  Dipole Moment: [D]
     X:    -0.0026      Y:     0.0052      Z:     0.0322     Total:     0.0327

*** Psi4 exiting successfully. Buy a developer a beer!
