                               Psi4 1.3.2 release

  ==> Input File <==

--------------------------------------------------------------------------
#psi4
#
memory 32 gb

molecule  {
0 1
  C       -0.7579540    -1.1732300     0.0000560
  H       -1.3480580    -2.0866370    -0.0000820
  C       -1.3950530     0.0697820    -0.0000880
  H       -2.4811350     0.1241100     0.0004410
  C       -0.6370740     1.2430170     0.0000510
  H       -1.1330860     2.2107530    -0.0001410
  C        0.7579480     1.1732410    -0.0000900
  H        1.3480720     2.0866270     0.0000520
  C        1.3950430    -0.0697940     0.0000920
  H        2.4811300    -0.1240910     0.0001910
  C        0.6370893    -1.2430173    -0.1000980
  H        1.1330780    -2.2107570     0.0000050
units angstrom
no_reorient  #important for SAPT in psi4, default
symmetry c1  #important for SAPT in psi4, default
}

set PROPERTIES_ORIGIN ["COM"]
properties('MP2/aug-cc-pvtz', properties = ['dipole'])
--------------------------------------------------------------------------

    Molecular point group: c1
  Charge       = 0
  Multiplicity = 1
  Basis Set: AUG-CC-PVTZ
    Blend: AUG-CC-PVTZ
  Basis Set: (AUG-CC-PVTZ AUX)
    Blend: AUG-CC-PVTZ-JKFIT

    Orbital Energies [Eh]
    ---------------------

    Doubly Occupied:

       1A    -11.238886     2A    -11.238231     3A    -11.238136
       4A    -11.237161     5A    -11.236668     6A    -11.236167
       7A     -1.148347     8A     -1.013476     9A     -1.013037
      10A     -0.822650    11A     -0.822261    12A     -0.706792
      13A     -0.642434    14A     -0.617529    15A     -0.586761
      16A     -0.585812    17A     -0.501951    18A     -0.493941
      19A     -0.492675    20A     -0.336581    21A     -0.336176

  @DF-RHF Final Energy:  -230.77714748536613

   => Energetics <=

    Nuclear Repulsion Energy =            203.0503678273764478
    One-Electron Energy =                -712.5636885413980508
    Two-Electron Energy =                 278.7361732286554457
    Total Energy =                       -230.7771474853661289
  Basis Set: (AUG-CC-PVTZ AUX)
    Blend: AUG-CC-PVTZ-RI
    Molecular point group: c1

    Geometry (in Angstrom), charge = 0, multiplicity = 1:

       Center              X                  Y                   Z               Mass
    ------------   -----------------  -----------------  -----------------  -----------------
         C           -0.757953905286    -1.173229864686     0.015437182103    12.000000000000
         H           -1.348057905286    -2.086636864686     0.015299182103     1.007825032230
         C           -1.395052905286     0.069782135314     0.015293182103    12.000000000000
         H           -2.481134905286     0.124110135314     0.015822182103     1.007825032230
         C           -0.637073905286     1.243017135314     0.015432182103    12.000000000000
         H           -1.133085905286     2.210753135314     0.015240182103     1.007825032230
         C            0.757948094714     1.173241135314     0.015291182103    12.000000000000
         H            1.348072094714     2.086627135314     0.015433182103     1.007825032230
         C            1.395043094714    -0.069793864686     0.015473182103    12.000000000000
         H            2.481130094714    -0.124090864686     0.015572182103     1.007825032230
         C            0.637089394714    -1.243017164686    -0.084716817897    12.000000000000
         H            1.133078094714    -2.210756864686     0.015386182103     1.007825032230

  Basis Set: AUG-CC-PVTZ
    Blend: AUG-CC-PVTZ
  Basis Set: (AUG-CC-PVTZ AUX)
    Blend: AUG-CC-PVTZ-JKFIT
	 Reference Energy          =    -230.7771474853661289 [Eh]
	 Singles Energy            =      -0.0000000000000000 [Eh]
	 Same-Spin Energy          =      -0.2556106277411692 [Eh]
	 Opposite-Spin Energy      =      -0.8193880444568177 [Eh]
	 Correlation Energy        =      -1.0749986721979869 [Eh]
	 Total Energy              =    -231.8521461575641069 [Eh]

	 ================> DF-SCS-MP2 Energies <==================
	-----------------------------------------------------------
	 SCS Same-Spin Scale       =       0.3333333333333333 [-]
	 SCS Opposite-Spin Scale   =       1.2000000000000000 [-]
	 SCS Same-Spin Energy      =      -0.0852035425803897 [Eh]
	 SCS Opposite-Spin Energy  =      -0.9832656533481812 [Eh]
	 SCS Correlation Energy    =      -1.0684691959285708 [Eh]
	 SCS Total Energy          =    -231.8456166812947004 [Eh]
	-----------------------------------------------------------

  Dipole Moment: [D]
     X:    -0.0104      Y:     0.0203      Z:     0.0645     Total:     0.0684

*** Psi4 exiting successfully. Buy a developer a beer!
