                               Psi4 1.3.2 release

  ==> Input File <==

--------------------------------------------------------------------------
#psi4
#
memory 32 gb

molecule  {
0 1
  C       -0.7579540    -1.1732300     0.0000560
  H       -1.3480580    -2.0866370    -0.0000820
  C       -1.3950530     0.0697820    -0.0000880
  H       -2.4811350     0.1241100     0.0004410
  C       -0.6370740     1.2430170     0.0000510
  H       -1.1330860     2.2107530    -0.0001410
  C        0.7579480     1.1732410    -0.0000900
  H        1.3480720     2.0866270     0.0000520
  C        1.3950430    -0.0697940     0.0000920
  H        2.4811300    -0.1240910     0.0001910
  C        0.6370900    -1.2430170    -0.0000980
  H        1.1330780    -2.2107570     0.0000050
units angstrom
no_reorient  #important for SAPT in psi4, default
symmetry c1  #important for SAPT in psi4, default
}

set PROPERTIES_ORIGIN ["COM"]
properties('MP2/aug-cc-pvtz', properties = ['dipole'])
--------------------------------------------------------------------------

    Molecular point group: c1
  Charge       = 0
  Multiplicity = 1
  Basis Set: AUG-CC-PVTZ
    Blend: AUG-CC-PVTZ
  Basis Set: (AUG-CC-PVTZ AUX)
    Blend: AUG-CC-PVTZ-JKFIT

    Orbital Energies [Eh]
    ---------------------

    Doubly Occupied:

       1A    -11.238244     2A    -11.237676     3A    -11.237675
       4A    -11.236448     5A    -11.236448     6A    -11.235850
       7A     -1.148675     8A     -1.013540     9A     -1.013536
      10A     -0.822810    11A     -0.822809    12A     -0.707333
      13A     -0.642657    14A     -0.618290    15A     -0.586744
      16A     -0.586738    17A     -0.501417    18A     -0.494257
      19A     -0.494245    20A     -0.336534    21A     -0.336532

  @DF-RHF Final Energy:  -230.78025655543954

   => Energetics <=

    Nuclear Repulsion Energy =            203.1546043704275348
    One-Electron Energy =                -712.7728099515926488
    Two-Electron Energy =                 278.8379490257255497
    Total Energy =                       -230.7802565554395642
  Basis Set: (AUG-CC-PVTZ AUX)
    Blend: AUG-CC-PVTZ-RI
    Molecular point group: c1

    Geometry (in Angstrom), charge = 0, multiplicity = 1:

       Center              X                  Y                   Z               Mass
    ------------   -----------------  -----------------  -----------------  -----------------
         C           -0.757954012913    -1.173229910812     0.000061821541    12.000000000000
         H           -1.348058012913    -2.086636910812    -0.000076178459     1.007825032230
         C           -1.395053012913     0.069782089188    -0.000082178459    12.000000000000
         H           -2.481135012913     0.124110089188     0.000446821541     1.007825032230
         C           -0.637074012913     1.243017089188     0.000056821541    12.000000000000
         H           -1.133086012913     2.210753089188    -0.000135178459     1.007825032230
         C            0.757947987087     1.173241089188    -0.000084178459    12.000000000000
         H            1.348071987087     2.086627089188     0.000057821541     1.007825032230
         C            1.395042987087    -0.069793910812     0.000097821541    12.000000000000
         H            2.481129987087    -0.124090910812     0.000196821541     1.007825032230
         C            0.637089987087    -1.243016910812    -0.000092178459    12.000000000000
         H            1.133077987087    -2.210756910812     0.000010821541     1.007825032230

  Basis Set: AUG-CC-PVTZ
    Blend: AUG-CC-PVTZ
  Basis Set: (AUG-CC-PVTZ AUX)
    Blend: AUG-CC-PVTZ-JKFIT
	 Reference Energy          =    -230.7802565554395358 [Eh]
	 Singles Energy            =      -0.0000000000000000 [Eh]
	 Same-Spin Energy          =      -0.2554393501810141 [Eh]
	 Opposite-Spin Energy      =      -0.8187628397685798 [Eh]
	 Correlation Energy        =      -1.0742021899495939 [Eh]
	 Total Energy              =    -231.8544587453891381 [Eh]

	 ================> DF-SCS-MP2 Energies <==================
	-----------------------------------------------------------
	 SCS Same-Spin Scale       =       0.3333333333333333 [-]
	 SCS Opposite-Spin Scale   =       1.2000000000000000 [-]
	 SCS Same-Spin Energy      =      -0.0851464500603380 [Eh]
	 SCS Opposite-Spin Energy  =      -0.9825154077222957 [Eh]
	 SCS Correlation Energy    =      -1.0676618577826338 [Eh]
	 SCS Total Energy          =    -231.8479184132221746 [Eh]
	-----------------------------------------------------------

  Dipole Moment: [D]
     X:     0.0000      Y:     0.0000      Z:     0.0003     Total:     0.0003

*** Psi4 exiting successfully. Buy a developer a beer!
