                               Psi4 1.3.2 release

  ==> Input File <==

--------------------------------------------------------------------------
#psi4
#
memory 32 gb

molecule  {
0 1
  C       -0.7579540    -1.1732300     0.0000560
  H       -1.3480580    -2.0866370    -0.0000820
  C       -1.3950530     0.0697820    -0.0000880
  H       -2.4811350     0.1241100     0.0004410
  C       -0.6370740     1.2430170     0.0000510
  H       -1.1330860     2.2107530    -0.0001410
  C        0.7579480     1.1732410    -0.0000900
  H        1.3480720     2.0866270     0.0000520
  C        1.3950430    -0.0697940     0.0000920
  H        2.4811300    -0.1240910     0.0001910
  C        0.6370886    -1.2430176    -0.2000980
  H        1.1330780    -2.2107570     0.0000050
units angstrom
no_reorient  #important for SAPT in psi4, default
symmetry c1  #important for SAPT in psi4, default
}

set PROPERTIES_ORIGIN ["COM"]
properties('MP2/aug-cc-pvtz', properties = ['dipole'])
--------------------------------------------------------------------------

    Molecular point group: c1
  Charge       = 0
  Multiplicity = 1
  Basis Set: AUG-CC-PVTZ
    Blend: AUG-CC-PVTZ
  Basis Set: (AUG-CC-PVTZ AUX)
    Blend: AUG-CC-PVTZ-JKFIT

    Orbital Energies [Eh]
    ---------------------

    Doubly Occupied:

       1A    -11.241370     2A    -11.240678     3A    -11.239822
       4A    -11.239401     5A    -11.236700     6A    -11.236432
       7A     -1.147489     8A     -1.013406     9A     -1.011606
      10A     -0.822263    11A     -0.820790    12A     -0.705461
      13A     -0.641910    14A     -0.615425    15A     -0.586872
      16A     -0.583134    17A     -0.502839    18A     -0.493022
      19A     -0.488711    20A     -0.336840    21A     -0.335228

  @DF-RHF Final Energy:  -230.76768493280861

   => Energetics <=

    Nuclear Repulsion Energy =            202.7426464938079675
    One-Electron Energy =                -711.9418672207594909
    Two-Electron Energy =                 278.4315357941429170
    Total Energy =                       -230.7676849328086064
  Basis Set: (AUG-CC-PVTZ AUX)
    Blend: AUG-CC-PVTZ-RI
    Molecular point group: c1

    Geometry (in Angstrom), charge = 0, multiplicity = 1:

       Center              X                  Y                   Z               Mass
    ------------   -----------------  -----------------  -----------------  -----------------
         C           -0.757953797658    -1.173229818560     0.030812542666    12.000000000000
         H           -1.348057797658    -2.086636818560     0.030674542666     1.007825032230
         C           -1.395052797658     0.069782181440     0.030668542666    12.000000000000
         H           -2.481134797658     0.124110181440     0.031197542666     1.007825032230
         C           -0.637073797658     1.243017181440     0.030807542666    12.000000000000
         H           -1.133085797658     2.210753181440     0.030615542666     1.007825032230
         C            0.757948202342     1.173241181440     0.030666542666    12.000000000000
         H            1.348072202342     2.086627181440     0.030808542666     1.007825032230
         C            1.395043202342    -0.069793818560     0.030848542666    12.000000000000
         H            2.481130202342    -0.124090818560     0.030947542666     1.007825032230
         C            0.637088802342    -1.243017418560    -0.169341457334    12.000000000000
         H            1.133078202342    -2.210756818560     0.030761542666     1.007825032230

  Basis Set: AUG-CC-PVTZ
    Blend: AUG-CC-PVTZ
  Basis Set: (AUG-CC-PVTZ AUX)
    Blend: AUG-CC-PVTZ-JKFIT
	 Reference Energy          =    -230.7676849328086064 [Eh]
	 Singles Energy            =      -0.0000000000000000 [Eh]
	 Same-Spin Energy          =      -0.2560385081065891 [Eh]
	 Opposite-Spin Energy      =      -0.8209309962290758 [Eh]
	 Correlation Energy        =      -1.0769695043356649 [Eh]
	 Total Energy              =    -231.8446544371442712 [Eh]

	 ================> DF-SCS-MP2 Energies <==================
	-----------------------------------------------------------
	 SCS Same-Spin Scale       =       0.3333333333333333 [-]
	 SCS Opposite-Spin Scale   =       1.2000000000000000 [-]
	 SCS Same-Spin Energy      =      -0.0853461693688630 [Eh]
	 SCS Opposite-Spin Energy  =      -0.9851171954748910 [Eh]
	 SCS Correlation Energy    =      -1.0704633648437540 [Eh]
	 SCS Total Energy          =    -231.8381482976523671 [Eh]
	-----------------------------------------------------------

  Dipole Moment: [D]
     X:    -0.0411      Y:     0.0802      Z:     0.1316     Total:     0.1595

*** Psi4 exiting successfully. Buy a developer a beer!
