                               Psi4 1.3.2 release

  ==> Input File <==

--------------------------------------------------------------------------
#psi4
#
memory 32 gb

molecule  {
-1 1
  O        1.8724200    -0.7415990     0.3394840
  O        2.1027790     1.3758310    -0.4300950
  O       -3.3072830    -0.3512340    -0.9359590
  O       -2.5979240    -0.0254400     1.2183870
  C       -0.0530340     0.6334400     0.4456770
  C       -0.9828094     0.0515626    -0.5606410
  C        1.3896910     0.5173160     0.0754460
  C       -2.4534200    -0.1528480    -0.0313600
  C        3.2289120    -0.9370400    -0.0704660
  H       -0.2424870     0.2042160     1.4320630
  H       -0.3042490     1.6964080     0.4822290
  H       -0.9505240     0.3810480    -1.5282220
  H       -0.6173950    -1.1275390    -0.6764200
  H        3.4625260    -1.9695390     0.1897820
  H        3.8993660    -0.2498350     0.4514950
  H        3.3382080    -0.7798600    -1.1461020
units angstrom
no_reorient  #important for SAPT in psi4, default
symmetry c1  #important for SAPT in psi4, default
}

set PROPERTIES_ORIGIN ["COM"]
properties('MP2/aug-cc-pvtz', properties = ['dipole'])
--------------------------------------------------------------------------

    Molecular point group: c1
  Charge       = -1
  Multiplicity = 1
  Basis Set: AUG-CC-PVTZ
    Blend: AUG-CC-PVTZ
  Basis Set: (AUG-CC-PVTZ AUX)
    Blend: AUG-CC-PVTZ-JKFIT

    Orbital Energies [Eh]
    ---------------------

    Doubly Occupied:

       1A    -20.496956     2A    -20.436308     3A    -20.309298
       4A    -20.306295     5A    -11.268296     6A    -11.191310
       7A    -11.156978     8A    -11.101341     9A    -11.083776
      10A     -1.343202    11A     -1.240930    12A     -1.177578
      13A     -1.081484    14A     -0.942038    15A     -0.860308
      16A     -0.754917    17A     -0.663013    18A     -0.580018
      19A     -0.568961    20A     -0.562702    21A     -0.535745
      22A     -0.488171    23A     -0.464205    24A     -0.456689
      25A     -0.432282    26A     -0.420197    27A     -0.412463
      28A     -0.379851    29A     -0.374689    30A     -0.358393
      31A     -0.337105    32A     -0.303044    33A     -0.226596
      34A     -0.209123    35A     -0.208126

  @DF-RHF Final Energy:  -493.08838758292410

   => Energetics <=

    Nuclear Repulsion Energy =            435.2960683816207847
    One-Electron Energy =               -1551.3041309466207167
    Two-Electron Energy =                 622.9196749820757759
    Total Energy =                       -493.0883875829240424
  Basis Set: (AUG-CC-PVTZ AUX)
    Blend: AUG-CC-PVTZ-RI
    Molecular point group: c1

    Geometry (in Angstrom), charge = -1, multiplicity = 1:

       Center              X                  Y                   Z               Mass
    ------------   -----------------  -----------------  -----------------  -----------------
         O            1.938552323744    -0.769143259496     0.335129638696    15.994914619570
         O            2.168911323744     1.348286740504    -0.434449361304    15.994914619570
         O           -3.241150676256    -0.378778259496    -0.940313361304    15.994914619570
         O           -2.531791676256    -0.052984259496     1.214032638696    15.994914619570
         C            0.013098323744     0.605895740504     0.441322638696    12.000000000000
         C           -0.916677076256     0.024018340504    -0.564995361304    12.000000000000
         C            1.455823323744     0.489771740504     0.071091638696    12.000000000000
         C           -2.387287676256    -0.180392259496    -0.035714361304    12.000000000000
         C            3.295044323744    -0.964584259496    -0.074820361304    12.000000000000
         H           -0.176354676256     0.176671740504     1.427708638696     1.007825032230
         H           -0.238116676256     1.668863740504     0.477874638696     1.007825032230
         H           -0.884391676256     0.353503740504    -1.532576361304     1.007825032230
         H           -0.551262676256    -1.155083259496    -0.680774361304     1.007825032230
         H            3.528658323744    -1.997083259496     0.185427638696     1.007825032230
         H            3.965498323744    -0.277379259496     0.447140638696     1.007825032230
         H            3.404340323744    -0.807404259496    -1.150456361304     1.007825032230

  Basis Set: AUG-CC-PVTZ
    Blend: AUG-CC-PVTZ
  Basis Set: (AUG-CC-PVTZ AUX)
    Blend: AUG-CC-PVTZ-JKFIT
	 Reference Energy          =    -493.0883875829240992 [Eh]
	 Singles Energy            =      -0.0000000000000000 [Eh]
	 Same-Spin Energy          =      -0.4843423161987148 [Eh]
	 Opposite-Spin Energy      =      -1.4771011755499583 [Eh]
	 Correlation Energy        =      -1.9614434917486732 [Eh]
	 Total Energy              =    -495.0498310746727952 [Eh]

	 ================> DF-SCS-MP2 Energies <==================
	-----------------------------------------------------------
	 SCS Same-Spin Scale       =       0.3333333333333333 [-]
	 SCS Opposite-Spin Scale   =       1.2000000000000000 [-]
	 SCS Same-Spin Energy      =      -0.1614474387329049 [Eh]
	 SCS Opposite-Spin Energy  =      -1.7725214106599501 [Eh]
	 SCS Correlation Energy    =      -1.9339688493928551 [Eh]
	 SCS Total Energy          =    -495.0223564323169398 [Eh]
	-----------------------------------------------------------

  Dipole Moment: [D]
     X:    11.3896      Y:    -0.4984      Z:    -0.0956     Total:    11.4009

*** Psi4 exiting successfully. Buy a developer a beer!
