                               Psi4 1.3.2 release

  ==> Input File <==

--------------------------------------------------------------------------
#psi4
#
memory 32 gb

molecule  {
-1 1
  O        1.8724200    -0.7415990     0.3394840
  O        2.1027790     1.3758310    -0.4300950
  O       -3.3072830    -0.3512340    -0.9359590
  O       -2.5979240    -0.0254400     1.2183870
  C       -0.0530340     0.6334400     0.4456770
  C       -0.9871752     0.1010042    -0.5666804
  C        1.3896910     0.5173160     0.0754460
  C       -2.4534200    -0.1528480    -0.0313600
  C        3.2289120    -0.9370400    -0.0704660
  H       -0.2424870     0.2042160     1.4320630
  H       -0.3042490     1.6964080     0.4822290
  H       -0.9505240     0.3810480    -1.5282220
  H       -0.6173950    -1.1275390    -0.6764200
  H        3.4625260    -1.9695390     0.1897820
  H        3.8993660    -0.2498350     0.4514950
  H        3.3382080    -0.7798600    -1.1461020
units angstrom
no_reorient  #important for SAPT in psi4, default
symmetry c1  #important for SAPT in psi4, default
}

set PROPERTIES_ORIGIN ["COM"]
properties('MP2/aug-cc-pvtz', properties = ['dipole'])
--------------------------------------------------------------------------

    Molecular point group: c1
  Charge       = -1
  Multiplicity = 1
  Basis Set: AUG-CC-PVTZ
    Blend: AUG-CC-PVTZ
  Basis Set: (AUG-CC-PVTZ AUX)
    Blend: AUG-CC-PVTZ-JKFIT

    Orbital Energies [Eh]
    ---------------------

    Doubly Occupied:

       1A    -20.497142     2A    -20.436746     3A    -20.309763
       4A    -20.306509     5A    -11.268900     6A    -11.191358
       7A    -11.158640     8A    -11.102163     9A    -11.086350
      10A     -1.343431    11A     -1.241254    12A     -1.177888
      13A     -1.081860    14A     -0.944400    15A     -0.861280
      16A     -0.755103    17A     -0.663480    18A     -0.581572
      19A     -0.569000    20A     -0.563544    21A     -0.538197
      22A     -0.488090    23A     -0.464959    24A     -0.457923
      25A     -0.432840    26A     -0.420440    27A     -0.413244
      28A     -0.385493    29A     -0.373036    30A     -0.358616
      31A     -0.337537    32A     -0.291123    33A     -0.227014
      34A     -0.209367    35A     -0.207970

  @DF-RHF Final Energy:  -493.07446580374932

   => Energetics <=

    Nuclear Repulsion Energy =            435.2883875035442429
    One-Electron Energy =               -1551.2332476341628080
    Two-Electron Energy =                 622.8703943268692456
    Total Energy =                       -493.0744658037492627
  Basis Set: (AUG-CC-PVTZ AUX)
    Blend: AUG-CC-PVTZ-RI
    Molecular point group: c1

    Geometry (in Angstrom), charge = -1, multiplicity = 1:

       Center              X                  Y                   Z               Mass
    ------------   -----------------  -----------------  -----------------  -----------------
         O            1.938952139262    -0.773671070875     0.335682720798    15.994914619570
         O            2.169311139262     1.343758929125    -0.433896279202    15.994914619570
         O           -3.240750860738    -0.383306070875    -0.939760279202    15.994914619570
         O           -2.531391860738    -0.057512070875     1.214585720798    15.994914619570
         C            0.013498139262     0.601367929125     0.441875720798    12.000000000000
         C           -0.920643060738     0.068932129125    -0.570481679202    12.000000000000
         C            1.456223139262     0.485243929125     0.071644720798    12.000000000000
         C           -2.386887860738    -0.184920070875    -0.035161279202    12.000000000000
         C            3.295444139262    -0.969112070875    -0.074267279202    12.000000000000
         H           -0.175954860738     0.172143929125     1.428261720798     1.007825032230
         H           -0.237716860738     1.664335929125     0.478427720798     1.007825032230
         H           -0.883991860738     0.348975929125    -1.532023279202     1.007825032230
         H           -0.550862860738    -1.159611070875    -0.680221279202     1.007825032230
         H            3.529058139262    -2.001611070875     0.185980720798     1.007825032230
         H            3.965898139262    -0.281907070875     0.447693720798     1.007825032230
         H            3.404740139262    -0.811932070875    -1.149903279202     1.007825032230

  Basis Set: AUG-CC-PVTZ
    Blend: AUG-CC-PVTZ
  Basis Set: (AUG-CC-PVTZ AUX)
    Blend: AUG-CC-PVTZ-JKFIT
	 Reference Energy          =    -493.0744658037493195 [Eh]
	 Singles Energy            =      -0.0000000000000000 [Eh]
	 Same-Spin Energy          =      -0.4846818225985562 [Eh]
	 Opposite-Spin Energy      =      -1.4779221523950781 [Eh]
	 Correlation Energy        =      -1.9626039749936344 [Eh]
	 Total Energy              =    -495.0370697787429322 [Eh]

	 ================> DF-SCS-MP2 Energies <==================
	-----------------------------------------------------------
	 SCS Same-Spin Scale       =       0.3333333333333333 [-]
	 SCS Opposite-Spin Scale   =       1.2000000000000000 [-]
	 SCS Same-Spin Energy      =      -0.1615606075328521 [Eh]
	 SCS Opposite-Spin Energy  =      -1.7735065828740937 [Eh]
	 SCS Correlation Energy    =      -1.9350671904069459 [Eh]
	 SCS Total Energy          =    -495.0095329941562454 [Eh]
	-----------------------------------------------------------

  Dipole Moment: [D]
     X:    11.3882      Y:    -0.4159      Z:    -0.0870     Total:    11.3961

*** Psi4 exiting successfully. Buy a developer a beer!
