                               Psi4 1.3.2 release

  ==> Input File <==

--------------------------------------------------------------------------
#psi4
#
memory 32 gb

molecule  {
-1 1
  O        1.8724200    -0.7415990     0.3394840
  O        2.1027790     1.3758310    -0.4300950
  O       -3.3072830    -0.3512340    -0.9359590
  O       -2.5979240    -0.0254400     1.2183870
  C       -0.0530340     0.6334400     0.4456770
  C       -0.9915411     0.1504457    -0.5727197
  C        1.3896910     0.5173160     0.0754460
  C       -2.4534200    -0.1528480    -0.0313600
  C        3.2289120    -0.9370400    -0.0704660
  H       -0.2424870     0.2042160     1.4320630
  H       -0.3042490     1.6964080     0.4822290
  H       -0.9505240     0.3810480    -1.5282220
  H       -0.6173950    -1.1275390    -0.6764200
  H        3.4625260    -1.9695390     0.1897820
  H        3.8993660    -0.2498350     0.4514950
  H        3.3382080    -0.7798600    -1.1461020
units angstrom
no_reorient  #important for SAPT in psi4, default
symmetry c1  #important for SAPT in psi4, default
}

set PROPERTIES_ORIGIN ["COM"]
properties('MP2/aug-cc-pvtz', properties = ['dipole'])
--------------------------------------------------------------------------

    Molecular point group: c1
  Charge       = -1
  Multiplicity = 1
  Basis Set: AUG-CC-PVTZ
    Blend: AUG-CC-PVTZ
  Basis Set: (AUG-CC-PVTZ AUX)
    Blend: AUG-CC-PVTZ-JKFIT

    Orbital Energies [Eh]
    ---------------------

    Doubly Occupied:

       1A    -20.497296     2A    -20.437140     3A    -20.310399
       4A    -20.306854     5A    -11.269489     6A    -11.191378
       7A    -11.160699     8A    -11.103285     9A    -11.089498
      10A     -1.343629    11A     -1.241547    12A     -1.178318
      13A     -1.082374    14A     -0.946795    15A     -0.862210
      16A     -0.755558    17A     -0.664045    18A     -0.583339
      19A     -0.569049    20A     -0.564430    21A     -0.540467
      22A     -0.487998    23A     -0.466658    24A     -0.458769
      25A     -0.433498    26A     -0.420569    27A     -0.414133
      28A     -0.390363    29A     -0.371776    30A     -0.358763
      31A     -0.337978    32A     -0.278725    33A     -0.227488
      34A     -0.209788    35A     -0.207656

  @DF-RHF Final Energy:  -493.05789328871981

   => Energetics <=

    Nuclear Repulsion Energy =            435.2433465497675229
    One-Electron Energy =               -1551.0785586313227213
    Two-Electron Energy =                 622.7773187928354446
    Total Energy =                       -493.0578932887198107
  Basis Set: (AUG-CC-PVTZ AUX)
    Blend: AUG-CC-PVTZ-RI
    Molecular point group: c1

    Geometry (in Angstrom), charge = -1, multiplicity = 1:

       Center              X                  Y                   Z               Mass
    ------------   -----------------  -----------------  -----------------  -----------------
         O            1.939351963938    -0.778198873096     0.336235793742    15.994914619570
         O            2.169710963938     1.339231126904    -0.433343206258    15.994914619570
         O           -3.240351036062    -0.387833873096    -0.939207206258    15.994914619570
         O           -2.530992036062    -0.062039873096     1.215138793742    15.994914619570
         C            0.013897963938     0.596840126904     0.442428793742    12.000000000000
         C           -0.924609136062     0.113845826904    -0.575967906258    12.000000000000
         C            1.456622963938     0.480716126904     0.072197793742    12.000000000000
         C           -2.386488036062    -0.189447873096    -0.034608206258    12.000000000000
         C            3.295843963938    -0.973639873096    -0.073714206258    12.000000000000
         H           -0.175555036062     0.167616126904     1.428814793742     1.007825032230
         H           -0.237317036062     1.659808126904     0.478980793742     1.007825032230
         H           -0.883592036062     0.344448126904    -1.531470206258     1.007825032230
         H           -0.550463036062    -1.164138873096    -0.679668206258     1.007825032230
         H            3.529457963938    -2.006138873096     0.186533793742     1.007825032230
         H            3.966297963938    -0.286434873096     0.448246793742     1.007825032230
         H            3.405139963938    -0.816459873096    -1.149350206258     1.007825032230

  Basis Set: AUG-CC-PVTZ
    Blend: AUG-CC-PVTZ
  Basis Set: (AUG-CC-PVTZ AUX)
    Blend: AUG-CC-PVTZ-JKFIT
	 Reference Energy          =    -493.0578932887198107 [Eh]
	 Singles Energy            =      -0.0000000000000000 [Eh]
	 Same-Spin Energy          =      -0.4850884120241579 [Eh]
	 Opposite-Spin Energy      =      -1.4789595680336725 [Eh]
	 Correlation Energy        =      -1.9640479800578303 [Eh]
	 Total Energy              =    -495.0219412687776526 [Eh]

	 ================> DF-SCS-MP2 Energies <==================
	-----------------------------------------------------------
	 SCS Same-Spin Scale       =       0.3333333333333333 [-]
	 SCS Opposite-Spin Scale   =       1.2000000000000000 [-]
	 SCS Same-Spin Energy      =      -0.1616961373413859 [Eh]
	 SCS Opposite-Spin Energy  =      -1.7747514816404069 [Eh]
	 SCS Correlation Energy    =      -1.9364476189817927 [Eh]
	 SCS Total Energy          =    -494.9943409077015986 [Eh]
	-----------------------------------------------------------

  Dipole Moment: [D]
     X:    11.3792      Y:    -0.3328      Z:    -0.0732     Total:    11.3843

*** Psi4 exiting successfully. Buy a developer a beer!
