                               Psi4 1.3.2 release

  ==> Input File <==

--------------------------------------------------------------------------
#psi4
#
memory 32 gb

molecule  {
-1 1
  O        1.8724200    -0.7415990     0.3394840
  O        2.1027790     1.3758310    -0.4300950
  O       -3.3072830    -0.3512340    -0.9359590
  O       -2.5979240    -0.0254400     1.2183870
  C       -0.0530340     0.6334400     0.4456770
  C       -0.9740778    -0.0473205    -0.5485623
  C        1.3896910     0.5173160     0.0754460
  C       -2.4534200    -0.1528480    -0.0313600
  C        3.2289120    -0.9370400    -0.0704660
  H       -0.2424870     0.2042160     1.4320630
  H       -0.3042490     1.6964080     0.4822290
  H       -0.9505240     0.3810480    -1.5282220
  H       -0.6173950    -1.1275390    -0.6764200
  H        3.4625260    -1.9695390     0.1897820
  H        3.8993660    -0.2498350     0.4514950
  H        3.3382080    -0.7798600    -1.1461020
units angstrom
no_reorient  #important for SAPT in psi4, default
symmetry c1  #important for SAPT in psi4, default
}

set PROPERTIES_ORIGIN ["COM"]
properties('MP2/aug-cc-pvtz', properties = ['dipole'])
--------------------------------------------------------------------------

    Molecular point group: c1
  Charge       = -1
  Multiplicity = 1
  Basis Set: AUG-CC-PVTZ
    Blend: AUG-CC-PVTZ
  Basis Set: (AUG-CC-PVTZ AUX)
    Blend: AUG-CC-PVTZ-JKFIT

    Orbital Energies [Eh]
    ---------------------

    Doubly Occupied:

       1A    -20.496482     2A    -20.435311     3A    -20.308907
       4A    -20.306267     5A    -11.267064     6A    -11.191125
       7A    -11.154969     8A    -11.100646     9A    -11.080409
      10A     -1.342648    11A     -1.240190    12A     -1.177339
      13A     -1.081175    14A     -0.937510    15A     -0.858298
      16A     -0.755626    17A     -0.662363    18A     -0.577651
      19A     -0.568868    20A     -0.561302    21A     -0.531459
      22A     -0.488142    23A     -0.464956    24A     -0.453683
      25A     -0.431482    26A     -0.419483    27A     -0.411486
      28A     -0.382162    29A     -0.365233    30A     -0.356953
      31A     -0.336846    32A     -0.322432    33A     -0.226007
      34A     -0.209154    35A     -0.208104

  @DF-RHF Final Energy:  -493.10599437385599

   => Energetics <=

    Nuclear Repulsion Energy =            435.2082633135033802
    One-Electron Energy =               -1551.2050474175739510
    Two-Electron Energy =                 622.8907897302146921
    Total Energy =                       -493.1059943738559923
  Basis Set: (AUG-CC-PVTZ AUX)
    Blend: AUG-CC-PVTZ-RI
    Molecular point group: c1

    Geometry (in Angstrom), charge = -1, multiplicity = 1:

       Center              X                  Y                   Z               Mass
    ------------   -----------------  -----------------  -----------------  -----------------
         O            1.937752692707    -0.760087645895     0.334023483651    15.994914619570
         O            2.168111692707     1.357342354105    -0.435555516349    15.994914619570
         O           -3.241950307293    -0.369722645895    -0.941419516349    15.994914619570
         O           -2.532591307293    -0.043928645895     1.212926483651    15.994914619570
         C            0.012298692707     0.614951354105     0.440216483651    12.000000000000
         C           -0.908745107293    -0.065809145895    -0.554022816349    12.000000000000
         C            1.455023692707     0.498827354105     0.069985483651    12.000000000000
         C           -2.388087307293    -0.171336645895    -0.036820516349    12.000000000000
         C            3.294244692707    -0.955528645895    -0.075926516349    12.000000000000
         H           -0.177154307293     0.185727354105     1.426602483651     1.007825032230
         H           -0.238916307293     1.677919354105     0.476768483651     1.007825032230
         H           -0.885191307293     0.362559354105    -1.533682516349     1.007825032230
         H           -0.552062307293    -1.146027645895    -0.681880516349     1.007825032230
         H            3.527858692707    -1.988027645895     0.184321483651     1.007825032230
         H            3.964698692707    -0.268323645895     0.446034483651     1.007825032230
         H            3.403540692707    -0.798348645895    -1.151562516349     1.007825032230

  Basis Set: AUG-CC-PVTZ
    Blend: AUG-CC-PVTZ
  Basis Set: (AUG-CC-PVTZ AUX)
    Blend: AUG-CC-PVTZ-JKFIT
	 Reference Energy          =    -493.1059943738559923 [Eh]
	 Singles Energy            =      -0.0000000000000000 [Eh]
	 Same-Spin Energy          =      -0.4838709996751192 [Eh]
	 Opposite-Spin Energy      =      -1.4761208422638423 [Eh]
	 Correlation Energy        =      -1.9599918419389615 [Eh]
	 Total Energy              =    -495.0659862157949647 [Eh]

	 ================> DF-SCS-MP2 Energies <==================
	-----------------------------------------------------------
	 SCS Same-Spin Scale       =       0.3333333333333333 [-]
	 SCS Opposite-Spin Scale   =       1.2000000000000000 [-]
	 SCS Same-Spin Energy      =      -0.1612903332250397 [Eh]
	 SCS Opposite-Spin Energy  =      -1.7713450107166107 [Eh]
	 SCS Correlation Energy    =      -1.9326353439416504 [Eh]
	 SCS Total Energy          =    -495.0386297177976189 [Eh]
	-----------------------------------------------------------

  Dipole Moment: [D]
     X:    11.3676      Y:    -0.6560      Z:    -0.0950     Total:    11.3869

*** Psi4 exiting successfully. Buy a developer a beer!
