                               Psi4 1.3.2 release

  ==> Input File <==

--------------------------------------------------------------------------
#psi4
#
memory 32 gb

molecule  {
-1 1
  O        1.8724200    -0.7415990     0.3394840
  O        2.1027790     1.3758310    -0.4300950
  O       -3.3072830    -0.3512340    -0.9359590
  O       -2.5979240    -0.0254400     1.2183870
  C       -0.0530340     0.6334400     0.4456770
  C       -0.9697120    -0.0967620    -0.5425230
  C        1.3896910     0.5173160     0.0754460
  C       -2.4534200    -0.1528480    -0.0313600
  C        3.2289120    -0.9370400    -0.0704660
  H       -0.2424870     0.2042160     1.4320630
  H       -0.3042490     1.6964080     0.4822290
  H       -0.9505240     0.3810480    -1.5282220
  H       -0.6173950    -1.1275390    -0.6764200
  H        3.4625260    -1.9695390     0.1897820
  H        3.8993660    -0.2498350     0.4514950
  H        3.3382080    -0.7798600    -1.1461020
units angstrom
no_reorient  #important for SAPT in psi4, default
symmetry c1  #important for SAPT in psi4, default
}

set PROPERTIES_ORIGIN ["COM"]
properties('MP2/aug-cc-pvtz', properties = ['dipole'])
--------------------------------------------------------------------------

    Molecular point group: c1
  Charge       = -1
  Multiplicity = 1
  Basis Set: AUG-CC-PVTZ
    Blend: AUG-CC-PVTZ
  Basis Set: (AUG-CC-PVTZ AUX)
    Blend: AUG-CC-PVTZ-JKFIT

    Orbital Energies [Eh]
    ---------------------

    Doubly Occupied:

       1A    -20.496189     2A    -20.434756     3A    -20.308989
       4A    -20.306456     5A    -11.266440     6A    -11.190985
       7A    -11.154670     8A    -11.100770     9A    -11.079599
      10A     -1.342321    11A     -1.239774    12A     -1.177416
      13A     -1.081249    14A     -0.935382    15A     -0.857300
      16A     -0.756671    17A     -0.662167    18A     -0.576871
      19A     -0.568806    20A     -0.560794    21A     -0.530425
      22A     -0.487855    23A     -0.466127    24A     -0.452152
      25A     -0.431210    26A     -0.419089    27A     -0.411345
      28A     -0.386824    29A     -0.360719    30A     -0.353054
      31A     -0.338011    32A     -0.327688    33A     -0.225848
      34A     -0.209261    35A     -0.208126

  @DF-RHF Final Energy:  -493.10846694395667

   => Energetics <=

    Nuclear Repulsion Energy =            435.1177996552096943
    One-Electron Energy =               -1551.0418505127088338
    Two-Electron Energy =                 622.8155839135424685
    Total Energy =                       -493.1084669439567278
  Basis Set: (AUG-CC-PVTZ AUX)
    Blend: AUG-CC-PVTZ-RI
    Molecular point group: c1

    Geometry (in Angstrom), charge = -1, multiplicity = 1:

       Center              X                  Y                   Z               Mass
    ------------   -----------------  -----------------  -----------------  -----------------
         O            1.937352877189    -0.755559843674     0.333470410707    15.994914619570
         O            2.167711877189     1.361870156326    -0.436108589293    15.994914619570
         O           -3.242350122811    -0.365194843674    -0.941972589293    15.994914619570
         O           -2.532991122811    -0.039400843674     1.212373410707    15.994914619570
         C            0.011898877189     0.619479156326     0.439663410707    12.000000000000
         C           -0.904779122811    -0.110722843674    -0.548536589293    12.000000000000
         C            1.454623877189     0.503355156326     0.069432410707    12.000000000000
         C           -2.388487122811    -0.166808843674    -0.037373589293    12.000000000000
         C            3.293844877189    -0.951000843674    -0.076479589293    12.000000000000
         H           -0.177554122811     0.190255156326     1.426049410707     1.007825032230
         H           -0.239316122811     1.682447156326     0.476215410707     1.007825032230
         H           -0.885591122811     0.367087156326    -1.534235589293     1.007825032230
         H           -0.552462122811    -1.141499843674    -0.682433589293     1.007825032230
         H            3.527458877189    -1.983499843674     0.183768410707     1.007825032230
         H            3.964298877189    -0.263795843674     0.445481410707     1.007825032230
         H            3.403140877189    -0.793820843674    -1.152115589293     1.007825032230

  Basis Set: AUG-CC-PVTZ
    Blend: AUG-CC-PVTZ
  Basis Set: (AUG-CC-PVTZ AUX)
    Blend: AUG-CC-PVTZ-JKFIT
	 Reference Energy          =    -493.1084669439566710 [Eh]
	 Singles Energy            =      -0.0000000000000000 [Eh]
	 Same-Spin Energy          =      -0.4837443962590983 [Eh]
	 Opposite-Spin Energy      =      -1.4759760821461005 [Eh]
	 Correlation Energy        =      -1.9597204784051989 [Eh]
	 Total Energy              =    -495.0681874223618593 [Eh]

	 ================> DF-SCS-MP2 Energies <==================
	-----------------------------------------------------------
	 SCS Same-Spin Scale       =       0.3333333333333333 [-]
	 SCS Opposite-Spin Scale   =       1.2000000000000000 [-]
	 SCS Same-Spin Energy      =      -0.1612481320863661 [Eh]
	 SCS Opposite-Spin Energy  =      -1.7711712985753205 [Eh]
	 SCS Correlation Energy    =      -1.9324194306616866 [Eh]
	 SCS Total Energy          =    -495.0408863746183670 [Eh]
	-----------------------------------------------------------

  Dipole Moment: [D]
     X:    11.3433      Y:    -0.7294      Z:    -0.0854     Total:    11.3671

*** Psi4 exiting successfully. Buy a developer a beer!
