                               Psi4 1.3.2 release

  ==> Input File <==

--------------------------------------------------------------------------
#psi4
#
memory 32 gb

molecule  {
-1 1
  O        1.8724200    -0.7415990     0.3394840
  O        2.1027790     1.3758310    -0.4300950
  O       -3.3072830    -0.3512340    -0.9359590
  O       -2.5979240    -0.0254400     1.2183870
  C       -0.0530340     0.6334400     0.4456770
  C       -0.9784436     0.0021211    -0.5546017
  C        1.3896910     0.5173160     0.0754460
  C       -2.4534200    -0.1528480    -0.0313600
  C        3.2289120    -0.9370400    -0.0704660
  H       -0.2424870     0.2042160     1.4320630
  H       -0.3042490     1.6964080     0.4822290
  H       -0.9505240     0.3810480    -1.5282220
  H       -0.6173950    -1.1275390    -0.6764200
  H        3.4625260    -1.9695390     0.1897820
  H        3.8993660    -0.2498350     0.4514950
  H        3.3382080    -0.7798600    -1.1461020
units angstrom
no_reorient  #important for SAPT in psi4, default
symmetry c1  #important for SAPT in psi4, default
}

set PROPERTIES_ORIGIN ["COM"]
properties('MP2/aug-cc-pvtz', properties = ['dipole'])
--------------------------------------------------------------------------

    Molecular point group: c1
  Charge       = -1
  Multiplicity = 1
  Basis Set: AUG-CC-PVTZ
    Blend: AUG-CC-PVTZ
  Basis Set: (AUG-CC-PVTZ AUX)
    Blend: AUG-CC-PVTZ-JKFIT

    Orbital Energies [Eh]
    ---------------------

    Doubly Occupied:

       1A    -20.496736     2A    -20.435829     3A    -20.309011
       4A    -20.306214     5A    -11.267683     6A    -11.191232
       7A    -11.155746     8A    -11.100835     9A    -11.081796
      10A     -1.342941    11A     -1.240575    12A     -1.177394
      13A     -1.081254    14A     -0.939734    15A     -0.859308
      16A     -0.755069    17A     -0.662643    18A     -0.578707
      19A     -0.568920    20A     -0.561945    21A     -0.533379
      22A     -0.488210    23A     -0.464268    24A     -0.455220
      25A     -0.431833    26A     -0.419867    27A     -0.411864
      28A     -0.378564    29A     -0.371993    30A     -0.357995
      31A     -0.336779    32A     -0.313787    33A     -0.226257
      34A     -0.209079    35A     -0.208137

  @DF-RHF Final Energy:  -493.09909274654456

   => Energetics <=

    Nuclear Repulsion Energy =            435.2685584466131559
    One-Electron Energy =               -1551.2936903827651349
    Two-Electron Energy =                 622.9260391896073088
    Total Energy =                       -493.0990927465445566
  Basis Set: (AUG-CC-PVTZ AUX)
    Blend: AUG-CC-PVTZ-RI
    Molecular point group: c1

    Geometry (in Angstrom), charge = -1, multiplicity = 1:

       Center              X                  Y                   Z               Mass
    ------------   -----------------  -----------------  -----------------  -----------------
         O            1.938152508225    -0.764615457274     0.334576565752    15.994914619570
         O            2.168511508225     1.352814542726    -0.435002434248    15.994914619570
         O           -3.241550491775    -0.374250457274    -0.940866434248    15.994914619570
         O           -2.532191491775    -0.048456457274     1.213479565752    15.994914619570
         C            0.012698508225     0.610423542726     0.440769565752    12.000000000000
         C           -0.912711091775    -0.020895357274    -0.559509134248    12.000000000000
         C            1.455423508225     0.494299542726     0.070538565752    12.000000000000
         C           -2.387687491775    -0.175864457274    -0.036267434248    12.000000000000
         C            3.294644508225    -0.960056457274    -0.075373434248    12.000000000000
         H           -0.176754491775     0.181199542726     1.427155565752     1.007825032230
         H           -0.238516491775     1.673391542726     0.477321565752     1.007825032230
         H           -0.884791491775     0.358031542726    -1.533129434248     1.007825032230
         H           -0.551662491775    -1.150555457274    -0.681327434248     1.007825032230
         H            3.528258508225    -1.992555457274     0.184874565752     1.007825032230
         H            3.965098508225    -0.272851457274     0.446587565752     1.007825032230
         H            3.403940508225    -0.802876457274    -1.151009434248     1.007825032230

  Basis Set: AUG-CC-PVTZ
    Blend: AUG-CC-PVTZ
  Basis Set: (AUG-CC-PVTZ AUX)
    Blend: AUG-CC-PVTZ-JKFIT
	 Reference Energy          =    -493.0990927465445566 [Eh]
	 Singles Energy            =      -0.0000000000000000 [Eh]
	 Same-Spin Energy          =      -0.4840713229407958 [Eh]
	 Opposite-Spin Energy      =      -1.4764989269321063 [Eh]
	 Correlation Energy        =      -1.9605702498729021 [Eh]
	 Total Energy              =    -495.0596629964174440 [Eh]

	 ================> DF-SCS-MP2 Energies <==================
	-----------------------------------------------------------
	 SCS Same-Spin Scale       =       0.3333333333333333 [-]
	 SCS Opposite-Spin Scale   =       1.2000000000000000 [-]
	 SCS Same-Spin Energy      =      -0.1613571076469319 [Eh]
	 SCS Opposite-Spin Energy  =      -1.7717987123185275 [Eh]
	 SCS Correlation Energy    =      -1.9331558199654595 [Eh]
	 SCS Total Energy          =    -495.0322485665100203 [Eh]
	-----------------------------------------------------------

  Dipole Moment: [D]
     X:    11.3829      Y:    -0.5788      Z:    -0.0984     Total:    11.3981

*** Psi4 exiting successfully. Buy a developer a beer!
