                               Psi4 1.3.2 release

  ==> Input File <==

--------------------------------------------------------------------------
#psi4
#
memory 32 gb

molecule  {
0 1
  O       -0.8946000     0.3180840    -0.2486650
  O        0.2608140    -1.4535000     0.5764690
  C        1.4621750     0.4213130    -0.3980820
  C        1.8417180     1.4521698     0.8093647
  C        2.6165010    -0.5169580    -0.7250520
  C        0.2447430    -0.3668820     0.0213200
  C       -2.1092640    -0.3317960     0.1925940
  C       -3.2536250     0.5656790    -0.2140850
  H        1.1864410     1.0054960    -1.2820320
  H        2.6888660     1.9907190     0.4595330
  H        2.0609350     0.8310830     1.6444090
  H        0.9859800     2.0639750     0.9510040
  H        3.4951390     0.0579210    -1.0318300
  H        2.3532220    -1.2022810    -1.5348280
  H        2.8748910    -1.1153660     0.1513080
  H       -2.1714740    -1.3192040    -0.2711440
  H       -2.0606790    -0.4764550     1.2759150
  H       -4.2047000     0.1215880     0.0924120
  H       -3.1592540     1.5451910     0.2586100
  H       -3.2661300     0.7008150    -1.2970470
units angstrom
no_reorient  #important for SAPT in psi4, default
symmetry c1  #important for SAPT in psi4, default
}

set PROPERTIES_ORIGIN ["COM"]
properties('MP2/aug-cc-pvtz', properties = ['dipole'])
--------------------------------------------------------------------------

    Molecular point group: c1
  Charge       = 0
  Multiplicity = 1
  Basis Set: AUG-CC-PVTZ
    Blend: AUG-CC-PVTZ
  Basis Set: (AUG-CC-PVTZ AUX)
    Blend: AUG-CC-PVTZ-JKFIT

    Orbital Energies [Eh]
    ---------------------

    Doubly Occupied:

       1A    -20.598717     2A    -20.539024     3A    -11.372533
       4A    -11.286100     5A    -11.248536     6A    -11.226058
       7A    -11.223744     8A    -11.217009     9A     -1.448969
      10A     -1.347980    11A     -1.083149    12A     -1.033069
      13A     -0.941856    14A     -0.896215    15A     -0.828745
      16A     -0.760652    17A     -0.695999    18A     -0.677125
      19A     -0.658777    20A     -0.616236    21A     -0.593434
      22A     -0.584304    23A     -0.558178    24A     -0.554589
      25A     -0.552531    26A     -0.518933    27A     -0.510193
      28A     -0.504915    29A     -0.496418    30A     -0.461708
      31A     -0.455044    32A     -0.433989

  @DF-RHF Final Energy:  -384.07922664445158

   => Energetics <=

    Nuclear Repulsion Energy =            394.2216320350232763
    One-Electron Energy =               -1304.7522580020195164
    Two-Electron Energy =                 526.4513993225446029
    Total Energy =                       -384.0792266444516372
  Basis Set: (AUG-CC-PVTZ AUX)
    Blend: AUG-CC-PVTZ-RI
    Molecular point group: c1

    Geometry (in Angstrom), charge = 0, multiplicity = 1:

       Center              X                  Y                   Z               Mass
    ------------   -----------------  -----------------  -----------------  -----------------
         O           -0.897003341955     0.311555936103    -0.256311687454    15.994914619570
         O            0.258410658045    -1.460028063897     0.568822312546    15.994914619570
         C            1.459771658045     0.414784936103    -0.405728687454    12.000000000000
         C            1.839314658045     1.445641736103     0.801718012546    12.000000000000
         C            2.614097658045    -0.523486063897    -0.732698687454    12.000000000000
         C            0.242339658045    -0.373410063897     0.013673312546    12.000000000000
         C           -2.111667341955    -0.338324063897     0.184947312546    12.000000000000
         C           -3.256028341955     0.559150936103    -0.221731687454    12.000000000000
         H            1.184037658045     0.998967936103    -1.289678687454     1.007825032230
         H            2.686462658045     1.984190936103     0.451886312546     1.007825032230
         H            2.058531658045     0.824554936103     1.636762312546     1.007825032230
         H            0.983576658045     2.057446936103     0.943357312546     1.007825032230
         H            3.492735658045     0.051392936103    -1.039476687454     1.007825032230
         H            2.350818658045    -1.208809063897    -1.542474687454     1.007825032230
         H            2.872487658045    -1.121894063897     0.143661312546     1.007825032230
         H           -2.173877341955    -1.325732063897    -0.278790687454     1.007825032230
         H           -2.063082341955    -0.482983063897     1.268268312546     1.007825032230
         H           -4.207103341955     0.115059936103     0.084765312546     1.007825032230
         H           -3.161657341955     1.538662936103     0.250963312546     1.007825032230
         H           -3.268533341955     0.694286936103    -1.304693687454     1.007825032230

  Basis Set: AUG-CC-PVTZ
    Blend: AUG-CC-PVTZ
  Basis Set: (AUG-CC-PVTZ AUX)
    Blend: AUG-CC-PVTZ-JKFIT
	 Reference Energy          =    -384.0792266444515803 [Eh]
	 Singles Energy            =      -0.0000000000000000 [Eh]
	 Same-Spin Energy          =      -0.3835170135659851 [Eh]
	 Opposite-Spin Energy      =      -1.2865784648882430 [Eh]
	 Correlation Energy        =      -1.6700954784542281 [Eh]
	 Total Energy              =    -385.7493221229058236 [Eh]

	 ================> DF-SCS-MP2 Energies <==================
	-----------------------------------------------------------
	 SCS Same-Spin Scale       =       0.3333333333333333 [-]
	 SCS Opposite-Spin Scale   =       1.2000000000000000 [-]
	 SCS Same-Spin Energy      =      -0.1278390045219950 [Eh]
	 SCS Opposite-Spin Energy  =      -1.5438941578658916 [Eh]
	 SCS Correlation Energy    =      -1.6717331623878866 [Eh]
	 SCS Total Energy          =    -385.7509598068394894 [Eh]
	-----------------------------------------------------------

  Dipole Moment: [D]
     X:    -0.6660      Y:     1.6140      Z:    -0.6096     Total:     1.8493

*** Psi4 exiting successfully. Buy a developer a beer!
