                               Psi4 1.3.2 release

  ==> Input File <==

--------------------------------------------------------------------------
#psi4
#
memory 32 gb

molecule  {
0 1
  O       -0.8946000     0.3180840    -0.2486650
  O        0.3033860    -1.4525733     0.5754164
  C        1.4925862     0.3828256    -0.3788248
  C        1.8184670     1.3890190     0.7353960
  C        2.6165010    -0.5169580    -0.7250520
  C        0.2447430    -0.3668820     0.0213200
  C       -2.1092640    -0.3317960     0.1925940
  C       -3.2536250     0.5656790    -0.2140850
  H        1.1864410     1.0054960    -1.2820320
  H        2.6888660     1.9907190     0.4595330
  H        2.0609350     0.8310830     1.6444090
  H        0.9859800     2.0639750     0.9510040
  H        3.4951390     0.0579210    -1.0318300
  H        2.3532220    -1.2022810    -1.5348280
  H        2.8748910    -1.1153660     0.1513080
  H       -2.1714740    -1.3192040    -0.2711440
  H       -2.0606790    -0.4764550     1.2759150
  H       -4.2047000     0.1215880     0.0924120
  H       -3.1592540     1.5451910     0.2586100
  H       -3.2661300     0.7008150    -1.2970470
units angstrom
no_reorient  #important for SAPT in psi4, default
symmetry c1  #important for SAPT in psi4, default
}

set PROPERTIES_ORIGIN ["COM"]
properties('MP2/aug-cc-pvtz', properties = ['dipole'])
--------------------------------------------------------------------------

    Molecular point group: c1
  Charge       = 0
  Multiplicity = 1
  Basis Set: AUG-CC-PVTZ
    Blend: AUG-CC-PVTZ
  Basis Set: (AUG-CC-PVTZ AUX)
    Blend: AUG-CC-PVTZ-JKFIT

    Orbital Energies [Eh]
    ---------------------

    Doubly Occupied:

       1A    -20.603153     2A    -20.539712     3A    -11.373530
       4A    -11.288844     5A    -11.245530     6A    -11.226477
       7A    -11.225424     8A    -11.214476     9A     -1.449931
      10A     -1.351810    11A     -1.095619    12A     -1.036914
      13A     -0.942284    14A     -0.894685    15A     -0.828330
      16A     -0.761575    17A     -0.695440    18A     -0.679275
      19A     -0.660783    20A     -0.622270    21A     -0.591931
      22A     -0.585104    23A     -0.557324    24A     -0.549382
      25A     -0.544595    26A     -0.520895    27A     -0.512029
      28A     -0.506622    29A     -0.495729    30A     -0.468984
      31A     -0.456896    32A     -0.432537

  @DF-RHF Final Energy:  -384.08180025202643

   => Energetics <=

    Nuclear Repulsion Energy =            395.9497736611551204
    One-Electron Energy =               -1308.1469706324985509
    Two-Electron Energy =                 528.1153967193168910
    Total Energy =                       -384.0818002520264827
  Basis Set: (AUG-CC-PVTZ AUX)
    Blend: AUG-CC-PVTZ-RI
    Molecular point group: c1

    Geometry (in Angstrom), charge = 0, multiplicity = 1:

       Center              X                  Y                   Z               Mass
    ------------   -----------------  -----------------  -----------------  -----------------
         O           -0.903609417653     0.321934960937    -0.250510924080    15.994914619570
         O            0.294376582347    -1.448722339063     0.573570475920    15.994914619570
         C            1.483576782347     0.386676560937    -0.380670724080    12.000000000000
         C            1.809457582347     1.392869960937     0.733550075920    12.000000000000
         C            2.607491582347    -0.513107039063    -0.726897924080    12.000000000000
         C            0.235733582347    -0.363031039063     0.019474075920    12.000000000000
         C           -2.118273417653    -0.327945039063     0.190748075920    12.000000000000
         C           -3.262634417653     0.569529960937    -0.215930924080    12.000000000000
         H            1.177431582347     1.009346960937    -1.283877924080     1.007825032230
         H            2.679856582347     1.994569960937     0.457687075920     1.007825032230
         H            2.051925582347     0.834933960937     1.642563075920     1.007825032230
         H            0.976970582347     2.067825960937     0.949158075920     1.007825032230
         H            3.486129582347     0.061771960937    -1.033675924080     1.007825032230
         H            2.344212582347    -1.198430039063    -1.536673924080     1.007825032230
         H            2.865881582347    -1.111515039063     0.149462075920     1.007825032230
         H           -2.180483417653    -1.315353039063    -0.272989924080     1.007825032230
         H           -2.069688417653    -0.472604039063     1.274069075920     1.007825032230
         H           -4.213709417653     0.125438960937     0.090566075920     1.007825032230
         H           -3.168263417653     1.549041960937     0.256764075920     1.007825032230
         H           -3.275139417653     0.704665960937    -1.298892924080     1.007825032230

  Basis Set: AUG-CC-PVTZ
    Blend: AUG-CC-PVTZ
  Basis Set: (AUG-CC-PVTZ AUX)
    Blend: AUG-CC-PVTZ-JKFIT
	 Reference Energy          =    -384.0818002520264258 [Eh]
	 Singles Energy            =      -0.0000000000000000 [Eh]
	 Same-Spin Energy          =      -0.3841333376445043 [Eh]
	 Opposite-Spin Energy      =      -1.2870709270674683 [Eh]
	 Correlation Energy        =      -1.6712042647119727 [Eh]
	 Total Energy              =    -385.7530045167383719 [Eh]

	 ================> DF-SCS-MP2 Energies <==================
	-----------------------------------------------------------
	 SCS Same-Spin Scale       =       0.3333333333333333 [-]
	 SCS Opposite-Spin Scale   =       1.2000000000000000 [-]
	 SCS Same-Spin Energy      =      -0.1280444458815014 [Eh]
	 SCS Opposite-Spin Energy  =      -1.5444851124809620 [Eh]
	 SCS Correlation Energy    =      -1.6725295583624633 [Eh]
	 SCS Total Energy          =    -385.7543298103888674 [Eh]
	-----------------------------------------------------------

  Dipole Moment: [D]
     X:    -0.8412      Y:     1.5607      Z:    -0.5935     Total:     1.8697

*** Psi4 exiting successfully. Buy a developer a beer!
