                               Psi4 1.3.2 release

  ==> Input File <==

--------------------------------------------------------------------------
#psi4
#
memory 32 gb

molecule  {
0 1
  O       -0.8946000     0.3180840    -0.2486650
  O        0.2608140    -1.4535000     0.5764690
  C        1.4621750     0.4213130    -0.3980820
  C        1.8184670     1.3890190     0.7353960
  C        2.6165010    -0.5169580    -0.7250520
  C        0.2460599    -0.4559255     0.0668120
  C       -2.1092640    -0.3317960     0.1925940
  C       -3.2536250     0.5656790    -0.2140850
  H        1.1864410     1.0054960    -1.2820320
  H        2.6888660     1.9907190     0.4595330
  H        2.0609350     0.8310830     1.6444090
  H        0.9859800     2.0639750     0.9510040
  H        3.4951390     0.0579210    -1.0318300
  H        2.3532220    -1.2022810    -1.5348280
  H        2.8748910    -1.1153660     0.1513080
  H       -2.1714740    -1.3192040    -0.2711440
  H       -2.0606790    -0.4764550     1.2759150
  H       -4.2047000     0.1215880     0.0924120
  H       -3.1592540     1.5451910     0.2586100
  H       -3.2661300     0.7008150    -1.2970470
units angstrom
no_reorient  #important for SAPT in psi4, default
symmetry c1  #important for SAPT in psi4, default
}

set PROPERTIES_ORIGIN ["COM"]
properties('MP2/aug-cc-pvtz', properties = ['dipole'])
--------------------------------------------------------------------------

    Molecular point group: c1
  Charge       = 0
  Multiplicity = 1
  Basis Set: AUG-CC-PVTZ
    Blend: AUG-CC-PVTZ
  Basis Set: (AUG-CC-PVTZ AUX)
    Blend: AUG-CC-PVTZ-JKFIT

    Orbital Energies [Eh]
    ---------------------

    Doubly Occupied:

       1A    -20.583018     2A    -20.559723     3A    -11.365461
       4A    -11.279282     5A    -11.243637     6A    -11.223442
       7A    -11.219450     8A    -11.215672     9A     -1.483732
      10A     -1.370509    11A     -1.083972    12A     -1.024551
      13A     -0.936984    14A     -0.879170    15A     -0.818986
      16A     -0.755519    17A     -0.710641    18A     -0.680687
      19A     -0.670421    20A     -0.621758    21A     -0.598346
      22A     -0.583267    23A     -0.554782    24A     -0.546624
      25A     -0.544166    26A     -0.529671    27A     -0.519748
      28A     -0.507441    29A     -0.485668    30A     -0.483959
      31A     -0.455356    32A     -0.423479

  @DF-RHF Final Energy:  -384.07303637587466

   => Energetics <=

    Nuclear Repulsion Energy =            396.0968661384844722
    One-Electron Energy =               -1308.4215601562091251
    Two-Electron Energy =                 528.2516576418499881
    Total Energy =                       -384.0730363758746080
  Basis Set: (AUG-CC-PVTZ AUX)
    Blend: AUG-CC-PVTZ-RI
    Molecular point group: c1

    Geometry (in Angstrom), charge = 0, multiplicity = 1:

       Center              X                  Y                   Z               Mass
    ------------   -----------------  -----------------  -----------------  -----------------
         O           -0.894735933759     0.327288817928    -0.253367946749    15.994914619570
         O            0.260678066241    -1.444295182072     0.571766053251    15.994914619570
         C            1.462039066241     0.430517817928    -0.402784946749    12.000000000000
         C            1.818331066241     1.398223817928     0.730693053251    12.000000000000
         C            2.616365066241    -0.507753182072    -0.729754946749    12.000000000000
         C            0.245923966241    -0.446720682072     0.062109053251    12.000000000000
         C           -2.109399933759    -0.322591182072     0.187891053251    12.000000000000
         C           -3.253760933759     0.574883817928    -0.218787946749    12.000000000000
         H            1.186305066241     1.014700817928    -1.286734946749     1.007825032230
         H            2.688730066241     1.999923817928     0.454830053251     1.007825032230
         H            2.060799066241     0.840287817928     1.639706053251     1.007825032230
         H            0.985844066241     2.073179817928     0.946301053251     1.007825032230
         H            3.495003066241     0.067125817928    -1.036532946749     1.007825032230
         H            2.353086066241    -1.193076182072    -1.539530946749     1.007825032230
         H            2.874755066241    -1.106161182072     0.146605053251     1.007825032230
         H           -2.171609933759    -1.309999182072    -0.275846946749     1.007825032230
         H           -2.060814933759    -0.467250182072     1.271212053251     1.007825032230
         H           -4.204835933759     0.130792817928     0.087709053251     1.007825032230
         H           -3.159389933759     1.554395817928     0.253907053251     1.007825032230
         H           -3.266265933759     0.710019817928    -1.301749946749     1.007825032230

  Basis Set: AUG-CC-PVTZ
    Blend: AUG-CC-PVTZ
  Basis Set: (AUG-CC-PVTZ AUX)
    Blend: AUG-CC-PVTZ-JKFIT
	 Reference Energy          =    -384.0730363758746648 [Eh]
	 Singles Energy            =      -0.0000000000000000 [Eh]
	 Same-Spin Energy          =      -0.3822609708762652 [Eh]
	 Opposite-Spin Energy      =      -1.2838534052755066 [Eh]
	 Correlation Energy        =      -1.6661143761517718 [Eh]
	 Total Energy              =    -385.7391507520264327 [Eh]

	 ================> DF-SCS-MP2 Energies <==================
	-----------------------------------------------------------
	 SCS Same-Spin Scale       =       0.3333333333333333 [-]
	 SCS Opposite-Spin Scale   =       1.2000000000000000 [-]
	 SCS Same-Spin Energy      =      -0.1274203236254217 [Eh]
	 SCS Opposite-Spin Energy  =      -1.5406240863306080 [Eh]
	 SCS Correlation Energy    =      -1.6680444099560297 [Eh]
	 SCS Total Energy          =    -385.7410807858307180 [Eh]
	-----------------------------------------------------------

  Dipole Moment: [D]
     X:    -0.4292      Y:     1.0038      Z:    -0.3609     Total:     1.1498

*** Psi4 exiting successfully. Buy a developer a beer!
