                               Psi4 1.4a3.dev225

  ==> Input File <==

--------------------------------------------------------------------------
#psi4
#
memory 32 gb

molecule  {
0 1
  O       -0.8844740     0.2512200    -0.2589860
  O        0.2594420    -1.5357810     0.5540110
  C        1.4751410     0.3499910    -0.3991000
  C        1.6489360     1.5420820     0.5503600
  C        2.7076510    -0.5454760    -0.4239080
  C        0.2360453    -0.4295157     0.0113491
  C       -2.1066380    -0.4073920     0.1545600
  C       -3.2437300     0.5134160    -0.2249800
  H        1.2747850     0.7394360    -1.4046030
  H        2.5199720     2.1341380     0.2549160
  H        1.8085970     1.1898350     1.5745190
  H        0.7675450     2.1869880     0.5363060
  H        3.5809030     0.0268420    -0.7502520
  H        2.5706130    -1.3892510    -1.1045820
  H        2.9042310    -0.9491700     0.5720060
  H       -2.1727950    -1.3769310    -0.3467220
  H       -2.0631380    -0.5911830     1.2316620
  H       -4.1987120     0.0656950     0.0643780
  H       -3.1432900     1.4757990     0.2814060
  H       -3.2533220     0.6866720    -1.3031500
units angstrom
no_reorient  #important for SAPT in psi4, default
symmetry c1  #important for SAPT in psi4, default
}

set PROPERTIES_ORIGIN ["COM"]
properties('MP2/aug-cc-pvtz', properties = ['dipole'])
--------------------------------------------------------------------------

    Molecular point group: c1
  Charge       = 0
  Multiplicity = 1
  Basis Set: AUG-CC-PVTZ
    Blend: AUG-CC-PVTZ
  Basis Set: (AUG-CC-PVTZ AUX)
    Blend: AUG-CC-PVTZ-JKFIT

    Orbital Energies [Eh]
    ---------------------

    Doubly Occupied:

       1A    -20.603606     2A    -20.537508     3A    -11.374090
       4A    -11.289462     5A    -11.246324     6A    -11.226254
       7A    -11.225975     8A    -11.215197     9A     -1.454478
      10A     -1.343733    11A     -1.091846    12A     -1.037007
      13A     -0.937495    14A     -0.895881    15A     -0.829532
      16A     -0.765475    17A     -0.696072    18A     -0.679354
      19A     -0.662619    20A     -0.620719    21A     -0.586979
      22A     -0.581833    23A     -0.557738    24A     -0.549623
      25A     -0.543370    26A     -0.518372    27A     -0.509279
      28A     -0.505356    29A     -0.489571    30A     -0.479869
      31A     -0.455182    32A     -0.434043

  @DF-RHF Final Energy:  -384.08506318579651

   => Energetics <=

    Nuclear Repulsion Energy =            395.8167159403954543
    One-Electron Energy =               -1307.9158742702179552
    Two-Electron Energy =                 528.0140951440259869
    Total Energy =                       -384.0850631857965709
  Basis Set: (AUG-CC-PVTZ AUX)
    Blend: AUG-CC-PVTZ-RI
    Molecular point group: c1

    Geometry (in Angstrom), charge = 0, multiplicity = 1:

       Center              X                  Y                   Z               Mass
    ------------   -----------------  -----------------  -----------------  -----------------
         O           -0.877682161566     0.286000529869    -0.261924162965    15.994914619570
         O            0.266233838434    -1.501000470131     0.551072837035    15.994914619570
         C            1.481932838434     0.384771529869    -0.402038162965    12.000000000000
         C            1.655727838434     1.576862529869     0.547421837035    12.000000000000
         C            2.714442838434    -0.510695470131    -0.426846162965    12.000000000000
         C            0.242837138434    -0.394735170131     0.008410937035    12.000000000000
         C           -2.099846161566    -0.372611470131     0.151621837035    12.000000000000
         C           -3.236938161566     0.548196529869    -0.227918162965    12.000000000000
         H            1.281576838434     0.774216529869    -1.407541162965     1.007825032230
         H            2.526763838434     2.168918529869     0.251977837035     1.007825032230
         H            1.815388838434     1.224615529869     1.571580837035     1.007825032230
         H            0.774336838434     2.221768529869     0.533367837035     1.007825032230
         H            3.587694838434     0.061622529869    -0.753190162965     1.007825032230
         H            2.577404838434    -1.354470470131    -1.107520162965     1.007825032230
         H            2.911022838434    -0.914389470131     0.569067837035     1.007825032230
         H           -2.166003161566    -1.342150470131    -0.349660162965     1.007825032230
         H           -2.056346161566    -0.556402470131     1.228723837035     1.007825032230
         H           -4.191920161566     0.100475529869     0.061439837035     1.007825032230
         H           -3.136498161566     1.510579529869     0.278467837035     1.007825032230
         H           -3.246530161566     0.721452529869    -1.306088162965     1.007825032230

  Basis Set: AUG-CC-PVTZ
    Blend: AUG-CC-PVTZ
  Basis Set: (AUG-CC-PVTZ AUX)
    Blend: AUG-CC-PVTZ-JKFIT
	 Reference Energy          =    -384.0850631857965141 [Eh]
	 Singles Energy            =      -0.0000000000000000 [Eh]
	 Same-Spin Energy          =      -0.3838301500069179 [Eh]
	 Opposite-Spin Energy      =      -1.2867180018906910 [Eh]
	 Correlation Energy        =      -1.6705481518976089 [Eh]
	 Total Energy              =    -385.7556113376941198 [Eh]

	 ================> DF-SCS-MP2 Energies <==================
	-----------------------------------------------------------
	 SCS Same-Spin Scale       =       0.3333333333333333 [-]
	 SCS Opposite-Spin Scale   =       1.2000000000000000 [-]
	 SCS Same-Spin Energy      =      -0.1279433833356393 [Eh]
	 SCS Opposite-Spin Energy  =      -1.5440616022688292 [Eh]
	 SCS Correlation Energy    =      -1.6720049856044685 [Eh]
	 SCS Total Energy          =    -385.7570681714009879 [Eh]
	-----------------------------------------------------------

  Dipole Moment: [D]
     X:    -0.8916      Y:     1.6765      Z:    -0.6642     Total:     2.0116

*** Psi4 exiting successfully. Buy a developer a beer!
