                               Psi4 1.3.2 release

  ==> Input File <==

--------------------------------------------------------------------------
#psi4
#
memory 32 gb

molecule  {
0 1
  O       -0.8946000     0.3180840    -0.2486650
  O        0.2608140    -1.4535000     0.5764690
  C        1.4621750     0.4213130    -0.3980820
  C        1.8184670     1.3890190     0.7353960
  C        2.6165010    -0.5169580    -0.7250520
  C        0.4127221    -0.4678700     0.0611252
  C       -2.1092640    -0.3317960     0.1925940
  C       -3.2536250     0.5656790    -0.2140850
  H        1.1864410     1.0054960    -1.2820320
  H        2.6888660     1.9907190     0.4595330
  H        2.0609350     0.8310830     1.6444090
  H        0.9859800     2.0639750     0.9510040
  H        3.4951390     0.0579210    -1.0318300
  H        2.3532220    -1.2022810    -1.5348280
  H        2.8748910    -1.1153660     0.1513080
  H       -2.1714740    -1.3192040    -0.2711440
  H       -2.0606790    -0.4764550     1.2759150
  H       -4.2047000     0.1215880     0.0924120
  H       -3.1592540     1.5451910     0.2586100
  H       -3.2661300     0.7008150    -1.2970470
units angstrom
no_reorient  #important for SAPT in psi4, default
symmetry c1  #important for SAPT in psi4, default
}

set PROPERTIES_ORIGIN ["COM"]
properties('MP2/aug-cc-pvtz', properties = ['dipole'])
--------------------------------------------------------------------------

    Molecular point group: c1
  Charge       = 0
  Multiplicity = 1
  Basis Set: AUG-CC-PVTZ
    Blend: AUG-CC-PVTZ
  Basis Set: (AUG-CC-PVTZ AUX)
    Blend: AUG-CC-PVTZ-JKFIT

    Orbital Energies [Eh]
    ---------------------

    Doubly Occupied:

       1A    -20.576905     2A    -20.543132     3A    -11.377794
       4A    -11.261038     5A    -11.256064     6A    -11.235796
       7A    -11.228610     8A    -11.207014     9A     -1.486307
      10A     -1.313935    11A     -1.116101    12A     -1.003184
      13A     -0.951275    14A     -0.890511    15A     -0.814855
      16A     -0.748407    17A     -0.712676    18A     -0.681951
      19A     -0.654733    20A     -0.626904    21A     -0.601099
      22A     -0.576244    23A     -0.561515    24A     -0.551080
      25A     -0.540566    26A     -0.529325    27A     -0.509135
      28A     -0.503790    29A     -0.497677    30A     -0.485749
      31A     -0.426693    32A     -0.420381

  @DF-RHF Final Energy:  -384.04730592420179

   => Energetics <=

    Nuclear Repulsion Energy =            395.5392378276193313
    One-Electron Energy =               -1307.3922020269224049
    Two-Electron Energy =                 527.8056582751013366
    Total Energy =                       -384.0473059242017371
  Basis Set: (AUG-CC-PVTZ AUX)
    Blend: AUG-CC-PVTZ-RI
    Molecular point group: c1

    Geometry (in Angstrom), charge = 0, multiplicity = 1:

       Center              X                  Y                   Z               Mass
    ------------   -----------------  -----------------  -----------------  -----------------
         O           -0.911964415359     0.328523564610    -0.252780081420    15.994914619570
         O            0.243449584641    -1.443060435390     0.572353918580    15.994914619570
         C            1.444810584641     0.431752564610    -0.402197081420    12.000000000000
         C            1.801102584641     1.399458564610     0.731280918580    12.000000000000
         C            2.599136584641    -0.506518435390    -0.729167081420    12.000000000000
         C            0.395357684641    -0.457430435390     0.057010118580    12.000000000000
         C           -2.126628415359    -0.321356435390     0.188478918580    12.000000000000
         C           -3.270989415359     0.576118564610    -0.218200081420    12.000000000000
         H            1.169076584641     1.015935564610    -1.286147081420     1.007825032230
         H            2.671501584641     2.001158564610     0.455417918580     1.007825032230
         H            2.043570584641     0.841522564610     1.640293918580     1.007825032230
         H            0.968615584641     2.074414564610     0.946888918580     1.007825032230
         H            3.477774584641     0.068360564610    -1.035945081420     1.007825032230
         H            2.335857584641    -1.191841435390    -1.538943081420     1.007825032230
         H            2.857526584641    -1.104926435390     0.147192918580     1.007825032230
         H           -2.188838415359    -1.308764435390    -0.275259081420     1.007825032230
         H           -2.078043415359    -0.466015435390     1.271799918580     1.007825032230
         H           -4.222064415359     0.132027564610     0.088296918580     1.007825032230
         H           -3.176618415359     1.555630564610     0.254494918580     1.007825032230
         H           -3.283494415359     0.711254564610    -1.301162081420     1.007825032230

  Basis Set: AUG-CC-PVTZ
    Blend: AUG-CC-PVTZ
  Basis Set: (AUG-CC-PVTZ AUX)
    Blend: AUG-CC-PVTZ-JKFIT
	 Reference Energy          =    -384.0473059242017939 [Eh]
	 Singles Energy            =      -0.0000000000000000 [Eh]
	 Same-Spin Energy          =      -0.3850781740321729 [Eh]
	 Opposite-Spin Energy      =      -1.2890809773434251 [Eh]
	 Correlation Energy        =      -1.6741591513755980 [Eh]
	 Total Energy              =    -385.7214650755773846 [Eh]

	 ================> DF-SCS-MP2 Energies <==================
	-----------------------------------------------------------
	 SCS Same-Spin Scale       =       0.3333333333333333 [-]
	 SCS Opposite-Spin Scale   =       1.2000000000000000 [-]
	 SCS Same-Spin Energy      =      -0.1283593913440576 [Eh]
	 SCS Opposite-Spin Energy  =      -1.5468971728121101 [Eh]
	 SCS Correlation Energy    =      -1.6752565641561679 [Eh]
	 SCS Total Energy          =    -385.7225624883579371 [Eh]
	-----------------------------------------------------------

  Dipole Moment: [D]
     X:     1.1504      Y:     0.8793      Z:    -0.3008     Total:     1.4789

*** Psi4 exiting successfully. Buy a developer a beer!
