                               Psi4 1.3.2 release

  ==> Input File <==

--------------------------------------------------------------------------
#psi4
#
memory 32 gb

molecule  {
0 1
  O       -0.9135045     0.3778548    -0.2061754
  O        0.2608140    -1.4535000     0.5764690
  C        1.4621750     0.4213130    -0.3980820
  C        1.8184670     1.3890190     0.7353960
  C        2.6165010    -0.5169580    -0.7250520
  C        0.2447430    -0.3668820     0.0213200
  C       -2.1092640    -0.3317960     0.1925940
  C       -3.2536250     0.5656790    -0.2140850
  H        1.1864410     1.0054960    -1.2820320
  H        2.6888660     1.9907190     0.4595330
  H        2.0609350     0.8310830     1.6444090
  H        0.9859800     2.0639750     0.9510040
  H        3.4951390     0.0579210    -1.0318300
  H        2.3532220    -1.2022810    -1.5348280
  H        2.8748910    -1.1153660     0.1513080
  H       -2.2210353    -1.3272919    -0.2437460
  H       -2.0606790    -0.4764550     1.2759150
  H       -4.2047000     0.1215880     0.0924120
  H       -3.1592540     1.5451910     0.2586100
  H       -3.2661300     0.7008150    -1.2970470
units angstrom
no_reorient  #important for SAPT in psi4, default
symmetry c1  #important for SAPT in psi4, default
}

set PROPERTIES_ORIGIN ["COM"]
properties('MP2/aug-cc-pvtz', properties = ['dipole'])
--------------------------------------------------------------------------

    Molecular point group: c1
  Charge       = 0
  Multiplicity = 1
  Basis Set: AUG-CC-PVTZ
    Blend: AUG-CC-PVTZ
  Basis Set: (AUG-CC-PVTZ AUX)
    Blend: AUG-CC-PVTZ-JKFIT

    Orbital Energies [Eh]
    ---------------------

    Doubly Occupied:

       1A    -20.599545     2A    -20.548474     3A    -11.379283
       4A    -11.283650     5A    -11.247614     6A    -11.228008
       7A    -11.220530     8A    -11.218590     9A     -1.439888
      10A     -1.351264    11A     -1.095109    12A     -1.029916
      13A     -0.940413    14A     -0.890875    15A     -0.828798
      16A     -0.758241    17A     -0.700070    18A     -0.671898
      19A     -0.661689    20A     -0.620550    21A     -0.588310
      22A     -0.583981    23A     -0.554165    24A     -0.547452
      25A     -0.543655    26A     -0.519354    27A     -0.512204
      28A     -0.505770    29A     -0.490626    30A     -0.481904
      31A     -0.456173    32A     -0.437679

  @DF-RHF Final Energy:  -384.07976855043665

   => Energetics <=

    Nuclear Repulsion Energy =            394.9410550684837062
    One-Electron Energy =               -1306.1702895112312035
    Two-Electron Energy =                 527.1494658923109000
    Total Energy =                       -384.0797685504365973
  Basis Set: (AUG-CC-PVTZ AUX)
    Blend: AUG-CC-PVTZ-RI
    Molecular point group: c1

    Geometry (in Angstrom), charge = 0, multiplicity = 1:

       Center              X                  Y                   Z               Mass
    ------------   -----------------  -----------------  -----------------  -----------------
         O           -0.910469207409     0.369689400231    -0.212268084269    15.994914619570
         O            0.263849292591    -1.461665399769     0.570376315731    15.994914619570
         C            1.465210292591     0.413147600231    -0.404174684269    12.000000000000
         C            1.821502292591     1.380853600231     0.729303315731    12.000000000000
         C            2.619536292591    -0.525123399769    -0.731144684269    12.000000000000
         C            0.247778292591    -0.375047399769     0.015227315731    12.000000000000
         C           -2.106228707409    -0.339961399769     0.186501315731    12.000000000000
         C           -3.250589707409     0.557513600231    -0.220177684269    12.000000000000
         H            1.189476292591     0.997330600231    -1.288124684269     1.007825032230
         H            2.691901292591     1.982553600231     0.453440315731     1.007825032230
         H            2.063970292591     0.822917600231     1.638316315731     1.007825032230
         H            0.989015292591     2.055809600231     0.944911315731     1.007825032230
         H            3.498174292591     0.049755600231    -1.037922684269     1.007825032230
         H            2.356257292591    -1.210446399769    -1.540920684269     1.007825032230
         H            2.877926292591    -1.123531399769     0.145215315731     1.007825032230
         H           -2.218000007409    -1.335457299769    -0.249838684269     1.007825032230
         H           -2.057643707409    -0.484620399769     1.269822315731     1.007825032230
         H           -4.201664707409     0.113422600231     0.086319315731     1.007825032230
         H           -3.156218707409     1.537025600231     0.252517315731     1.007825032230
         H           -3.263094707409     0.692649600231    -1.303139684269     1.007825032230

  Basis Set: AUG-CC-PVTZ
    Blend: AUG-CC-PVTZ
  Basis Set: (AUG-CC-PVTZ AUX)
    Blend: AUG-CC-PVTZ-JKFIT
	 Reference Energy          =    -384.0797685504366541 [Eh]
	 Singles Energy            =      -0.0000000000000000 [Eh]
	 Same-Spin Energy          =      -0.3845870402431230 [Eh]
	 Opposite-Spin Energy      =      -1.2886447427814418 [Eh]
	 Correlation Energy        =      -1.6732317830245647 [Eh]
	 Total Energy              =    -385.7530003334612161 [Eh]

	 ================> DF-SCS-MP2 Energies <==================
	-----------------------------------------------------------
	 SCS Same-Spin Scale       =       0.3333333333333333 [-]
	 SCS Opposite-Spin Scale   =       1.2000000000000000 [-]
	 SCS Same-Spin Energy      =      -0.1281956800810410 [Eh]
	 SCS Opposite-Spin Energy  =      -1.5463736913377302 [Eh]
	 SCS Correlation Energy    =      -1.6745693714187713 [Eh]
	 SCS Total Energy          =    -385.7543379218554378 [Eh]
	-----------------------------------------------------------

  Dipole Moment: [D]
     X:    -0.4541      Y:     1.4184      Z:    -0.6173     Total:     1.6122

*** Psi4 exiting successfully. Buy a developer a beer!
