                               Psi4 1.3.2 release

  ==> Input File <==

--------------------------------------------------------------------------
#psi4
#
memory 32 gb

molecule  {
0 1
  O       -0.8946000     0.3180840    -0.2486650
  O        0.2608140    -1.4535000     0.5764690
  C        1.4621750     0.4213130    -0.3980820
  C        1.8649690     1.5153205     0.8833335
  C        2.6165010    -0.5169580    -0.7250520
  C        0.2447430    -0.3668820     0.0213200
  C       -2.1092640    -0.3317960     0.1925940
  C       -3.2536250     0.5656790    -0.2140850
  H        1.1864410     1.0054960    -1.2820320
  H        2.6888660     1.9907190     0.4595330
  H        2.0609350     0.8310830     1.6444090
  H        0.9859800     2.0639750     0.9510040
  H        3.4951390     0.0579210    -1.0318300
  H        2.3532220    -1.2022810    -1.5348280
  H        2.8748910    -1.1153660     0.1513080
  H       -2.1714740    -1.3192040    -0.2711440
  H       -2.0606790    -0.4764550     1.2759150
  H       -4.2047000     0.1215880     0.0924120
  H       -3.1592540     1.5451910     0.2586100
  H       -3.2661300     0.7008150    -1.2970470
units angstrom
no_reorient  #important for SAPT in psi4, default
symmetry c1  #important for SAPT in psi4, default
}

set PROPERTIES_ORIGIN ["COM"]
properties('MP2/aug-cc-pvtz', properties = ['dipole'])
--------------------------------------------------------------------------

    Molecular point group: c1
  Charge       = 0
  Multiplicity = 1
  Basis Set: AUG-CC-PVTZ
    Blend: AUG-CC-PVTZ
  Basis Set: (AUG-CC-PVTZ AUX)
    Blend: AUG-CC-PVTZ-JKFIT

    Orbital Energies [Eh]
    ---------------------

    Doubly Occupied:

       1A    -20.598005     2A    -20.537875     3A    -11.371737
       4A    -11.285707     5A    -11.250767     6A    -11.228311
       7A    -11.223521     8A    -11.217125     9A     -1.448117
      10A     -1.347096    11A     -1.075399    12A     -1.031532
      13A     -0.945246    14A     -0.896737    15A     -0.828774
      16A     -0.759637    17A     -0.693710    18A     -0.676482
      19A     -0.657281    20A     -0.617837    21A     -0.598613
      22A     -0.585084    23A     -0.568289    24A     -0.556012
      25A     -0.553725    26A     -0.518743    27A     -0.510039
      28A     -0.504443    29A     -0.499337    30A     -0.455040
      31A     -0.446317    32A     -0.423083

  @DF-RHF Final Energy:  -384.06057950576741

   => Energetics <=

    Nuclear Repulsion Energy =            392.6903158146112673
    One-Electron Energy =               -1301.6825521230086906
    Two-Electron Energy =                 524.9316568026299592
    Total Energy =                       -384.0605795057674641
  Basis Set: (AUG-CC-PVTZ AUX)
    Blend: AUG-CC-PVTZ-RI
    Molecular point group: c1

    Geometry (in Angstrom), charge = 0, multiplicity = 1:

       Center              X                  Y                   Z               Mass
    ------------   -----------------  -----------------  -----------------  -----------------
         O           -0.899406882924     0.305027817111    -0.263958113037    15.994914619570
         O            0.256007117076    -1.466556182889     0.561175886963    15.994914619570
         C            1.457368117076     0.408256817111    -0.413375113037    12.000000000000
         C            1.860162117076     1.502264317111     0.868040386963    12.000000000000
         C            2.611694117076    -0.530014182889    -0.740345113037    12.000000000000
         C            0.239936117076    -0.379938182889     0.006026886963    12.000000000000
         C           -2.114070882924    -0.344852182889     0.177300886963    12.000000000000
         C           -3.258431882924     0.552622817111    -0.229378113037    12.000000000000
         H            1.181634117076     0.992439817111    -1.297325113037     1.007825032230
         H            2.684059117076     1.977662817111     0.444239886963     1.007825032230
         H            2.056128117076     0.818026817111     1.629115886963     1.007825032230
         H            0.981173117076     2.050918817111     0.935710886963     1.007825032230
         H            3.490332117076     0.044864817111    -1.047123113037     1.007825032230
         H            2.348415117076    -1.215337182889    -1.550121113037     1.007825032230
         H            2.870084117076    -1.128422182889     0.136014886963     1.007825032230
         H           -2.176280882924    -1.332260182889    -0.286437113037     1.007825032230
         H           -2.065485882924    -0.489511182889     1.260621886963     1.007825032230
         H           -4.209506882924     0.108531817111     0.077118886963     1.007825032230
         H           -3.164060882924     1.532134817111     0.243316886963     1.007825032230
         H           -3.270936882924     0.687758817111    -1.312340113037     1.007825032230

  Basis Set: AUG-CC-PVTZ
    Blend: AUG-CC-PVTZ
  Basis Set: (AUG-CC-PVTZ AUX)
    Blend: AUG-CC-PVTZ-JKFIT
	 Reference Energy          =    -384.0605795057674072 [Eh]
	 Singles Energy            =      -0.0000000000000000 [Eh]
	 Same-Spin Energy          =      -0.3837865343327748 [Eh]
	 Opposite-Spin Energy      =      -1.2876378978610912 [Eh]
	 Correlation Energy        =      -1.6714244321938660 [Eh]
	 Total Energy              =    -385.7320039379612808 [Eh]

	 ================> DF-SCS-MP2 Energies <==================
	-----------------------------------------------------------
	 SCS Same-Spin Scale       =       0.3333333333333333 [-]
	 SCS Opposite-Spin Scale   =       1.2000000000000000 [-]
	 SCS Same-Spin Energy      =      -0.1279288447775916 [Eh]
	 SCS Opposite-Spin Energy  =      -1.5451654774333095 [Eh]
	 SCS Correlation Energy    =      -1.6730943222109009 [Eh]
	 SCS Total Energy          =    -385.7336738279782935 [Eh]
	-----------------------------------------------------------

  Dipole Moment: [D]
     X:    -0.6347      Y:     1.6130      Z:    -0.6312     Total:     1.8448

*** Psi4 exiting successfully. Buy a developer a beer!
