                               Psi4 1.3.2 release

  ==> Input File <==

--------------------------------------------------------------------------
#psi4
#
memory 32 gb

molecule  {
0 1
  O       -0.8946000     0.3180840    -0.2486650
  O        0.2608140    -1.4535000     0.5764690
  C        1.4621750     0.4213130    -0.3980820
  C        1.8184670     1.3890190     0.7353960
  C        2.6165010    -0.5169580    -0.7250520
  C        0.2695223    -0.3320657     0.0009293
  C       -2.1357025    -0.2929175     0.1741871
  C       -3.2536250     0.5656790    -0.2140850
  H        1.1864410     1.0054960    -1.2820320
  H        2.6888660     1.9907190     0.4595330
  H        2.0609350     0.8310830     1.6444090
  H        0.9859800     2.0639750     0.9510040
  H        3.4951390     0.0579210    -1.0318300
  H        2.3532220    -1.2022810    -1.5348280
  H        2.8748910    -1.1153660     0.1513080
  H       -2.1714740    -1.3192040    -0.2711440
  H       -2.0606790    -0.4764550     1.2759150
  H       -4.2047000     0.1215880     0.0924120
  H       -3.1592540     1.5451910     0.2586100
  H       -3.2661300     0.7008150    -1.2970470
units angstrom
no_reorient  #important for SAPT in psi4, default
symmetry c1  #important for SAPT in psi4, default
}

set PROPERTIES_ORIGIN ["COM"]
properties('MP2/aug-cc-pvtz', properties = ['dipole'])
--------------------------------------------------------------------------

    Molecular point group: c1
  Charge       = 0
  Multiplicity = 1
  Basis Set: AUG-CC-PVTZ
    Blend: AUG-CC-PVTZ
  Basis Set: (AUG-CC-PVTZ AUX)
    Blend: AUG-CC-PVTZ-JKFIT

    Orbital Energies [Eh]
    ---------------------

    Doubly Occupied:

       1A    -20.598675     2A    -20.534004     3A    -11.378074
       4A    -11.289322     5A    -11.247152     6A    -11.230457
       7A    -11.223304     8A    -11.219502     9A     -1.441705
      10A     -1.325534    11A     -1.103735    12A     -1.045506
      13A     -0.942137    14A     -0.903217    15A     -0.829122
      16A     -0.759659    17A     -0.699939    18A     -0.672758
      19A     -0.654642    20A     -0.620018    21A     -0.592078
      22A     -0.584262    23A     -0.559970    24A     -0.552344
      25A     -0.545747    26A     -0.525131    27A     -0.504720
      28A     -0.499925    29A     -0.492038    30A     -0.475053
      31A     -0.443158    32A     -0.437744

  @DF-RHF Final Energy:  -384.07481646388146

   => Energetics <=

    Nuclear Repulsion Energy =            395.7317310178462435
    One-Electron Energy =               -1307.7518268886924488
    Two-Electron Energy =                 527.9452794069648007
    Total Energy =                       -384.0748164638814615
  Basis Set: (AUG-CC-PVTZ AUX)
    Blend: AUG-CC-PVTZ-RI
    Molecular point group: c1

    Geometry (in Angstrom), charge = 0, multiplicity = 1:

       Center              X                  Y                   Z               Mass
    ------------   -----------------  -----------------  -----------------  -----------------
         O           -0.894428283409     0.310465964231    -0.244654622296    15.994914619570
         O            0.260985716591    -1.461118035769     0.580479377704    15.994914619570
         C            1.462346716591     0.413694964231    -0.394071622296    12.000000000000
         C            1.818638716591     1.381400964231     0.739406377704    12.000000000000
         C            2.616672716591    -0.524576035769    -0.721041622296    12.000000000000
         C            0.269694016591    -0.339683735769     0.004939677704    12.000000000000
         C           -2.135530783409    -0.300535535769     0.178197477704    12.000000000000
         C           -3.253453283409     0.558060964231    -0.210074622296    12.000000000000
         H            1.186612716591     0.997877964231    -1.278021622296     1.007825032230
         H            2.689037716591     1.983100964231     0.463543377704     1.007825032230
         H            2.061106716591     0.823464964231     1.648419377704     1.007825032230
         H            0.986151716591     2.056356964231     0.955014377704     1.007825032230
         H            3.495310716591     0.050302964231    -1.027819622296     1.007825032230
         H            2.353393716591    -1.209899035769    -1.530817622296     1.007825032230
         H            2.875062716591    -1.122984035769     0.155318377704     1.007825032230
         H           -2.171302283409    -1.326822035769    -0.267133622296     1.007825032230
         H           -2.060507283409    -0.484073035769     1.279925377704     1.007825032230
         H           -4.204528283409     0.113969964231     0.096422377704     1.007825032230
         H           -3.159082283409     1.537572964231     0.262620377704     1.007825032230
         H           -3.265958283409     0.693196964231    -1.293036622296     1.007825032230

  Basis Set: AUG-CC-PVTZ
    Blend: AUG-CC-PVTZ
  Basis Set: (AUG-CC-PVTZ AUX)
    Blend: AUG-CC-PVTZ-JKFIT
	 Reference Energy          =    -384.0748164638814615 [Eh]
	 Singles Energy            =      -0.0000000000000000 [Eh]
	 Same-Spin Energy          =      -0.3854196798173954 [Eh]
	 Opposite-Spin Energy      =      -1.2890524523218838 [Eh]
	 Correlation Energy        =      -1.6744721321392793 [Eh]
	 Total Energy              =    -385.7492885960207332 [Eh]

	 ================> DF-SCS-MP2 Energies <==================
	-----------------------------------------------------------
	 SCS Same-Spin Scale       =       0.3333333333333333 [-]
	 SCS Opposite-Spin Scale   =       1.2000000000000000 [-]
	 SCS Same-Spin Energy      =      -0.1284732266057985 [Eh]
	 SCS Opposite-Spin Energy  =      -1.5468629427862606 [Eh]
	 SCS Correlation Energy    =      -1.6753361693920590 [Eh]
	 SCS Total Energy          =    -385.7501526332735011 [Eh]
	-----------------------------------------------------------

  Dipole Moment: [D]
     X:    -0.6698      Y:     1.8525      Z:    -0.7152     Total:     2.0957

*** Psi4 exiting successfully. Buy a developer a beer!
