                               Psi4 1.3.2 release

  ==> Input File <==

--------------------------------------------------------------------------
#psi4
#
memory 32 gb

molecule  {
0 1
  O       -0.8946000     0.3180840    -0.2486650
  O        0.1969354    -1.4524079     0.5767796
  C        1.4137891     0.4772292    -0.4260026
  C        1.8184670     1.3890190     0.7353960
  C        2.6165010    -0.5169580    -0.7250520
  C        0.2447430    -0.3668820     0.0213200
  C       -2.1092640    -0.3317960     0.1925940
  C       -3.2536250     0.5656790    -0.2140850
  H        1.1864410     1.0054960    -1.2820320
  H        2.6888660     1.9907190     0.4595330
  H        2.0609350     0.8310830     1.6444090
  H        0.9859800     2.0639750     0.9510040
  H        3.4951390     0.0579210    -1.0318300
  H        2.3532220    -1.2022810    -1.5348280
  H        2.8748910    -1.1153660     0.1513080
  H       -2.1714740    -1.3192040    -0.2711440
  H       -2.0606790    -0.4764550     1.2759150
  H       -4.2047000     0.1215880     0.0924120
  H       -3.1592540     1.5451910     0.2586100
  H       -3.2661300     0.7008150    -1.2970470
units angstrom
no_reorient  #important for SAPT in psi4, default
symmetry c1  #important for SAPT in psi4, default
}

set PROPERTIES_ORIGIN ["COM"]
properties('MP2/aug-cc-pvtz', properties = ['dipole'])
--------------------------------------------------------------------------

    Molecular point group: c1
  Charge       = 0
  Multiplicity = 1
  Basis Set: AUG-CC-PVTZ
    Blend: AUG-CC-PVTZ
  Basis Set: (AUG-CC-PVTZ AUX)
    Blend: AUG-CC-PVTZ-JKFIT

    Orbital Energies [Eh]
    ---------------------

    Doubly Occupied:

       1A    -20.593898     2A    -20.540996     3A    -11.374248
       4A    -11.283022     5A    -11.247047     6A    -11.229049
       7A    -11.221781     8A    -11.221189     9A     -1.450460
      10A     -1.344827    11A     -1.093375    12A     -1.031421
      13A     -0.935282    14A     -0.896269    15A     -0.829046
      16A     -0.763887    17A     -0.705085    18A     -0.675934
      19A     -0.661850    20A     -0.615871    21A     -0.590169
      22A     -0.581664    23A     -0.553868    24A     -0.550193
      25A     -0.544151    26A     -0.520366    27A     -0.510782
      28A     -0.504686    29A     -0.496165    30A     -0.470321
      31A     -0.453070    32A     -0.438318

  @DF-RHF Final Energy:  -384.07783379653131

   => Energetics <=

    Nuclear Repulsion Energy =            395.7053977772969233
    One-Electron Energy =               -1307.7098809437188720
    Two-Electron Energy =                 527.9266493698906970
    Total Energy =                       -384.0778337965313085
  Basis Set: (AUG-CC-PVTZ AUX)
    Blend: AUG-CC-PVTZ-RI
    Molecular point group: c1

    Geometry (in Angstrom), charge = 0, multiplicity = 1:

       Center              X                  Y                   Z               Mass
    ------------   -----------------  -----------------  -----------------  -----------------
         O           -0.880796285556     0.312153325194    -0.245821814468    15.994914619570
         O            0.210739114444    -1.458338574806     0.579622785532    15.994914619570
         C            1.427592814444     0.471298525194    -0.423159414468    12.000000000000
         C            1.832270714444     1.383088325194     0.738239185532    12.000000000000
         C            2.630304714444    -0.522888674806    -0.722208814468    12.000000000000
         C            0.258546714444    -0.372812674806     0.024163185532    12.000000000000
         C           -2.095460285556    -0.337726674806     0.195437185532    12.000000000000
         C           -3.239821285556     0.559748325194    -0.211241814468    12.000000000000
         H            1.200244714444     0.999565325194    -1.279188814468     1.007825032230
         H            2.702669714444     1.984788325194     0.462376185532     1.007825032230
         H            2.074738714444     0.825152325194     1.647252185532     1.007825032230
         H            0.999783714444     2.058044325194     0.953847185532     1.007825032230
         H            3.508942714444     0.051990325194    -1.028986814468     1.007825032230
         H            2.367025714444    -1.208211674806    -1.531984814468     1.007825032230
         H            2.888694714444    -1.121296674806     0.154151185532     1.007825032230
         H           -2.157670285556    -1.325134674806    -0.268300814468     1.007825032230
         H           -2.046875285556    -0.482385674806     1.278758185532     1.007825032230
         H           -4.190896285556     0.115657325194     0.095255185532     1.007825032230
         H           -3.145450285556     1.539260325194     0.261453185532     1.007825032230
         H           -3.252326285556     0.694884325194    -1.294203814468     1.007825032230

  Basis Set: AUG-CC-PVTZ
    Blend: AUG-CC-PVTZ
  Basis Set: (AUG-CC-PVTZ AUX)
    Blend: AUG-CC-PVTZ-JKFIT
	 Reference Energy          =    -384.0778337965313085 [Eh]
	 Singles Energy            =      -0.0000000000000000 [Eh]
	 Same-Spin Energy          =      -0.3838925740648976 [Eh]
	 Opposite-Spin Energy      =      -1.2869736356747876 [Eh]
	 Correlation Energy        =      -1.6708662097396854 [Eh]
	 Total Energy              =    -385.7487000062710081 [Eh]

	 ================> DF-SCS-MP2 Energies <==================
	-----------------------------------------------------------
	 SCS Same-Spin Scale       =       0.3333333333333333 [-]
	 SCS Opposite-Spin Scale   =       1.2000000000000000 [-]
	 SCS Same-Spin Energy      =      -0.1279641913549659 [Eh]
	 SCS Opposite-Spin Energy  =      -1.5443683628097451 [Eh]
	 SCS Correlation Energy    =      -1.6723325541647109 [Eh]
	 SCS Total Energy          =    -385.7501663506960199 [Eh]
	-----------------------------------------------------------

  Dipole Moment: [D]
     X:    -0.4988      Y:     1.6274      Z:    -0.6153     Total:     1.8099

*** Psi4 exiting successfully. Buy a developer a beer!
