                               Psi4 1.3.2 release

  ==> Input File <==

--------------------------------------------------------------------------
#psi4
#
memory 32 gb

molecule  {
0 1
  O       -0.8946000     0.3180840    -0.2486650
  O        0.2608140    -1.4535000     0.5764690
  C        1.4621750     0.4213130    -0.3980820
  C        1.8330165     1.3255096     0.7822046
  C        2.6165010    -0.5169580    -0.7250520
  C        0.2447430    -0.3668820     0.0213200
  C       -2.1092640    -0.3317960     0.1925940
  C       -3.2536250     0.5656790    -0.2140850
  H        1.1776167     0.9562346    -1.3099768
  H        2.6888660     1.9907190     0.4595330
  H        2.0609350     0.8310830     1.6444090
  H        0.9859800     2.0639750     0.9510040
  H        3.4951390     0.0579210    -1.0318300
  H        2.3532220    -1.2022810    -1.5348280
  H        2.8748910    -1.1153660     0.1513080
  H       -2.1714740    -1.3192040    -0.2711440
  H       -2.0606790    -0.4764550     1.2759150
  H       -4.2047000     0.1215880     0.0924120
  H       -3.1592540     1.5451910     0.2586100
  H       -3.2661300     0.7008150    -1.2970470
units angstrom
no_reorient  #important for SAPT in psi4, default
symmetry c1  #important for SAPT in psi4, default
}

set PROPERTIES_ORIGIN ["COM"]
properties('MP2/aug-cc-pvtz', properties = ['dipole'])
--------------------------------------------------------------------------

    Molecular point group: c1
  Charge       = 0
  Multiplicity = 1
  Basis Set: AUG-CC-PVTZ
    Blend: AUG-CC-PVTZ
  Basis Set: (AUG-CC-PVTZ AUX)
    Blend: AUG-CC-PVTZ-JKFIT

    Orbital Energies [Eh]
    ---------------------

    Doubly Occupied:

       1A    -20.599239     2A    -20.539421     3A    -11.372582
       4A    -11.286392     5A    -11.246376     6A    -11.229000
       7A    -11.223850     8A    -11.216333     9A     -1.449629
      10A     -1.348483    11A     -1.095392    12A     -1.034661
      13A     -0.939186    14A     -0.895938    15A     -0.829098
      16A     -0.762157    17A     -0.699682    18A     -0.677792
      19A     -0.660607    20A     -0.618251    21A     -0.593108
      22A     -0.581693    23A     -0.563374    24A     -0.553908
      25A     -0.538183    26A     -0.517992    27A     -0.508847
      28A     -0.505298    29A     -0.491191    30A     -0.477630
      31A     -0.454911    32A     -0.433176

  @DF-RHF Final Energy:  -384.07742720508247

   => Energetics <=

    Nuclear Repulsion Energy =            396.0731980131103569
    One-Electron Energy =               -1308.4144969345038589
    Two-Electron Energy =                 528.2638717163109732
    Total Energy =                       -384.0774272050824720
  Basis Set: (AUG-CC-PVTZ AUX)
    Blend: AUG-CC-PVTZ-RI
    Molecular point group: c1

    Geometry (in Angstrom), charge = 0, multiplicity = 1:

       Center              X                  Y                   Z               Mass
    ------------   -----------------  -----------------  -----------------  -----------------
         O           -0.896027224537     0.325076946128    -0.253261435105    15.994914619570
         O            0.259386775463    -1.446507053872     0.571872564895    15.994914619570
         C            1.460747775463     0.428305946128    -0.402678435105    12.000000000000
         C            1.831589275463     1.332502546128     0.777608164895    12.000000000000
         C            2.615073775463    -0.509965053872    -0.729648435105    12.000000000000
         C            0.243315775463    -0.359889053872     0.016723564895    12.000000000000
         C           -2.110691224537    -0.324803053872     0.187997564895    12.000000000000
         C           -3.255052224537     0.572671946128    -0.218681435105    12.000000000000
         H            1.176189475463     0.963227546128    -1.314573235105     1.007825032230
         H            2.687438775463     1.997711946128     0.454936564895     1.007825032230
         H            2.059507775463     0.838075946128     1.639812564895     1.007825032230
         H            0.984552775463     2.070967946128     0.946407564895     1.007825032230
         H            3.493711775463     0.064913946128    -1.036426435105     1.007825032230
         H            2.351794775463    -1.195288053872    -1.539424435105     1.007825032230
         H            2.873463775463    -1.108373053872     0.146711564895     1.007825032230
         H           -2.172901224537    -1.312211053872    -0.275740435105     1.007825032230
         H           -2.062106224537    -0.469462053872     1.271318564895     1.007825032230
         H           -4.206127224537     0.128580946128     0.087815564895     1.007825032230
         H           -3.160681224537     1.552183946128     0.254013564895     1.007825032230
         H           -3.267557224537     0.707807946128    -1.301643435105     1.007825032230

  Basis Set: AUG-CC-PVTZ
    Blend: AUG-CC-PVTZ
  Basis Set: (AUG-CC-PVTZ AUX)
    Blend: AUG-CC-PVTZ-JKFIT
	 Reference Energy          =    -384.0774272050824720 [Eh]
	 Singles Energy            =      -0.0000000000000000 [Eh]
	 Same-Spin Energy          =      -0.3840301845549368 [Eh]
	 Opposite-Spin Energy      =      -1.2870534409403613 [Eh]
	 Correlation Energy        =      -1.6710836254952981 [Eh]
	 Total Energy              =    -385.7485108305777430 [Eh]

	 ================> DF-SCS-MP2 Energies <==================
	-----------------------------------------------------------
	 SCS Same-Spin Scale       =       0.3333333333333333 [-]
	 SCS Opposite-Spin Scale   =       1.2000000000000000 [-]
	 SCS Same-Spin Energy      =      -0.1280100615183123 [Eh]
	 SCS Opposite-Spin Energy  =      -1.5444641291284336 [Eh]
	 SCS Correlation Energy    =      -1.6724741906467457 [Eh]
	 SCS Total Energy          =    -385.7499013957292391 [Eh]
	-----------------------------------------------------------

  Dipole Moment: [D]
     X:    -0.7002      Y:     1.5735      Z:    -0.5982     Total:     1.8232

*** Psi4 exiting successfully. Buy a developer a beer!
