                               Psi4 1.4a3.dev225

  ==> Input File <==

--------------------------------------------------------------------------
#psi4
#
memory 32 gb

molecule  {
0 1
  O       -0.8844740     0.2512200    -0.2589860
  O        0.2594420    -1.5357810     0.5540110
  C        1.4751410     0.3499910    -0.3991000
  C        1.6489360     1.5420820     0.5503600
  C        2.7076510    -0.5454760    -0.4239080
  C        0.2366293    -0.4501237     0.0208666
  C       -2.1066380    -0.4073920     0.1545600
  C       -3.2437300     0.5134160    -0.2249800
  H        1.2747850     0.7394360    -1.4046030
  H        2.5199720     2.1341380     0.2549160
  H        1.8085970     1.1898350     1.5745190
  H        0.7675450     2.1869880     0.5363060
  H        3.5809030     0.0268420    -0.7502520
  H        2.5706130    -1.3892510    -1.1045820
  H        2.9042310    -0.9491700     0.5720060
  H       -2.1727950    -1.3769310    -0.3467220
  H       -2.0631380    -0.5911830     1.2316620
  H       -4.1987120     0.0656950     0.0643780
  H       -3.1432900     1.4757990     0.2814060
  H       -3.2533220     0.6866720    -1.3031500
units angstrom
no_reorient  #important for SAPT in psi4, default
symmetry c1  #important for SAPT in psi4, default
}

set PROPERTIES_ORIGIN ["COM"]
properties('MP2/aug-cc-pvtz', properties = ['dipole'])
--------------------------------------------------------------------------

    Molecular point group: c1
  Charge       = 0
  Multiplicity = 1
  Basis Set: AUG-CC-PVTZ
    Blend: AUG-CC-PVTZ
  Basis Set: (AUG-CC-PVTZ AUX)
    Blend: AUG-CC-PVTZ-JKFIT

    Orbital Energies [Eh]
    ---------------------

    Doubly Occupied:

       1A    -20.600109     2A    -20.542060     3A    -11.372557
       4A    -11.287798     5A    -11.245855     6A    -11.225347
       7A    -11.224968     8A    -11.214873     9A     -1.453521
      10A     -1.355599    11A     -1.089426    12A     -1.034654
      13A     -0.936934    14A     -0.892410    15A     -0.827310
      16A     -0.763169    17A     -0.696900    18A     -0.679075
      19A     -0.664186    20A     -0.621228    21A     -0.587098
      22A     -0.582657    23A     -0.556907    24A     -0.548739
      25A     -0.543337    26A     -0.519027    27A     -0.510558
      28A     -0.507227    29A     -0.488737    30A     -0.480820
      31A     -0.457808    32A     -0.433488

  @DF-RHF Final Energy:  -384.08650766450535

   => Energetics <=

    Nuclear Repulsion Energy =            395.8386710003263147
    One-Electron Energy =               -1307.9615919067616687
    Two-Electron Energy =                 528.0364132419300631
    Total Energy =                       -384.0865076645053477
  Basis Set: (AUG-CC-PVTZ AUX)
    Blend: AUG-CC-PVTZ-RI
    Molecular point group: c1

    Geometry (in Angstrom), charge = 0, multiplicity = 1:

       Center              X                  Y                   Z               Mass
    ------------   -----------------  -----------------  -----------------  -----------------
         O           -0.877742531784     0.288130854255    -0.262908021774    15.994914619570
         O            0.266173468216    -1.498870145745     0.550088978226    15.994914619570
         C            1.481872468216     0.386901854255    -0.403022021774    12.000000000000
         C            1.655667468216     1.578992854255     0.546437978226    12.000000000000
         C            2.714382468216    -0.508565145745    -0.427830021774    12.000000000000
         C            0.243360768216    -0.413212845745     0.016944578226    12.000000000000
         C           -2.099906531784    -0.370481145745     0.150637978226    12.000000000000
         C           -3.236998531784     0.550326854255    -0.228902021774    12.000000000000
         H            1.281516468216     0.776346854255    -1.408525021774     1.007825032230
         H            2.526703468216     2.171048854255     0.250993978226     1.007825032230
         H            1.815328468216     1.226745854255     1.570596978226     1.007825032230
         H            0.774276468216     2.223898854255     0.532383978226     1.007825032230
         H            3.587634468216     0.063752854255    -0.754174021774     1.007825032230
         H            2.577344468216    -1.352340145745    -1.108504021774     1.007825032230
         H            2.910962468216    -0.912259145745     0.568083978226     1.007825032230
         H           -2.166063531784    -1.340020145745    -0.350644021774     1.007825032230
         H           -2.056406531784    -0.554272145745     1.227739978226     1.007825032230
         H           -4.191980531784     0.102605854255     0.060455978226     1.007825032230
         H           -3.136558531784     1.512709854255     0.277483978226     1.007825032230
         H           -3.246590531784     0.723582854255    -1.307072021774     1.007825032230

  Basis Set: AUG-CC-PVTZ
    Blend: AUG-CC-PVTZ
  Basis Set: (AUG-CC-PVTZ AUX)
    Blend: AUG-CC-PVTZ-JKFIT
	 Reference Energy          =    -384.0865076645053477 [Eh]
	 Singles Energy            =      -0.0000000000000000 [Eh]
	 Same-Spin Energy          =      -0.3834275523992678 [Eh]
	 Opposite-Spin Energy      =      -1.2860210826613896 [Eh]
	 Correlation Energy        =      -1.6694486350606574 [Eh]
	 Total Energy              =    -385.7559562995659803 [Eh]

	 ================> DF-SCS-MP2 Energies <==================
	-----------------------------------------------------------
	 SCS Same-Spin Scale       =       0.3333333333333333 [-]
	 SCS Opposite-Spin Scale   =       1.2000000000000000 [-]
	 SCS Same-Spin Energy      =      -0.1278091841330893 [Eh]
	 SCS Opposite-Spin Energy  =      -1.5432252991936675 [Eh]
	 SCS Correlation Energy    =      -1.6710344833267567 [Eh]
	 SCS Total Energy          =    -385.7575421478321118 [Eh]
	-----------------------------------------------------------

  Dipole Moment: [D]
     X:    -0.8305      Y:     1.5476      Z:    -0.6114     Total:     1.8597

*** Psi4 exiting successfully. Buy a developer a beer!
