                               Psi4 1.3.2 release

  ==> Input File <==

--------------------------------------------------------------------------
#psi4
#
memory 32 gb

molecule  {
0 1
  O       -0.8881482     0.3269724    -0.2530816
  O        0.2608140    -1.4535000     0.5764690
  C        1.4543542     0.4310491    -0.4022797
  C        1.8184670     1.3890190     0.7353960
  C        2.6165010    -0.5169580    -0.7250520
  C        0.2447430    -0.3668820     0.0213200
  C       -2.1092640    -0.3317960     0.1925940
  C       -3.2536250     0.5656790    -0.2140850
  H        1.1864410     1.0054960    -1.2820320
  H        2.6888660     1.9907190     0.4595330
  H        2.0609350     0.8310830     1.6444090
  H        0.9859800     2.0639750     0.9510040
  H        3.4951390     0.0579210    -1.0318300
  H        2.3532220    -1.2022810    -1.5348280
  H        2.8748910    -1.1153660     0.1513080
  H       -2.1714740    -1.3192040    -0.2711440
  H       -2.0606790    -0.4764550     1.2759150
  H       -4.2047000     0.1215880     0.0924120
  H       -3.1592540     1.5451910     0.2586100
  H       -3.2661300     0.7008150    -1.2970470
units angstrom
no_reorient  #important for SAPT in psi4, default
symmetry c1  #important for SAPT in psi4, default
}

set PROPERTIES_ORIGIN ["COM"]
properties('MP2/aug-cc-pvtz', properties = ['dipole'])
--------------------------------------------------------------------------

    Molecular point group: c1
  Charge       = 0
  Multiplicity = 1
  Basis Set: AUG-CC-PVTZ
    Blend: AUG-CC-PVTZ
  Basis Set: (AUG-CC-PVTZ AUX)
    Blend: AUG-CC-PVTZ-JKFIT

    Orbital Energies [Eh]
    ---------------------

    Doubly Occupied:

       1A    -20.599770     2A    -20.540661     3A    -11.373309
       4A    -11.287608     5A    -11.244404     6A    -11.226739
       7A    -11.224350     8A    -11.217041     9A     -1.448264
      10A     -1.348399    11A     -1.093138    12A     -1.034500
      13A     -0.937914    14A     -0.894284    15A     -0.828683
      16A     -0.761240    17A     -0.699260    18A     -0.676805
      19A     -0.660776    20A     -0.618582    21A     -0.590937
      22A     -0.582624    23A     -0.555146    24A     -0.549658
      25A     -0.543918    26A     -0.518935    27A     -0.510484
      28A     -0.505902    29A     -0.488211    30A     -0.481503
      31A     -0.456330    32A     -0.435851

  @DF-RHF Final Energy:  -384.08509328658511

   => Energetics <=

    Nuclear Repulsion Energy =            395.6349997632405007
    One-Electron Energy =               -1307.5697337704107213
    Two-Electron Energy =                 527.8496407205850574
    Total Energy =                       -384.0850932865851064
  Basis Set: (AUG-CC-PVTZ AUX)
    Blend: AUG-CC-PVTZ-RI
    Molecular point group: c1

    Geometry (in Angstrom), charge = 0, multiplicity = 1:

       Center              X                  Y                   Z               Mass
    ------------   -----------------  -----------------  -----------------  -----------------
         O           -0.888228515199     0.324741296603    -0.252039387268    15.994914619570
         O            0.260733684801    -1.455731103397     0.577511212732    15.994914619570
         C            1.454273884801     0.428817996603    -0.401237487268    12.000000000000
         C            1.818386684801     1.386787896603     0.736438212732    12.000000000000
         C            2.616420684801    -0.519189103397    -0.724009787268    12.000000000000
         C            0.244662684801    -0.369113103397     0.022362212732    12.000000000000
         C           -2.109344315199    -0.334027103397     0.193636212732    12.000000000000
         C           -3.253705315199     0.563447896603    -0.213042787268    12.000000000000
         H            1.186360684801     1.003264896603    -1.280989787268     1.007825032230
         H            2.688785684801     1.988487896603     0.460575212732     1.007825032230
         H            2.060854684801     0.828851896603     1.645451212732     1.007825032230
         H            0.985899684801     2.061743896603     0.952046212732     1.007825032230
         H            3.495058684801     0.055689896603    -1.030787787268     1.007825032230
         H            2.353141684801    -1.204512103397    -1.533785787268     1.007825032230
         H            2.874810684801    -1.117597103397     0.152350212732     1.007825032230
         H           -2.171554315199    -1.321435103397    -0.270101787268     1.007825032230
         H           -2.060759315199    -0.478686103397     1.276957212732     1.007825032230
         H           -4.204780315199     0.119356896603     0.093454212732     1.007825032230
         H           -3.159334315199     1.542959896603     0.259652212732     1.007825032230
         H           -3.266210315199     0.698583896603    -1.296004787268     1.007825032230

  Basis Set: AUG-CC-PVTZ
    Blend: AUG-CC-PVTZ
  Basis Set: (AUG-CC-PVTZ AUX)
    Blend: AUG-CC-PVTZ-JKFIT
	 Reference Energy          =    -384.0850932865851064 [Eh]
	 Singles Energy            =      -0.0000000000000000 [Eh]
	 Same-Spin Energy          =      -0.3839344220799744 [Eh]
	 Opposite-Spin Energy      =      -1.2869913789854639 [Eh]
	 Correlation Energy        =      -1.6709258010654384 [Eh]
	 Total Energy              =    -385.7560190876505430 [Eh]

	 ================> DF-SCS-MP2 Energies <==================
	-----------------------------------------------------------
	 SCS Same-Spin Scale       =       0.3333333333333333 [-]
	 SCS Opposite-Spin Scale   =       1.2000000000000000 [-]
	 SCS Same-Spin Energy      =      -0.1279781406933248 [Eh]
	 SCS Opposite-Spin Energy  =      -1.5443896547825566 [Eh]
	 SCS Correlation Energy    =      -1.6723677954758815 [Eh]
	 SCS Total Energy          =    -385.7574610820610133 [Eh]
	-----------------------------------------------------------

  Dipole Moment: [D]
     X:    -0.7530      Y:     1.5773      Z:    -0.5969     Total:     1.8469

*** Psi4 exiting successfully. Buy a developer a beer!
