                               Psi4 1.4a3.dev225

  ==> Input File <==

--------------------------------------------------------------------------
#psi4
#
memory 32 gb

molecule  {
0 1
  O       -0.8844740     0.2512200    -0.2589860
  O        0.2594420    -1.5357810     0.5540110
  C        1.4751410     0.3499910    -0.3991000
  C        1.6489360     1.5420820     0.5503600
  C        2.7076510    -0.5454760    -0.4239080
  C        0.2527860    -0.4396860     0.0153880
  C       -2.0897644    -0.3982990     0.1488504
  C       -3.2437300     0.5134160    -0.2249800
  H        1.2747850     0.7394360    -1.4046030
  H        2.5199720     2.1341380     0.2549160
  H        1.8085970     1.1898350     1.5745190
  H        0.7675450     2.1869880     0.5363060
  H        3.5809030     0.0268420    -0.7502520
  H        2.5706130    -1.3892510    -1.1045820
  H        2.9042310    -0.9491700     0.5720060
  H       -2.1727950    -1.3769310    -0.3467220
  H       -2.0631380    -0.5911830     1.2316620
  H       -4.1987120     0.0656950     0.0643780
  H       -3.1432900     1.4757990     0.2814060
  H       -3.2533220     0.6866720    -1.3031500
units angstrom
no_reorient  #important for SAPT in psi4, default
symmetry c1  #important for SAPT in psi4, default
}

set PROPERTIES_ORIGIN ["COM"]
properties('MP2/aug-cc-pvtz', properties = ['dipole'])
--------------------------------------------------------------------------

    Molecular point group: c1
  Charge       = 0
  Multiplicity = 1
  Basis Set: AUG-CC-PVTZ
    Blend: AUG-CC-PVTZ
  Basis Set: (AUG-CC-PVTZ AUX)
    Blend: AUG-CC-PVTZ-JKFIT

    Orbital Energies [Eh]
    ---------------------

    Doubly Occupied:

       1A    -20.600752     2A    -20.542564     3A    -11.375591
       4A    -11.286485     5A    -11.247761     6A    -11.227548
       7A    -11.223697     8A    -11.216710     9A     -1.453322
      10A     -1.351450    11A     -1.094322    12A     -1.031983
      13A     -0.939056    14A     -0.896154    15A     -0.827937
      16A     -0.764120    17A     -0.698940    18A     -0.678187
      19A     -0.663922    20A     -0.622298    21A     -0.585993
      22A     -0.583803    23A     -0.556963    24A     -0.549409
      25A     -0.544629    26A     -0.517982    27A     -0.507560
      28A     -0.505148    29A     -0.490543    30A     -0.481256
      31A     -0.454416    32A     -0.437739

  @DF-RHF Final Energy:  -384.08556244250855

   => Energetics <=

    Nuclear Repulsion Energy =            396.0787912341057790
    One-Electron Energy =               -1308.4122300527612879
    Two-Electron Energy =                 528.2478763761469054
    Total Energy =                       -384.0855624425086035
  Basis Set: (AUG-CC-PVTZ AUX)
    Blend: AUG-CC-PVTZ-RI
    Molecular point group: c1

    Geometry (in Angstrom), charge = 0, multiplicity = 1:

       Center              X                  Y                   Z               Mass
    ------------   -----------------  -----------------  -----------------  -----------------
         O           -0.881156994786     0.286111894313    -0.261751456591    15.994914619570
         O            0.262759005214    -1.500889105687     0.551245543409    15.994914619570
         C            1.478458005214     0.384882894313    -0.401865456591    12.000000000000
         C            1.652253005214     1.576973894313     0.547594543409    12.000000000000
         C            2.710968005214    -0.510584105687    -0.426673456591    12.000000000000
         C            0.256103005214    -0.404794105687     0.012622543409    12.000000000000
         C           -2.086447394786    -0.363407105687     0.146084943409    12.000000000000
         C           -3.240412994786     0.548307894313    -0.227745456591    12.000000000000
         H            1.278102005214     0.774327894313    -1.407368456591     1.007825032230
         H            2.523289005214     2.169029894313     0.252150543409     1.007825032230
         H            1.811914005214     1.224726894313     1.571753543409     1.007825032230
         H            0.770862005214     2.221879894313     0.533540543409     1.007825032230
         H            3.584220005214     0.061733894313    -0.753017456591     1.007825032230
         H            2.573930005214    -1.354359105687    -1.107347456591     1.007825032230
         H            2.907548005214    -0.914278105687     0.569240543409     1.007825032230
         H           -2.169477994786    -1.342039105687    -0.349487456591     1.007825032230
         H           -2.059820994786    -0.556291105687     1.228896543409     1.007825032230
         H           -4.195394994786     0.100586894313     0.061612543409     1.007825032230
         H           -3.139972994786     1.510690894313     0.278640543409     1.007825032230
         H           -3.250004994786     0.721563894313    -1.305915456591     1.007825032230

  Basis Set: AUG-CC-PVTZ
    Blend: AUG-CC-PVTZ
  Basis Set: (AUG-CC-PVTZ AUX)
    Blend: AUG-CC-PVTZ-JKFIT
	 Reference Energy          =    -384.0855624425085466 [Eh]
	 Singles Energy            =      -0.0000000000000000 [Eh]
	 Same-Spin Energy          =      -0.3837826849117211 [Eh]
	 Opposite-Spin Energy      =      -1.2865368990514843 [Eh]
	 Correlation Energy        =      -1.6703195839632055 [Eh]
	 Total Energy              =    -385.7558820264717383 [Eh]

	 ================> DF-SCS-MP2 Energies <==================
	-----------------------------------------------------------
	 SCS Same-Spin Scale       =       0.3333333333333333 [-]
	 SCS Opposite-Spin Scale   =       1.2000000000000000 [-]
	 SCS Same-Spin Energy      =      -0.1279275616372404 [Eh]
	 SCS Opposite-Spin Energy  =      -1.5438442788617810 [Eh]
	 SCS Correlation Energy    =      -1.6717718404990214 [Eh]
	 SCS Total Energy          =    -385.7573342830075944 [Eh]
	-----------------------------------------------------------

  Dipole Moment: [D]
     X:    -0.6322      Y:     1.6185      Z:    -0.6420     Total:     1.8524

*** Psi4 exiting successfully. Buy a developer a beer!
