                               Psi4 1.3.2 release

  ==> Input File <==

--------------------------------------------------------------------------
#psi4
#
memory 32 gb

molecule  {
0 1
  O       -0.8546054     0.3706086    -0.2748448
  O        0.2608140    -1.4535000     0.5764690
  C        1.4138808     0.4788036    -0.4227778
  C        1.8184670     1.3890190     0.7353960
  C        2.6165010    -0.5169580    -0.7250520
  C        0.2447430    -0.3668820     0.0213200
  C       -2.1092640    -0.3317960     0.1925940
  C       -3.2536250     0.5656790    -0.2140850
  H        1.1864410     1.0054960    -1.2820320
  H        2.6888660     1.9907190     0.4595330
  H        2.0609350     0.8310830     1.6444090
  H        0.9859800     2.0639750     0.9510040
  H        3.4951390     0.0579210    -1.0318300
  H        2.3532220    -1.2022810    -1.5348280
  H        2.8748910    -1.1153660     0.1513080
  H       -2.1714740    -1.3192040    -0.2711440
  H       -2.0606790    -0.4764550     1.2759150
  H       -4.2047000     0.1215880     0.0924120
  H       -3.1592540     1.5451910     0.2586100
  H       -3.2661300     0.7008150    -1.2970470
units angstrom
no_reorient  #important for SAPT in psi4, default
symmetry c1  #important for SAPT in psi4, default
}

set PROPERTIES_ORIGIN ["COM"]
properties('MP2/aug-cc-pvtz', properties = ['dipole'])
--------------------------------------------------------------------------

    Molecular point group: c1
  Charge       = 0
  Multiplicity = 1
  Basis Set: AUG-CC-PVTZ
    Blend: AUG-CC-PVTZ
  Basis Set: (AUG-CC-PVTZ AUX)
    Blend: AUG-CC-PVTZ-JKFIT

    Orbital Energies [Eh]
    ---------------------

    Doubly Occupied:

       1A    -20.601098     2A    -20.543083     3A    -11.372802
       4A    -11.293207     5A    -11.239115     6A    -11.226299
       7A    -11.224879     8A    -11.216064     9A     -1.441231
      10A     -1.346354    11A     -1.087622    12A     -1.034061
      13A     -0.930978    14A     -0.890118    15A     -0.830839
      16A     -0.759835    17A     -0.699119    18A     -0.672267
      19A     -0.660573    20A     -0.613378    21A     -0.591263
      22A     -0.579004    23A     -0.553414    24A     -0.549040
      25A     -0.541540    26A     -0.521529    27A     -0.514571
      28A     -0.506376    29A     -0.494049    30A     -0.468236
      31A     -0.458455    32A     -0.433264

  @DF-RHF Final Energy:  -384.07140009604473

   => Energetics <=

    Nuclear Repulsion Energy =            394.7924784408510277
    One-Electron Energy =               -1305.9404302498119250
    Two-Electron Energy =                 527.0765517129161708
    Total Energy =                       -384.0714000960447265
  Basis Set: (AUG-CC-PVTZ AUX)
    Blend: AUG-CC-PVTZ-RI
    Molecular point group: c1

    Geometry (in Angstrom), charge = 0, multiplicity = 1:

       Center              X                  Y                   Z               Mass
    ------------   -----------------  -----------------  -----------------  -----------------
         O           -0.855123618273     0.357428405826    -0.268684921530    15.994914619570
         O            0.260295781727    -1.466680194174     0.582628878470    15.994914619570
         C            1.413362581727     0.465623405826    -0.416617921530    12.000000000000
         C            1.817948781727     1.375838805826     0.741555878470    12.000000000000
         C            2.615982781727    -0.530138194174    -0.718892121530    12.000000000000
         C            0.244224781727    -0.380062194174     0.027479878470    12.000000000000
         C           -2.109782218273    -0.344976194174     0.198753878470    12.000000000000
         C           -3.254143218273     0.552498805826    -0.207925121530    12.000000000000
         H            1.185922781727     0.992315805826    -1.275872121530     1.007825032230
         H            2.688347781727     1.977538805826     0.465692878470     1.007825032230
         H            2.060416781727     0.817902805826     1.650568878470     1.007825032230
         H            0.985461781727     2.050794805826     0.957163878470     1.007825032230
         H            3.494620781727     0.044740805826    -1.025670121530     1.007825032230
         H            2.352703781727    -1.215461194174    -1.528668121530     1.007825032230
         H            2.874372781727    -1.128546194174     0.157467878470     1.007825032230
         H           -2.171992218273    -1.332384194174    -0.264984121530     1.007825032230
         H           -2.061197218273    -0.489635194174     1.282074878470     1.007825032230
         H           -4.205218218273     0.108407805826     0.098571878470     1.007825032230
         H           -3.159772218273     1.532010805826     0.264769878470     1.007825032230
         H           -3.266648218273     0.687634805826    -1.290887121530     1.007825032230

  Basis Set: AUG-CC-PVTZ
    Blend: AUG-CC-PVTZ
  Basis Set: (AUG-CC-PVTZ AUX)
    Blend: AUG-CC-PVTZ-JKFIT
	 Reference Energy          =    -384.0714000960447265 [Eh]
	 Singles Energy            =      -0.0000000000000000 [Eh]
	 Same-Spin Energy          =      -0.3846444861624917 [Eh]
	 Opposite-Spin Energy      =      -1.2894542874717398 [Eh]
	 Correlation Energy        =      -1.6740987736342317 [Eh]
	 Total Energy              =    -385.7454988696789542 [Eh]

	 ================> DF-SCS-MP2 Energies <==================
	-----------------------------------------------------------
	 SCS Same-Spin Scale       =       0.3333333333333333 [-]
	 SCS Opposite-Spin Scale   =       1.2000000000000000 [-]
	 SCS Same-Spin Energy      =      -0.1282148287208306 [Eh]
	 SCS Opposite-Spin Energy  =      -1.5473451449660878 [Eh]
	 SCS Correlation Energy    =      -1.6755599736869184 [Eh]
	 SCS Total Energy          =    -385.7469600697316423 [Eh]
	-----------------------------------------------------------

  Dipole Moment: [D]
     X:    -0.9873      Y:     1.4971      Z:    -0.5370     Total:     1.8720

*** Psi4 exiting successfully. Buy a developer a beer!
