                               Psi4 1.3.2 release

  ==> Input File <==

--------------------------------------------------------------------------
#psi4
#
memory 32 gb

molecule  {
0 1
  O       -0.8946000     0.3180840    -0.2486650
  O        0.2608140    -1.4535000     0.5764690
  C        1.4621750     0.4213130    -0.3980820
  C        1.8184670     1.3890190     0.7353960
  C        2.6165010    -0.5169580    -0.7250520
  C        0.3253820    -0.3146744    -0.0064599
  C       -2.1092640    -0.3317960     0.1925940
  C       -3.2536250     0.5656790    -0.2140850
  H        1.1864410     1.0054960    -1.2820320
  H        2.6888660     1.9907190     0.4595330
  H        2.0609350     0.8310830     1.6444090
  H        0.9859800     2.0639750     0.9510040
  H        3.4951390     0.0579210    -1.0318300
  H        2.3532220    -1.2022810    -1.5348280
  H        2.8748910    -1.1153660     0.1513080
  H       -2.1714740    -1.3192040    -0.2711440
  H       -2.0606790    -0.4764550     1.2759150
  H       -4.2047000     0.1215880     0.0924120
  H       -3.1592540     1.5451910     0.2586100
  H       -3.2661300     0.7008150    -1.2970470
units angstrom
no_reorient  #important for SAPT in psi4, default
symmetry c1  #important for SAPT in psi4, default
}

set PROPERTIES_ORIGIN ["COM"]
properties('MP2/aug-cc-pvtz', properties = ['dipole'])
--------------------------------------------------------------------------

    Molecular point group: c1
  Charge       = 0
  Multiplicity = 1
  Basis Set: AUG-CC-PVTZ
    Blend: AUG-CC-PVTZ
  Basis Set: (AUG-CC-PVTZ AUX)
    Blend: AUG-CC-PVTZ-JKFIT

    Orbital Energies [Eh]
    ---------------------

    Doubly Occupied:

       1A    -20.591567     2A    -20.535630     3A    -11.382701
       4A    -11.282386     5A    -11.248945     6A    -11.235933
       7A    -11.224087     8A    -11.220875     9A     -1.424796
      10A     -1.312912    11A     -1.117623    12A     -1.029603
      13A     -0.947388    14A     -0.908448    15A     -0.834799
      16A     -0.751602    17A     -0.705703    18A     -0.667910
      19A     -0.649956    20A     -0.621849    21A     -0.592062
      22A     -0.577918    23A     -0.553327    24A     -0.551527
      25A     -0.544897    26A     -0.521315    27A     -0.507376
      28A     -0.501314    29A     -0.494413    30A     -0.476790
      31A     -0.441153    32A     -0.439641

  @DF-RHF Final Energy:  -384.06329404224590

   => Energetics <=

    Nuclear Repulsion Energy =            395.4630710424401627
    One-Electron Energy =               -1307.2598345640617481
    Two-Electron Energy =                 527.7334694793756853
    Total Energy =                       -384.0632940422459569
  Basis Set: (AUG-CC-PVTZ AUX)
    Blend: AUG-CC-PVTZ-RI
    Molecular point group: c1

    Geometry (in Angstrom), charge = 0, multiplicity = 1:

       Center              X                  Y                   Z               Mass
    ------------   -----------------  -----------------  -----------------  -----------------
         O           -0.902935749556     0.312687174739    -0.245793562270    15.994914619570
         O            0.252478250444    -1.458896825261     0.579340437730    15.994914619570
         C            1.453839250444     0.415916174739    -0.395210562270    12.000000000000
         C            1.810131250444     1.383622174739     0.738267437730    12.000000000000
         C            2.608165250444    -0.522354825261    -0.722180562270    12.000000000000
         C            0.317046250444    -0.320071225261    -0.003588462270    12.000000000000
         C           -2.117599749556    -0.337192825261     0.195465437730    12.000000000000
         C           -3.261960749556     0.560282174739    -0.211213562270    12.000000000000
         H            1.178105250444     1.000099174739    -1.279160562270     1.007825032230
         H            2.680530250444     1.985322174739     0.462404437730     1.007825032230
         H            2.052599250444     0.825686174739     1.647280437730     1.007825032230
         H            0.977644250444     2.058578174739     0.953875437730     1.007825032230
         H            3.486803250444     0.052524174739    -1.028958562270     1.007825032230
         H            2.344886250444    -1.207677825261    -1.531956562270     1.007825032230
         H            2.866555250444    -1.120762825261     0.154179437730     1.007825032230
         H           -2.179809749556    -1.324600825261    -0.268272562270     1.007825032230
         H           -2.069014749556    -0.481851825261     1.278786437730     1.007825032230
         H           -4.213035749556     0.116191174739     0.095283437730     1.007825032230
         H           -3.167589749556     1.539794174739     0.261481437730     1.007825032230
         H           -3.274465749556     0.695418174739    -1.294175562270     1.007825032230

  Basis Set: AUG-CC-PVTZ
    Blend: AUG-CC-PVTZ
  Basis Set: (AUG-CC-PVTZ AUX)
    Blend: AUG-CC-PVTZ-JKFIT
	 Reference Energy          =    -384.0632940422459001 [Eh]
	 Singles Energy            =      -0.0000000000000000 [Eh]
	 Same-Spin Energy          =      -0.3865993756209936 [Eh]
	 Opposite-Spin Energy      =      -1.2916597710073823 [Eh]
	 Correlation Energy        =      -1.6782591466283758 [Eh]
	 Total Energy              =    -385.7415531888742635 [Eh]

	 ================> DF-SCS-MP2 Energies <==================
	-----------------------------------------------------------
	 SCS Same-Spin Scale       =       0.3333333333333333 [-]
	 SCS Opposite-Spin Scale   =       1.2000000000000000 [-]
	 SCS Same-Spin Energy      =      -0.1288664585403312 [Eh]
	 SCS Opposite-Spin Energy  =      -1.5499917252088586 [Eh]
	 SCS Correlation Energy    =      -1.6788581837491898 [Eh]
	 SCS Total Energy          =    -385.7421522259950848 [Eh]
	-----------------------------------------------------------

  Dipole Moment: [D]
     X:    -0.1472      Y:     1.8636      Z:    -0.7045     Total:     1.9978

*** Psi4 exiting successfully. Buy a developer a beer!
