                               Psi4 1.3.2 release

  ==> Input File <==

--------------------------------------------------------------------------
#psi4
#
memory 32 gb

molecule  {
0 1
  O       -0.8946000     0.3180840    -0.2486650
  O        0.2608140    -1.4535000     0.5764690
  C        1.4621750     0.4213130    -0.3980820
  C        1.8184670     1.3890190     0.7353960
  C        2.6165010    -0.5169580    -0.7250520
  C        0.2447430    -0.3668820     0.0213200
  C       -2.1092640    -0.3317960     0.1925940
  C       -3.2536250     0.5656790    -0.2140850
  H        1.1612560     1.0588540    -1.3627701
  H        2.6888660     1.9907190     0.4595330
  H        2.0609350     0.8310830     1.6444090
  H        0.9859800     2.0639750     0.9510040
  H        3.4951390     0.0579210    -1.0318300
  H        2.3532220    -1.2022810    -1.5348280
  H        2.8748910    -1.1153660     0.1513080
  H       -2.1714740    -1.3192040    -0.2711440
  H       -2.0606790    -0.4764550     1.2759150
  H       -4.2047000     0.1215880     0.0924120
  H       -3.1592540     1.5451910     0.2586100
  H       -3.2661300     0.7008150    -1.2970470
units angstrom
no_reorient  #important for SAPT in psi4, default
symmetry c1  #important for SAPT in psi4, default
}

set PROPERTIES_ORIGIN ["COM"]
properties('MP2/aug-cc-pvtz', properties = ['dipole'])
--------------------------------------------------------------------------

    Molecular point group: c1
  Charge       = 0
  Multiplicity = 1
  Basis Set: AUG-CC-PVTZ
    Blend: AUG-CC-PVTZ
  Basis Set: (AUG-CC-PVTZ AUX)
    Blend: AUG-CC-PVTZ-JKFIT

    Orbital Energies [Eh]
    ---------------------

    Doubly Occupied:

       1A    -20.599255     2A    -20.541118     3A    -11.374640
       4A    -11.286410     5A    -11.257196     6A    -11.228119
       7A    -11.223881     8A    -11.218144     9A     -1.450038
      10A     -1.349452    11A     -1.091256    12A     -1.034462
      13A     -0.940093    14A     -0.894727    15A     -0.826411
      16A     -0.759124    17A     -0.691556    18A     -0.677818
      19A     -0.659676    20A     -0.617899    21A     -0.591063
      22A     -0.583796    23A     -0.555595    24A     -0.549973
      25A     -0.544781    26A     -0.519404    27A     -0.509422
      28A     -0.506014    29A     -0.487247    30A     -0.474209
      31A     -0.455378    32A     -0.435943

  @DF-RHF Final Energy:  -384.07929396263569

   => Energetics <=

    Nuclear Repulsion Energy =            395.3329861600003596
    One-Electron Energy =               -1306.9563605791643113
    Two-Electron Energy =                 527.5440804565282633
    Total Energy =                       -384.0792939626356883
  Basis Set: (AUG-CC-PVTZ AUX)
    Blend: AUG-CC-PVTZ-RI
    Molecular point group: c1

    Geometry (in Angstrom), charge = 0, multiplicity = 1:

       Center              X                  Y                   Z               Mass
    ------------   -----------------  -----------------  -----------------  -----------------
         O           -0.894381147833     0.317620817669    -0.247964313697    15.994914619570
         O            0.261032852167    -1.453963182331     0.577169686303    15.994914619570
         C            1.462393852167     0.420849817669    -0.397381313697    12.000000000000
         C            1.818685852167     1.388555817669     0.736096686303    12.000000000000
         C            2.616719852167    -0.517421182331    -0.724351313697    12.000000000000
         C            0.244961852167    -0.367345182331     0.022020686303    12.000000000000
         C           -2.109045147833    -0.332259182331     0.193294686303    12.000000000000
         C           -3.253406147833     0.565215817669    -0.213384313697    12.000000000000
         H            1.161474852167     1.058390817669    -1.362069413697     1.007825032230
         H            2.689084852167     1.990255817669     0.460233686303     1.007825032230
         H            2.061153852167     0.830619817669     1.645109686303     1.007825032230
         H            0.986198852167     2.063511817669     0.951704686303     1.007825032230
         H            3.495357852167     0.057457817669    -1.031129313697     1.007825032230
         H            2.353440852167    -1.202744182331    -1.534127313697     1.007825032230
         H            2.875109852167    -1.115829182331     0.152008686303     1.007825032230
         H           -2.171255147833    -1.319667182331    -0.270443313697     1.007825032230
         H           -2.060460147833    -0.476918182331     1.276615686303     1.007825032230
         H           -4.204481147833     0.121124817669     0.093112686303     1.007825032230
         H           -3.159035147833     1.544727817669     0.259310686303     1.007825032230
         H           -3.265911147833     0.700351817669    -1.296346313697     1.007825032230

  Basis Set: AUG-CC-PVTZ
    Blend: AUG-CC-PVTZ
  Basis Set: (AUG-CC-PVTZ AUX)
    Blend: AUG-CC-PVTZ-JKFIT
	 Reference Energy          =    -384.0792939626356883 [Eh]
	 Singles Energy            =      -0.0000000000000000 [Eh]
	 Same-Spin Energy          =      -0.3839691203585874 [Eh]
	 Opposite-Spin Energy      =      -1.2874931337530473 [Eh]
	 Correlation Energy        =      -1.6714622541116348 [Eh]
	 Total Energy              =    -385.7507562167473338 [Eh]

	 ================> DF-SCS-MP2 Energies <==================
	-----------------------------------------------------------
	 SCS Same-Spin Scale       =       0.3333333333333333 [-]
	 SCS Opposite-Spin Scale   =       1.2000000000000000 [-]
	 SCS Same-Spin Energy      =      -0.1279897067861958 [Eh]
	 SCS Opposite-Spin Energy  =      -1.5449917605036567 [Eh]
	 SCS Correlation Energy    =      -1.6729814672898526 [Eh]
	 SCS Total Energy          =    -385.7522754299255325 [Eh]
	-----------------------------------------------------------

  Dipole Moment: [D]
     X:    -0.6882      Y:     1.5662      Z:    -0.5651     Total:     1.8016

*** Psi4 exiting successfully. Buy a developer a beer!
