                               Psi4 1.3.2 release

  ==> Input File <==

--------------------------------------------------------------------------
#psi4
#
memory 32 gb

molecule  {
0 1
  O       -0.8838438     0.2772369    -0.2763265
  O        0.2608140    -1.4535000     0.5764690
  C        1.4621750     0.4213130    -0.3980820
  C        1.8184670     1.3890190     0.7353960
  C        2.6165010    -0.5169580    -0.7250520
  C        0.2447430    -0.3668820     0.0213200
  C       -2.1092640    -0.3317960     0.1925940
  C       -3.2536250     0.5656790    -0.2140850
  H        1.1864410     1.0054960    -1.2820320
  H        2.6888660     1.9907190     0.4595330
  H        2.0609350     0.8310830     1.6444090
  H        0.9859800     2.0639750     0.9510040
  H        3.4951390     0.0579210    -1.0318300
  H        2.3532220    -1.2022810    -1.5348280
  H        2.8748910    -1.1153660     0.1513080
  H       -2.1383300    -1.3123068    -0.2887077
  H       -2.0606790    -0.4764550     1.2759150
  H       -4.2047000     0.1215880     0.0924120
  H       -3.1592540     1.5451910     0.2586100
  H       -3.2661300     0.7008150    -1.2970470
units angstrom
no_reorient  #important for SAPT in psi4, default
symmetry c1  #important for SAPT in psi4, default
}

set PROPERTIES_ORIGIN ["COM"]
properties('MP2/aug-cc-pvtz', properties = ['dipole'])
--------------------------------------------------------------------------

    Molecular point group: c1
  Charge       = 0
  Multiplicity = 1
  Basis Set: AUG-CC-PVTZ
    Blend: AUG-CC-PVTZ
  Basis Set: (AUG-CC-PVTZ AUX)
    Blend: AUG-CC-PVTZ-JKFIT

    Orbital Energies [Eh]
    ---------------------

    Doubly Occupied:

       1A    -20.598941     2A    -20.534887     3A    -11.369873
       4A    -11.288317     5A    -11.244526     6A    -11.226786
       7A    -11.226134     8A    -11.216391     9A     -1.457022
      10A     -1.346688    11A     -1.093998    12A     -1.037565
      13A     -0.938755    14A     -0.898399    15A     -0.828110
      16A     -0.763884    17A     -0.698549    18A     -0.681585
      19A     -0.660495    20A     -0.619075    21A     -0.593241
      22A     -0.583143    23A     -0.556660    24A     -0.551773
      25A     -0.544135    26A     -0.520358    27A     -0.508496
      28A     -0.503767    29A     -0.488352    30A     -0.480853
      31A     -0.453724    32A     -0.434335

  @DF-RHF Final Energy:  -384.08674115178360

   => Energetics <=

    Nuclear Repulsion Energy =            396.3585053190514031
    One-Electron Energy =               -1308.9928578249030124
    Two-Electron Energy =                 528.5476113540680672
    Total Energy =                       -384.0867411517835990
  Basis Set: (AUG-CC-PVTZ AUX)
    Blend: AUG-CC-PVTZ-RI
    Molecular point group: c1

    Geometry (in Angstrom), charge = 0, multiplicity = 1:

       Center              X                  Y                   Z               Mass
    ------------   -----------------  -----------------  -----------------  -----------------
         O           -0.885613425699     0.282805314314    -0.272362870731    15.994914619570
         O            0.259044374301    -1.447931585686     0.580432629269    15.994914619570
         C            1.460405374301     0.426881414314    -0.394118370731    12.000000000000
         C            1.816697374301     1.394587414314     0.739359629269    12.000000000000
         C            2.614731374301    -0.511389585686    -0.721088370731    12.000000000000
         C            0.242973374301    -0.361313585686     0.025283629269    12.000000000000
         C           -2.111033625699    -0.326227585686     0.196557629269    12.000000000000
         C           -3.255394625699     0.571247414314    -0.210121370731    12.000000000000
         H            1.184671374301     1.011064414314    -1.278068370731     1.007825032230
         H            2.687096374301     1.996287414314     0.463496629269     1.007825032230
         H            2.059165374301     0.836651414314     1.648372629269     1.007825032230
         H            0.984210374301     2.069543414314     0.954967629269     1.007825032230
         H            3.493369374301     0.063489414314    -1.027866370731     1.007825032230
         H            2.351452374301    -1.196712585686    -1.530864370731     1.007825032230
         H            2.873121374301    -1.109797585686     0.155271629269     1.007825032230
         H           -2.140099625699    -1.306738385686    -0.284744070731     1.007825032230
         H           -2.062448625699    -0.470886585686     1.279878629269     1.007825032230
         H           -4.206469625699     0.127156414314     0.096375629269     1.007825032230
         H           -3.161023625699     1.550759414314     0.262573629269     1.007825032230
         H           -3.267899625699     0.706383414314    -1.293083370731     1.007825032230

  Basis Set: AUG-CC-PVTZ
    Blend: AUG-CC-PVTZ
  Basis Set: (AUG-CC-PVTZ AUX)
    Blend: AUG-CC-PVTZ-JKFIT
	 Reference Energy          =    -384.0867411517835990 [Eh]
	 Singles Energy            =      -0.0000000000000000 [Eh]
	 Same-Spin Energy          =      -0.3834988415423497 [Eh]
	 Opposite-Spin Energy      =      -1.2855749887480443 [Eh]
	 Correlation Energy        =      -1.6690738302903940 [Eh]
	 Total Energy              =    -385.7558149820740141 [Eh]

	 ================> DF-SCS-MP2 Energies <==================
	-----------------------------------------------------------
	 SCS Same-Spin Scale       =       0.3333333333333333 [-]
	 SCS Opposite-Spin Scale   =       1.2000000000000000 [-]
	 SCS Same-Spin Energy      =      -0.1278329471807832 [Eh]
	 SCS Opposite-Spin Energy  =      -1.5426899864976531 [Eh]
	 SCS Correlation Energy    =      -1.6705229336784364 [Eh]
	 SCS Total Energy          =    -385.7572640854620545 [Eh]
	-----------------------------------------------------------

  Dipole Moment: [D]
     X:    -0.8507      Y:     1.7105      Z:    -0.6041     Total:     2.0036

*** Psi4 exiting successfully. Buy a developer a beer!
