                               Psi4 1.3.2 release

  ==> Input File <==

--------------------------------------------------------------------------
#psi4
#
memory 32 gb

molecule  {
0 1
  O       -0.8683842     0.3523979    -0.2680881
  O        0.3033048    -1.4535586     0.5734901
  C        1.4621750     0.4213130    -0.3980820
  C        1.8184670     1.3890190     0.7353960
  C        2.6165010    -0.5169580    -0.7250520
  C        0.2447430    -0.3668820     0.0213200
  C       -2.1092640    -0.3317960     0.1925940
  C       -3.2536250     0.5656790    -0.2140850
  H        1.1864410     1.0054960    -1.2820320
  H        2.6888660     1.9907190     0.4595330
  H        2.0609350     0.8310830     1.6444090
  H        0.9859800     2.0639750     0.9510040
  H        3.4951390     0.0579210    -1.0318300
  H        2.3532220    -1.2022810    -1.5348280
  H        2.8748910    -1.1153660     0.1513080
  H       -2.1714740    -1.3192040    -0.2711440
  H       -2.0606790    -0.4764550     1.2759150
  H       -4.2047000     0.1215880     0.0924120
  H       -3.1592540     1.5451910     0.2586100
  H       -3.2661300     0.7008150    -1.2970470
units angstrom
no_reorient  #important for SAPT in psi4, default
symmetry c1  #important for SAPT in psi4, default
}

set PROPERTIES_ORIGIN ["COM"]
properties('MP2/aug-cc-pvtz', properties = ['dipole'])
--------------------------------------------------------------------------

    Molecular point group: c1
  Charge       = 0
  Multiplicity = 1
  Basis Set: AUG-CC-PVTZ
    Blend: AUG-CC-PVTZ
  Basis Set: (AUG-CC-PVTZ AUX)
    Blend: AUG-CC-PVTZ-JKFIT

    Orbital Energies [Eh]
    ---------------------

    Doubly Occupied:

       1A    -20.604155     2A    -20.541415     3A    -11.372536
       4A    -11.293267     5A    -11.240125     6A    -11.226951
       7A    -11.224488     8A    -11.213815     9A     -1.443515
      10A     -1.349650    11A     -1.090314    12A     -1.036321
      13A     -0.936397    14A     -0.890974    15A     -0.829815
      16A     -0.758259    17A     -0.696034    18A     -0.675175
      19A     -0.659815    20A     -0.617752    21A     -0.591799
      22A     -0.581405    23A     -0.555931    24A     -0.548423
      25A     -0.542581    26A     -0.521575    27A     -0.511742
      28A     -0.506905    29A     -0.486082    30A     -0.478965
      31A     -0.460280    32A     -0.432431

  @DF-RHF Final Energy:  -384.08126547671941

   => Energetics <=

    Nuclear Repulsion Energy =            395.2245772938389337
    One-Electron Energy =               -1306.7738990206887593
    Two-Electron Energy =                 527.4680562501304166
    Total Energy =                       -384.0812654767194090
  Basis Set: (AUG-CC-PVTZ AUX)
    Blend: AUG-CC-PVTZ-RI
    Molecular point group: c1

    Geometry (in Angstrom), charge = 0, multiplicity = 1:

       Center              X                  Y                   Z               Mass
    ------------   -----------------  -----------------  -----------------  -----------------
         O           -0.877850928042     0.347678005102    -0.265001651283    15.994914619570
         O            0.293838071958    -1.458278494898     0.576576548717    15.994914619570
         C            1.452708271958     0.416593105102    -0.394995551283    12.000000000000
         C            1.809000271958     1.384299105102     0.738482448717    12.000000000000
         C            2.607034271958    -0.521677894898    -0.721965551283    12.000000000000
         C            0.235276271958    -0.371601894898     0.024406448717    12.000000000000
         C           -2.118730728042    -0.336515894898     0.195680448717    12.000000000000
         C           -3.263091728042     0.560959105102    -0.210998551283    12.000000000000
         H            1.176974271958     1.000776105102    -1.278945551283     1.007825032230
         H            2.679399271958     1.985999105102     0.462619448717     1.007825032230
         H            2.051468271958     0.826363105102     1.647495448717     1.007825032230
         H            0.976513271958     2.059255105102     0.954090448717     1.007825032230
         H            3.485672271958     0.053201105102    -1.028743551283     1.007825032230
         H            2.343755271958    -1.207000894898    -1.531741551283     1.007825032230
         H            2.865424271958    -1.120085894898     0.154394448717     1.007825032230
         H           -2.180940728042    -1.323923894898    -0.268057551283     1.007825032230
         H           -2.070145728042    -0.481174894898     1.279001448717     1.007825032230
         H           -4.214166728042     0.116868105102     0.095498448717     1.007825032230
         H           -3.168720728042     1.540471105102     0.261696448717     1.007825032230
         H           -3.275596728042     0.696095105102    -1.293960551283     1.007825032230

  Basis Set: AUG-CC-PVTZ
    Blend: AUG-CC-PVTZ
  Basis Set: (AUG-CC-PVTZ AUX)
    Blend: AUG-CC-PVTZ-JKFIT
	 Reference Energy          =    -384.0812654767194090 [Eh]
	 Singles Energy            =      -0.0000000000000000 [Eh]
	 Same-Spin Energy          =      -0.3843588340557509 [Eh]
	 Opposite-Spin Energy      =      -1.2883043556782712 [Eh]
	 Correlation Energy        =      -1.6726631897340221 [Eh]
	 Total Energy              =    -385.7539286664534188 [Eh]

	 ================> DF-SCS-MP2 Energies <==================
	-----------------------------------------------------------
	 SCS Same-Spin Scale       =       0.3333333333333333 [-]
	 SCS Opposite-Spin Scale   =       1.2000000000000000 [-]
	 SCS Same-Spin Energy      =      -0.1281196113519170 [Eh]
	 SCS Opposite-Spin Energy  =      -1.5459652268139255 [Eh]
	 SCS Correlation Energy    =      -1.6740848381658424 [Eh]
	 SCS Total Energy          =    -385.7553503148852769 [Eh]
	-----------------------------------------------------------

  Dipole Moment: [D]
     X:    -1.0320      Y:     1.5025      Z:    -0.5493     Total:     1.9037

*** Psi4 exiting successfully. Buy a developer a beer!
