                               Psi4 1.3.2 release

  ==> Input File <==

--------------------------------------------------------------------------
#psi4
#
memory 32 gb

molecule  {
0 1
  O       -0.8881750     0.3267424    -0.2535526
  O        0.2714406    -1.4536388     0.5757876
  C        1.4621750     0.4213130    -0.3980820
  C        1.8184670     1.3890190     0.7353960
  C        2.6165010    -0.5169580    -0.7250520
  C        0.2447430    -0.3668820     0.0213200
  C       -2.1092640    -0.3317960     0.1925940
  C       -3.2536250     0.5656790    -0.2140850
  H        1.1864410     1.0054960    -1.2820320
  H        2.6888660     1.9907190     0.4595330
  H        2.0609350     0.8310830     1.6444090
  H        0.9859800     2.0639750     0.9510040
  H        3.4951390     0.0579210    -1.0318300
  H        2.3532220    -1.2022810    -1.5348280
  H        2.8748910    -1.1153660     0.1513080
  H       -2.1714740    -1.3192040    -0.2711440
  H       -2.0606790    -0.4764550     1.2759150
  H       -4.2047000     0.1215880     0.0924120
  H       -3.1592540     1.5451910     0.2586100
  H       -3.2661300     0.7008150    -1.2970470
units angstrom
no_reorient  #important for SAPT in psi4, default
symmetry c1  #important for SAPT in psi4, default
}

set PROPERTIES_ORIGIN ["COM"]
properties('MP2/aug-cc-pvtz', properties = ['dipole'])
--------------------------------------------------------------------------

    Molecular point group: c1
  Charge       = 0
  Multiplicity = 1
  Basis Set: AUG-CC-PVTZ
    Blend: AUG-CC-PVTZ
  Basis Set: (AUG-CC-PVTZ AUX)
    Blend: AUG-CC-PVTZ-JKFIT

    Orbital Energies [Eh]
    ---------------------

    Doubly Occupied:

       1A    -20.600685     2A    -20.540517     3A    -11.373249
       4A    -11.288191     5A    -11.244256     6A    -11.226523
       7A    -11.224714     8A    -11.216353     9A     -1.448216
      10A     -1.349085    11A     -1.093337    12A     -1.035048
      13A     -0.938609    14A     -0.894125    15A     -0.828654
      16A     -0.761016    17A     -0.698338    18A     -0.677144
      19A     -0.660658    20A     -0.619190    21A     -0.591118
      22A     -0.582965    23A     -0.555572    24A     -0.549504
      25A     -0.543963    26A     -0.519204    27A     -0.510645
      28A     -0.506086    29A     -0.488625    30A     -0.480595
      31A     -0.456715    32A     -0.435205

  @DF-RHF Final Energy:  -384.08519087428471

   => Energetics <=

    Nuclear Repulsion Energy =            395.6595178241207122
    One-Electron Energy =               -1307.6132073073322317
    Two-Electron Energy =                 527.8684986089268705
    Total Energy =                       -384.0851908742846490
  Basis Set: (AUG-CC-PVTZ AUX)
    Blend: AUG-CC-PVTZ-RI
    Molecular point group: c1

    Geometry (in Angstrom), charge = 0, multiplicity = 1:

       Center              X                  Y                   Z               Mass
    ------------   -----------------  -----------------  -----------------  -----------------
         O           -0.890524302393     0.325568569012    -0.252785532290    15.994914619570
         O            0.269091297607    -1.454812630988     0.576554667710    15.994914619570
         C            1.459825697607     0.420139169012    -0.397314932290    12.000000000000
         C            1.816117697607     1.387845169012     0.736163067710    12.000000000000
         C            2.614151697607    -0.518131830988    -0.724284932290    12.000000000000
         C            0.242393697607    -0.368055830988     0.022087067710    12.000000000000
         C           -2.111613302393    -0.332969830988     0.193361067710    12.000000000000
         C           -3.255974302393     0.564505169012    -0.213317932290    12.000000000000
         H            1.184091697607     1.004322169012    -1.281264932290     1.007825032230
         H            2.686516697607     1.989545169012     0.460300067710     1.007825032230
         H            2.058585697607     0.829909169012     1.645176067710     1.007825032230
         H            0.983630697607     2.062801169012     0.951771067710     1.007825032230
         H            3.492789697607     0.056747169012    -1.031062932290     1.007825032230
         H            2.350872697607    -1.203454830988    -1.534060932290     1.007825032230
         H            2.872541697607    -1.116539830988     0.152075067710     1.007825032230
         H           -2.173823302393    -1.320377830988    -0.270376932290     1.007825032230
         H           -2.063028302393    -0.477628830988     1.276682067710     1.007825032230
         H           -4.207049302393     0.120414169012     0.093179067710     1.007825032230
         H           -3.161603302393     1.544017169012     0.259377067710     1.007825032230
         H           -3.268479302393     0.699641169012    -1.296279932290     1.007825032230

  Basis Set: AUG-CC-PVTZ
    Blend: AUG-CC-PVTZ
  Basis Set: (AUG-CC-PVTZ AUX)
    Blend: AUG-CC-PVTZ-JKFIT
	 Reference Energy          =    -384.0851908742847058 [Eh]
	 Singles Energy            =      -0.0000000000000000 [Eh]
	 Same-Spin Energy          =      -0.3839665682883376 [Eh]
	 Opposite-Spin Energy      =      -1.2870204755194450 [Eh]
	 Correlation Energy        =      -1.6709870438077825 [Eh]
	 Total Energy              =    -385.7561779180924759 [Eh]

	 ================> DF-SCS-MP2 Energies <==================
	-----------------------------------------------------------
	 SCS Same-Spin Scale       =       0.3333333333333333 [-]
	 SCS Opposite-Spin Scale   =       1.2000000000000000 [-]
	 SCS Same-Spin Energy      =      -0.1279888560961125 [Eh]
	 SCS Opposite-Spin Energy  =      -1.5444245706233339 [Eh]
	 SCS Correlation Energy    =      -1.6724134267194464 [Eh]
	 SCS Total Energy          =    -385.7576043010041644 [Eh]
	-----------------------------------------------------------

  Dipole Moment: [D]
     X:    -0.7870      Y:     1.5708      Z:    -0.5935     Total:     1.8545

*** Psi4 exiting successfully. Buy a developer a beer!
