                               Psi4 1.3.2 release

  ==> Input File <==

--------------------------------------------------------------------------
#psi4
#
memory 32 gb

molecule  {
0 1
  O       -0.8975208     0.3281740    -0.2416643
  O        0.2608140    -1.4535000     0.5764690
  C        1.4621750     0.4213130    -0.3980820
  C        1.8184670     1.3890190     0.7353960
  C        2.6165010    -0.5169580    -0.7250520
  C        0.2447430    -0.3668820     0.0213200
  C       -2.1092640    -0.3317960     0.1925940
  C       -3.2536250     0.5656790    -0.2140850
  H        1.1864410     1.0054960    -1.2820320
  H        2.6888660     1.9907190     0.4595330
  H        2.0609350     0.8310830     1.6444090
  H        0.9859800     2.0639750     0.9510040
  H        3.4951390     0.0579210    -1.0318300
  H        2.3532220    -1.2022810    -1.5348280
  H        2.8748910    -1.1153660     0.1513080
  H       -2.1797497    -1.3207406    -0.2666639
  H       -2.0606790    -0.4764550     1.2759150
  H       -4.2047000     0.1215880     0.0924120
  H       -3.1592540     1.5451910     0.2586100
  H       -3.2661300     0.7008150    -1.2970470
units angstrom
no_reorient  #important for SAPT in psi4, default
symmetry c1  #important for SAPT in psi4, default
}

set PROPERTIES_ORIGIN ["COM"]
properties('MP2/aug-cc-pvtz', properties = ['dipole'])
--------------------------------------------------------------------------

    Molecular point group: c1
  Charge       = 0
  Multiplicity = 1
  Basis Set: AUG-CC-PVTZ
    Blend: AUG-CC-PVTZ
  Basis Set: (AUG-CC-PVTZ AUX)
    Blend: AUG-CC-PVTZ-JKFIT

    Orbital Energies [Eh]
    ---------------------

    Doubly Occupied:

       1A    -20.599515     2A    -20.541556     3A    -11.374459
       4A    -11.286050     5A    -11.245926     6A    -11.227316
       7A    -11.223414     8A    -11.217411     9A     -1.448144
      10A     -1.349394    11A     -1.094450    12A     -1.033884
      13A     -0.939507    14A     -0.894442    15A     -0.828447
      16A     -0.761284    17A     -0.699280    18A     -0.676903
      19A     -0.661031    20A     -0.619851    21A     -0.590399
      22A     -0.583717    23A     -0.555215    24A     -0.549266
      25A     -0.544405    26A     -0.519065    27A     -0.509993
      28A     -0.505923    29A     -0.489727    30A     -0.481148
      31A     -0.455635    32A     -0.436344

  @DF-RHF Final Energy:  -384.08531086372307

   => Energetics <=

    Nuclear Repulsion Energy =            395.6731979514200361
    One-Electron Energy =               -1307.6308182990599107
    Two-Electron Energy =                 527.8723094839168652
    Total Energy =                       -384.0853108637230662
  Basis Set: (AUG-CC-PVTZ AUX)
    Blend: AUG-CC-PVTZ-RI
    Molecular point group: c1

    Geometry (in Angstrom), charge = 0, multiplicity = 1:

       Center              X                  Y                   Z               Mass
    ------------   -----------------  -----------------  -----------------  -----------------
         O           -0.897046301922     0.326797127724    -0.242668078522    15.994914619570
         O            0.261288498078    -1.454876872276     0.575465221478    15.994914619570
         C            1.462649498078     0.419936127724    -0.399085778522    12.000000000000
         C            1.818941498078     1.387642127724     0.734392221478    12.000000000000
         C            2.616975498078    -0.518334872276    -0.726055778522    12.000000000000
         C            0.245217498078    -0.368258872276     0.020316221478    12.000000000000
         C           -2.108789501922    -0.333172872276     0.191590221478    12.000000000000
         C           -3.253150501922     0.564302127724    -0.215088778522    12.000000000000
         H            1.186915498078     1.004119127724    -1.283035778522     1.007825032230
         H            2.689340498078     1.989342127724     0.458529221478     1.007825032230
         H            2.061409498078     0.829706127724     1.643405221478     1.007825032230
         H            0.986454498078     2.062598127724     0.950000221478     1.007825032230
         H            3.495613498078     0.056544127724    -1.032833778522     1.007825032230
         H            2.353696498078    -1.203657872276    -1.535831778522     1.007825032230
         H            2.875365498078    -1.116742872276     0.150304221478     1.007825032230
         H           -2.179275201922    -1.322117472276    -0.267667678522     1.007825032230
         H           -2.060204501922    -0.477831872276     1.274911221478     1.007825032230
         H           -4.204225501922     0.120211127724     0.091408221478     1.007825032230
         H           -3.158779501922     1.543814127724     0.257606221478     1.007825032230
         H           -3.265655501922     0.699438127724    -1.298050778522     1.007825032230

  Basis Set: AUG-CC-PVTZ
    Blend: AUG-CC-PVTZ
  Basis Set: (AUG-CC-PVTZ AUX)
    Blend: AUG-CC-PVTZ-JKFIT
	 Reference Energy          =    -384.0853108637230662 [Eh]
	 Singles Energy            =      -0.0000000000000000 [Eh]
	 Same-Spin Energy          =      -0.3839647401831007 [Eh]
	 Opposite-Spin Energy      =      -1.2869361156794490 [Eh]
	 Correlation Energy        =      -1.6709008558625498 [Eh]
	 Total Energy              =    -385.7562117195856217 [Eh]

	 ================> DF-SCS-MP2 Energies <==================
	-----------------------------------------------------------
	 SCS Same-Spin Scale       =       0.3333333333333333 [-]
	 SCS Opposite-Spin Scale   =       1.2000000000000000 [-]
	 SCS Same-Spin Energy      =      -0.1279882467277002 [Eh]
	 SCS Opposite-Spin Energy  =      -1.5443233388153388 [Eh]
	 SCS Correlation Energy    =      -1.6723115855430390 [Eh]
	 SCS Total Energy          =    -385.7576224492660799 [Eh]
	-----------------------------------------------------------

  Dipole Moment: [D]
     X:    -0.6654      Y:     1.5648      Z:    -0.6098     Total:     1.8064

*** Psi4 exiting successfully. Buy a developer a beer!
