                               Psi4 1.3.2 release

  ==> Input File <==

--------------------------------------------------------------------------
#psi4
#
memory 32 gb

molecule  {
0 1
  O       -0.8790248     0.2565319    -0.2899451
  O        0.2608140    -1.4535000     0.5764690
  C        1.4621750     0.4213130    -0.3980820
  C        1.8184670     1.3890190     0.7353960
  C        2.6165010    -0.5169580    -0.7250520
  C        0.2447430    -0.3668820     0.0213200
  C       -2.1092640    -0.3317960     0.1925940
  C       -3.2536250     0.5656790    -0.2140850
  H        1.1864410     1.0054960    -1.2820320
  H        2.6888660     1.9907190     0.4595330
  H        2.0609350     0.8310830     1.6444090
  H        0.9859800     2.0639750     0.9510040
  H        3.4951390     0.0579210    -1.0318300
  H        2.3532220    -1.2022810    -1.5348280
  H        2.8748910    -1.1153660     0.1513080
  H       -2.1217422    -1.3084096    -0.2972709
  H       -2.0606790    -0.4764550     1.2759150
  H       -4.2047000     0.1215880     0.0924120
  H       -3.1592540     1.5451910     0.2586100
  H       -3.2661300     0.7008150    -1.2970470
units angstrom
no_reorient  #important for SAPT in psi4, default
symmetry c1  #important for SAPT in psi4, default
}

set PROPERTIES_ORIGIN ["COM"]
properties('MP2/aug-cc-pvtz', properties = ['dipole'])
--------------------------------------------------------------------------

    Molecular point group: c1
  Charge       = 0
  Multiplicity = 1
  Basis Set: AUG-CC-PVTZ
    Blend: AUG-CC-PVTZ
  Basis Set: (AUG-CC-PVTZ AUX)
    Blend: AUG-CC-PVTZ-JKFIT

    Orbital Energies [Eh]
    ---------------------

    Doubly Occupied:

       1A    -20.598554     2A    -20.532324     3A    -11.368135
       4A    -11.289165     5A    -11.244052     6A    -11.227163
       7A    -11.226623     8A    -11.216033     9A     -1.460617
      10A     -1.345455    11A     -1.093874    12A     -1.038937
      13A     -0.938502    14A     -0.900051    15A     -0.828011
      16A     -0.764747    17A     -0.698351    18A     -0.683300
      19A     -0.660308    20A     -0.618739    21A     -0.594444
      22A     -0.582943    23A     -0.557373    24A     -0.552681
      25A     -0.543965    26A     -0.520982    27A     -0.508568
      28A     -0.502191    29A     -0.487637    30A     -0.480818
      31A     -0.452621    32A     -0.433396

  @DF-RHF Final Energy:  -384.08613371852817

   => Energetics <=

    Nuclear Repulsion Energy =            396.6171281402249065
    One-Electron Energy =               -1309.5054018146297494
    Two-Electron Energy =                 528.8021399558766689
    Total Energy =                       -384.0861337185282309
  Basis Set: (AUG-CC-PVTZ AUX)
    Blend: AUG-CC-PVTZ-RI
    Molecular point group: c1

    Geometry (in Angstrom), charge = 0, multiplicity = 1:

       Center              X                  Y                   Z               Mass
    ------------   -----------------  -----------------  -----------------  -----------------
         O           -0.881602438105     0.264919374423    -0.284030649955    15.994914619570
         O            0.258236361895    -1.445112525577     0.582383450045    15.994914619570
         C            1.459597361895     0.429700474423    -0.392167549955    12.000000000000
         C            1.815889361895     1.397406474423     0.741310450045    12.000000000000
         C            2.613923361895    -0.508570525577    -0.719137549955    12.000000000000
         C            0.242165361895    -0.358494525577     0.027234450045    12.000000000000
         C           -2.111841638105    -0.323408525577     0.198508450045    12.000000000000
         C           -3.256202638105     0.574066474423    -0.208170549955    12.000000000000
         H            1.183863361895     1.013883474423    -1.276117549955     1.007825032230
         H            2.686288361895     1.999106474423     0.465447450045     1.007825032230
         H            2.058357361895     0.839470474423     1.650323450045     1.007825032230
         H            0.983402361895     2.072362474423     0.956918450045     1.007825032230
         H            3.492561361895     0.066308474423    -1.025915549955     1.007825032230
         H            2.350644361895    -1.193893525577    -1.528913549955     1.007825032230
         H            2.872313361895    -1.106978525577     0.157222450045     1.007825032230
         H           -2.124319838105    -1.300022125577    -0.291356449955     1.007825032230
         H           -2.063256638105    -0.468067525577     1.281829450045     1.007825032230
         H           -4.207277638105     0.129975474423     0.098326450045     1.007825032230
         H           -3.161831638105     1.553578474423     0.264524450045     1.007825032230
         H           -3.268707638105     0.709202474423    -1.291132549955     1.007825032230

  Basis Set: AUG-CC-PVTZ
    Blend: AUG-CC-PVTZ
  Basis Set: (AUG-CC-PVTZ AUX)
    Blend: AUG-CC-PVTZ-JKFIT
	 Reference Energy          =    -384.0861337185281741 [Eh]
	 Singles Energy            =      -0.0000000000000000 [Eh]
	 Same-Spin Energy          =      -0.3833569848379760 [Eh]
	 Opposite-Spin Energy      =      -1.2851303070068449 [Eh]
	 Correlation Energy        =      -1.6684872918448210 [Eh]
	 Total Energy              =    -385.7546210103730004 [Eh]

	 ================> DF-SCS-MP2 Energies <==================
	-----------------------------------------------------------
	 SCS Same-Spin Scale       =       0.3333333333333333 [-]
	 SCS Opposite-Spin Scale   =       1.2000000000000000 [-]
	 SCS Same-Spin Energy      =      -0.1277856616126586 [Eh]
	 SCS Opposite-Spin Energy  =      -1.5421563684082138 [Eh]
	 SCS Correlation Energy    =      -1.6699420300208725 [Eh]
	 SCS Total Energy          =    -385.7560757485490512 [Eh]
	-----------------------------------------------------------

  Dipole Moment: [D]
     X:    -0.9166      Y:     1.7682      Z:    -0.6021     Total:     2.0806

*** Psi4 exiting successfully. Buy a developer a beer!
