                               Psi4 1.3.2 release

  ==> Input File <==

--------------------------------------------------------------------------
#psi4
#
memory 32 gb

molecule  {
0 1
  O       -0.8946000     0.3180840    -0.2486650
  O        0.2608140    -1.4535000     0.5764690
  C        1.4621750     0.4213130    -0.3980820
  C        1.8184670     1.3890190     0.7353960
  C        2.6165010    -0.5169580    -0.7250520
  C        0.2379731    -0.3616446     0.0113043
  C       -2.1092640    -0.3317960     0.1925940
  C       -3.2536250     0.5656790    -0.2140850
  H        1.1776197     1.0018472    -1.2816401
  H        2.6888660     1.9907190     0.4595330
  H        2.0609350     0.8310830     1.6444090
  H        0.9859800     2.0639750     0.9510040
  H        3.4951390     0.0579210    -1.0318300
  H        2.3532220    -1.2022810    -1.5348280
  H        2.8748910    -1.1153660     0.1513080
  H       -2.1714740    -1.3192040    -0.2711440
  H       -2.0606790    -0.4764550     1.2759150
  H       -4.2047000     0.1215880     0.0924120
  H       -3.1592540     1.5451910     0.2586100
  H       -3.2661300     0.7008150    -1.2970470
units angstrom
no_reorient  #important for SAPT in psi4, default
symmetry c1  #important for SAPT in psi4, default
}

set PROPERTIES_ORIGIN ["COM"]
properties('MP2/aug-cc-pvtz', properties = ['dipole'])
--------------------------------------------------------------------------

    Molecular point group: c1
  Charge       = 0
  Multiplicity = 1
  Basis Set: AUG-CC-PVTZ
    Blend: AUG-CC-PVTZ
  Basis Set: (AUG-CC-PVTZ AUX)
    Blend: AUG-CC-PVTZ-JKFIT

    Orbital Energies [Eh]
    ---------------------

    Doubly Occupied:

       1A    -20.602129     2A    -20.537724     3A    -11.373672
       4A    -11.287830     5A    -11.245499     6A    -11.227180
       7A    -11.224809     8A    -11.216938     9A     -1.452174
      10A     -1.344518    11A     -1.094170    12A     -1.036373
      13A     -0.939058    14A     -0.896761    15A     -0.829198
      16A     -0.763861    17A     -0.697671    18A     -0.679215
      19A     -0.660361    20A     -0.619366    21A     -0.591017
      22A     -0.583235    23A     -0.556146    24A     -0.550240
      25A     -0.544195    26A     -0.518684    27A     -0.509395
      28A     -0.505085    29A     -0.489864    30A     -0.480612
      31A     -0.454593    32A     -0.435058

  @DF-RHF Final Energy:  -384.08533060127360

   => Energetics <=

    Nuclear Repulsion Energy =            395.8253776461269240
    One-Electron Energy =               -1307.9281549554436879
    Two-Electron Energy =                 528.0174467080430531
    Total Energy =                       -384.0853306012736539
  Basis Set: (AUG-CC-PVTZ AUX)
    Blend: AUG-CC-PVTZ-RI
    Molecular point group: c1

    Geometry (in Angstrom), charge = 0, multiplicity = 1:

       Center              X                  Y                   Z               Mass
    ------------   -----------------  -----------------  -----------------  -----------------
         O           -0.893823386175     0.317574334669    -0.247633315070    15.994914619570
         O            0.261590613825    -1.454009665331     0.577500684930    15.994914619570
         C            1.462951613825     0.420803334669    -0.397050315070    12.000000000000
         C            1.819243613825     1.388509334669     0.736427684930    12.000000000000
         C            2.617277613825    -0.517467665331    -0.724020315070    12.000000000000
         C            0.238749713825    -0.362154265331     0.012335984930    12.000000000000
         C           -2.108487386175    -0.332305665331     0.193625684930    12.000000000000
         C           -3.252848386175     0.565169334669    -0.213053315070    12.000000000000
         H            1.178396313825     1.001337534669    -1.280608415070     1.007825032230
         H            2.689642613825     1.990209334669     0.460564684930     1.007825032230
         H            2.061711613825     0.830573334669     1.645440684930     1.007825032230
         H            0.986756613825     2.063465334669     0.952035684930     1.007825032230
         H            3.495915613825     0.057411334669    -1.030798315070     1.007825032230
         H            2.353998613825    -1.202790665331    -1.533796315070     1.007825032230
         H            2.875667613825    -1.115875665331     0.152339684930     1.007825032230
         H           -2.170697386175    -1.319713665331    -0.270112315070     1.007825032230
         H           -2.059902386175    -0.476964665331     1.276946684930     1.007825032230
         H           -4.203923386175     0.121078334669     0.093443684930     1.007825032230
         H           -3.158477386175     1.544681334669     0.259641684930     1.007825032230
         H           -3.265353386175     0.700305334669    -1.296015315070     1.007825032230

  Basis Set: AUG-CC-PVTZ
    Blend: AUG-CC-PVTZ
  Basis Set: (AUG-CC-PVTZ AUX)
    Blend: AUG-CC-PVTZ-JKFIT
	 Reference Energy          =    -384.0853306012735970 [Eh]
	 Singles Energy            =      -0.0000000000000000 [Eh]
	 Same-Spin Energy          =      -0.3839547093612246 [Eh]
	 Opposite-Spin Energy      =      -1.2867957348342491 [Eh]
	 Correlation Energy        =      -1.6707504441954737 [Eh]
	 Total Energy              =    -385.7560810454690454 [Eh]

	 ================> DF-SCS-MP2 Energies <==================
	-----------------------------------------------------------
	 SCS Same-Spin Scale       =       0.3333333333333333 [-]
	 SCS Opposite-Spin Scale   =       1.2000000000000000 [-]
	 SCS Same-Spin Energy      =      -0.1279849031204082 [Eh]
	 SCS Opposite-Spin Energy  =      -1.5441548818010988 [Eh]
	 SCS Correlation Energy    =      -1.6721397849215069 [Eh]
	 SCS Total Energy          =    -385.7574703861951093 [Eh]
	-----------------------------------------------------------

  Dipole Moment: [D]
     X:    -0.7856      Y:     1.6448      Z:    -0.6346     Total:     1.9301

*** Psi4 exiting successfully. Buy a developer a beer!
