                               Psi4 1.3.2 release

  ==> Input File <==

--------------------------------------------------------------------------
#psi4
#
memory 32 gb

molecule  {
0 1
  O       -0.8946000     0.3180840    -0.2486650
  O        0.2608140    -1.4535000     0.5764690
  C        1.4621750     0.4213130    -0.3980820
  C        1.8184670     1.3890190     0.7353960
  C        2.6165010    -0.5169580    -0.7250520
  C        0.2813819    -0.3143579    -0.0093817
  C       -2.1483566    -0.2731961     0.1647891
  C       -3.2536250     0.5656790    -0.2140850
  H        1.1864410     1.0054960    -1.2820320
  H        2.6888660     1.9907190     0.4595330
  H        2.0609350     0.8310830     1.6444090
  H        0.9859800     2.0639750     0.9510040
  H        3.4951390     0.0579210    -1.0318300
  H        2.3532220    -1.2022810    -1.5348280
  H        2.8748910    -1.1153660     0.1513080
  H       -2.1714740    -1.3192040    -0.2711440
  H       -2.0606790    -0.4764550     1.2759150
  H       -4.2047000     0.1215880     0.0924120
  H       -3.1592540     1.5451910     0.2586100
  H       -3.2661300     0.7008150    -1.2970470
units angstrom
no_reorient  #important for SAPT in psi4, default
symmetry c1  #important for SAPT in psi4, default
}

set PROPERTIES_ORIGIN ["COM"]
properties('MP2/aug-cc-pvtz', properties = ['dipole'])
--------------------------------------------------------------------------

    Molecular point group: c1
  Charge       = 0
  Multiplicity = 1
  Basis Set: AUG-CC-PVTZ
    Blend: AUG-CC-PVTZ
  Basis Set: (AUG-CC-PVTZ AUX)
    Blend: AUG-CC-PVTZ-JKFIT

    Orbital Energies [Eh]
    ---------------------

    Doubly Occupied:

       1A    -20.598407     2A    -20.530802     3A    -11.380405
       4A    -11.291045     5A    -11.247667     6A    -11.232146
       7A    -11.222943     8A    -11.220671     9A     -1.438561
      10A     -1.313566    11A     -1.108649    12A     -1.051454
      13A     -0.943537    14A     -0.907560    15A     -0.829679
      16A     -0.758277    17A     -0.700914    18A     -0.670856
      19A     -0.652255    20A     -0.620129    21A     -0.593253
      22A     -0.586063    23A     -0.562014    24A     -0.553184
      25A     -0.546376    26A     -0.527555    27A     -0.502849
      28A     -0.498122    29A     -0.493108    30A     -0.469516
      31A     -0.437493    32A     -0.436128

  @DF-RHF Final Energy:  -384.06401068659716

   => Energetics <=

    Nuclear Repulsion Energy =            395.7210332813865534
    One-Electron Energy =               -1307.7197204496260383
    Two-Electron Energy =                 527.9346764816423274
    Total Energy =                       -384.0640106865971575
  Basis Set: (AUG-CC-PVTZ AUX)
    Blend: AUG-CC-PVTZ-RI
    Molecular point group: c1

    Geometry (in Angstrom), charge = 0, multiplicity = 1:

       Center              X                  Y                   Z               Mass
    ------------   -----------------  -----------------  -----------------  -----------------
         O           -0.894346153036     0.306596770836    -0.242617230831    15.994914619570
         O            0.261067846964    -1.464987229164     0.582516769169    15.994914619570
         C            1.462428846964     0.409825770836    -0.392034230831    12.000000000000
         C            1.818720846964     1.377531770836     0.741443769169    12.000000000000
         C            2.616754846964    -0.528445229164    -0.719004230831    12.000000000000
         C            0.281635746964    -0.325845129164    -0.003333930831    12.000000000000
         C           -2.148102753036    -0.284683329164     0.170836869169    12.000000000000
         C           -3.253371153036     0.554191770836    -0.208037230831    12.000000000000
         H            1.186694846964     0.994008770836    -1.275984230831     1.007825032230
         H            2.689119846964     1.979231770836     0.465580769169     1.007825032230
         H            2.061188846964     0.819595770836     1.650456769169     1.007825032230
         H            0.986233846964     2.052487770836     0.957051769169     1.007825032230
         H            3.495392846964     0.046433770836    -1.025782230831     1.007825032230
         H            2.353475846964    -1.213768229164    -1.528780230831     1.007825032230
         H            2.875144846964    -1.126853229164     0.157355769169     1.007825032230
         H           -2.171220153036    -1.330691229164    -0.265096230831     1.007825032230
         H           -2.060425153036    -0.487942229164     1.281962769169     1.007825032230
         H           -4.204446153036     0.110100770836     0.098459769169     1.007825032230
         H           -3.159000153036     1.533703770836     0.264657769169     1.007825032230
         H           -3.265876153036     0.689327770836    -1.290999230831     1.007825032230

  Basis Set: AUG-CC-PVTZ
    Blend: AUG-CC-PVTZ
  Basis Set: (AUG-CC-PVTZ AUX)
    Blend: AUG-CC-PVTZ-JKFIT
	 Reference Energy          =    -384.0640106865971575 [Eh]
	 Singles Energy            =      -0.0000000000000000 [Eh]
	 Same-Spin Energy          =      -0.3863801397425983 [Eh]
	 Opposite-Spin Energy      =      -1.2905843051772015 [Eh]
	 Correlation Energy        =      -1.6769644449197998 [Eh]
	 Total Energy              =    -385.7409751315169615 [Eh]

	 ================> DF-SCS-MP2 Energies <==================
	-----------------------------------------------------------
	 SCS Same-Spin Scale       =       0.3333333333333333 [-]
	 SCS Opposite-Spin Scale   =       1.2000000000000000 [-]
	 SCS Same-Spin Energy      =      -0.1287933799141994 [Eh]
	 SCS Opposite-Spin Energy  =      -1.5487011662126418 [Eh]
	 SCS Correlation Energy    =      -1.6774945461268411 [Eh]
	 SCS Total Energy          =    -385.7415052327240232 [Eh]
	-----------------------------------------------------------

  Dipole Moment: [D]
     X:    -0.6575      Y:     1.9810      Z:    -0.7677     Total:     2.2240

*** Psi4 exiting successfully. Buy a developer a beer!
