                               Psi4 1.3.2 release

  ==> Input File <==

--------------------------------------------------------------------------
#psi4
#
memory 32 gb

molecule  {
0 1
  O       -0.8946000     0.3180840    -0.2486650
  O        0.2714609    -1.4533924     0.5762692
  C        1.4699183     0.4117794    -0.3933147
  C        1.8184670     1.3890190     0.7353960
  C        2.6165010    -0.5169580    -0.7250520
  C        0.2447430    -0.3668820     0.0213200
  C       -2.1092640    -0.3317960     0.1925940
  C       -3.2536250     0.5656790    -0.2140850
  H        1.1864410     1.0054960    -1.2820320
  H        2.6888660     1.9907190     0.4595330
  H        2.0609350     0.8310830     1.6444090
  H        0.9859800     2.0639750     0.9510040
  H        3.4951390     0.0579210    -1.0318300
  H        2.3532220    -1.2022810    -1.5348280
  H        2.8748910    -1.1153660     0.1513080
  H       -2.1714740    -1.3192040    -0.2711440
  H       -2.0606790    -0.4764550     1.2759150
  H       -4.2047000     0.1215880     0.0924120
  H       -3.1592540     1.5451910     0.2586100
  H       -3.2661300     0.7008150    -1.2970470
units angstrom
no_reorient  #important for SAPT in psi4, default
symmetry c1  #important for SAPT in psi4, default
}

set PROPERTIES_ORIGIN ["COM"]
properties('MP2/aug-cc-pvtz', properties = ['dipole'])
--------------------------------------------------------------------------

    Molecular point group: c1
  Charge       = 0
  Multiplicity = 1
  Basis Set: AUG-CC-PVTZ
    Blend: AUG-CC-PVTZ
  Basis Set: (AUG-CC-PVTZ AUX)
    Blend: AUG-CC-PVTZ-JKFIT

    Orbital Energies [Eh]
    ---------------------

    Doubly Occupied:

       1A    -20.600371     2A    -20.540072     3A    -11.373484
       4A    -11.287099     5A    -11.245534     6A    -11.226978
       7A    -11.224337     8A    -11.216514     9A     -1.449869
      10A     -1.349616    11A     -1.094608    12A     -1.035205
      13A     -0.940067    14A     -0.895063    15A     -0.828338
      16A     -0.761707    17A     -0.698161    18A     -0.678219
      19A     -0.660841    20A     -0.620344    21A     -0.591139
      22A     -0.583967    23A     -0.555894    24A     -0.549650
      25A     -0.544440    26A     -0.519541    27A     -0.509872
      28A     -0.505992    29A     -0.490861    30A     -0.478765
      31A     -0.455740    32A     -0.435286

  @DF-RHF Final Energy:  -384.08561040968766

   => Energetics <=

    Nuclear Repulsion Energy =            395.8435043013819268
    One-Electron Energy =               -1307.9630798337909710
    Two-Electron Energy =                 528.0339651227213835
    Total Energy =                       -384.0856104096876606
  Basis Set: (AUG-CC-PVTZ AUX)
    Blend: AUG-CC-PVTZ-RI
    Molecular point group: c1

    Geometry (in Angstrom), charge = 0, multiplicity = 1:

       Center              X                  Y                   Z               Mass
    ------------   -----------------  -----------------  -----------------  -----------------
         O           -0.896867266524     0.319054762596    -0.249130555467    15.994914619570
         O            0.269193633476    -1.452421637404     0.575803644533    15.994914619570
         C            1.467651033476     0.412750162596    -0.393780255467    12.000000000000
         C            1.816199733476     1.389989762596     0.734930444533    12.000000000000
         C            2.614233733476    -0.515987237404    -0.725517555467    12.000000000000
         C            0.242475733476    -0.365911237404     0.020854444533    12.000000000000
         C           -2.111531266524    -0.330825237404     0.192128444533    12.000000000000
         C           -3.255892266524     0.566649762596    -0.214550555467    12.000000000000
         H            1.184173733476     1.006466762596    -1.282497555467     1.007825032230
         H            2.686598733476     1.991689762596     0.459067444533     1.007825032230
         H            2.058667733476     0.832053762596     1.643943444533     1.007825032230
         H            0.983712733476     2.064945762596     0.950538444533     1.007825032230
         H            3.492871733476     0.058891762596    -1.032295555467     1.007825032230
         H            2.350954733476    -1.201310237404    -1.535293555467     1.007825032230
         H            2.872623733476    -1.114395237404     0.150842444533     1.007825032230
         H           -2.173741266524    -1.318233237404    -0.271609555467     1.007825032230
         H           -2.062946266524    -0.475484237404     1.275449444533     1.007825032230
         H           -4.206967266524     0.122558762596     0.091946444533     1.007825032230
         H           -3.161521266524     1.546161762596     0.258144444533     1.007825032230
         H           -3.268397266524     0.701785762596    -1.297512555467     1.007825032230

  Basis Set: AUG-CC-PVTZ
    Blend: AUG-CC-PVTZ
  Basis Set: (AUG-CC-PVTZ AUX)
    Blend: AUG-CC-PVTZ-JKFIT
	 Reference Energy          =    -384.0856104096876606 [Eh]
	 Singles Energy            =      -0.0000000000000000 [Eh]
	 Same-Spin Energy          =      -0.3839053063745792 [Eh]
	 Opposite-Spin Energy      =      -1.2866956117940385 [Eh]
	 Correlation Energy        =      -1.6706009181686177 [Eh]
	 Total Energy              =    -385.7562113278563061 [Eh]

	 ================> DF-SCS-MP2 Energies <==================
	-----------------------------------------------------------
	 SCS Same-Spin Scale       =       0.3333333333333333 [-]
	 SCS Opposite-Spin Scale   =       1.2000000000000000 [-]
	 SCS Same-Spin Energy      =      -0.1279684354581931 [Eh]
	 SCS Opposite-Spin Energy  =      -1.5440347341528462 [Eh]
	 SCS Correlation Energy    =      -1.6720031696110393 [Eh]
	 SCS Total Energy          =    -385.7576135792987202 [Eh]
	-----------------------------------------------------------

  Dipole Moment: [D]
     X:    -0.7390      Y:     1.5866      Z:    -0.6057     Total:     1.8521

*** Psi4 exiting successfully. Buy a developer a beer!
