                               Psi4 1.3.2 release

  ==> Input File <==

--------------------------------------------------------------------------
#psi4
#
memory 32 gb

molecule  {
0 1
  O       -0.8946000     0.3180840    -0.2486650
  O        0.2608140    -1.4535000     0.5764690
  C        1.4621750     0.4213130    -0.3980820
  C        1.8184670     1.3890190     0.7353960
  C        2.6165010    -0.5169580    -0.7250520
  C        0.2049812    -0.4175287     0.0512816
  C       -2.0668421    -0.3886146     0.2191895
  C       -3.2536250     0.5656790    -0.2140850
  H        1.1864410     1.0054960    -1.2820320
  H        2.6888660     1.9907190     0.4595330
  H        2.0609350     0.8310830     1.6444090
  H        0.9859800     2.0639750     0.9510040
  H        3.4951390     0.0579210    -1.0318300
  H        2.3532220    -1.2022810    -1.5348280
  H        2.8748910    -1.1153660     0.1513080
  H       -2.1714740    -1.3192040    -0.2711440
  H       -2.0606790    -0.4764550     1.2759150
  H       -4.2047000     0.1215880     0.0924120
  H       -3.1592540     1.5451910     0.2586100
  H       -3.2661300     0.7008150    -1.2970470
units angstrom
no_reorient  #important for SAPT in psi4, default
symmetry c1  #important for SAPT in psi4, default
}

set PROPERTIES_ORIGIN ["COM"]
properties('MP2/aug-cc-pvtz', properties = ['dipole'])
--------------------------------------------------------------------------

    Molecular point group: c1
  Charge       = 0
  Multiplicity = 1
  Basis Set: AUG-CC-PVTZ
    Blend: AUG-CC-PVTZ
  Basis Set: (AUG-CC-PVTZ AUX)
    Blend: AUG-CC-PVTZ-JKFIT

    Orbital Energies [Eh]
    ---------------------

    Doubly Occupied:

       1A    -20.601423     2A    -20.549431     3A    -11.367710
       4A    -11.284246     5A    -11.241736     6A    -11.224892
       7A    -11.222444     8A    -11.213703     9A     -1.469287
      10A     -1.379950    11A     -1.081420    12A     -1.020912
      13A     -0.935067    14A     -0.885888    15A     -0.827230
      16A     -0.764053    17A     -0.702330    18A     -0.688817
      19A     -0.671357    20A     -0.619853    21A     -0.593788
      22A     -0.584904    23A     -0.552493    24A     -0.545351
      25A     -0.542585    26A     -0.523295    27A     -0.519311
      28A     -0.499368    29A     -0.485418    30A     -0.481201
      31A     -0.471130    32A     -0.423658

  @DF-RHF Final Energy:  -384.07646857165503

   => Energetics <=

    Nuclear Repulsion Energy =            396.0868369992828661
    One-Electron Energy =               -1308.3781038230133618
    Two-Electron Energy =                 528.2147982520754113
    Total Energy =                       -384.0764685716550275
  Basis Set: (AUG-CC-PVTZ AUX)
    Blend: AUG-CC-PVTZ-RI
    Molecular point group: c1

    Geometry (in Angstrom), charge = 0, multiplicity = 1:

       Center              X                  Y                   Z               Mass
    ------------   -----------------  -----------------  -----------------  -----------------
         O           -0.894874785259     0.329193146818    -0.254511786635    15.994914619570
         O            0.260539214741    -1.442390853182     0.570622213365    15.994914619570
         C            1.461900214741     0.432422146818    -0.403928786635    12.000000000000
         C            1.818192214741     1.400128146818     0.729549213365    12.000000000000
         C            2.616226214741    -0.505848853182    -0.730898786635    12.000000000000
         C            0.204706414741    -0.406419553182     0.045434813365    12.000000000000
         C           -2.067116885259    -0.377505453182     0.213342713365    12.000000000000
         C           -3.253899785259     0.576788146818    -0.219931786635    12.000000000000
         H            1.186166214741     1.016605146818    -1.287878786635     1.007825032230
         H            2.688591214741     2.001828146818     0.453686213365     1.007825032230
         H            2.060660214741     0.842192146818     1.638562213365     1.007825032230
         H            0.985705214741     2.075084146818     0.945157213365     1.007825032230
         H            3.494864214741     0.069030146818    -1.037676786635     1.007825032230
         H            2.352947214741    -1.191171853182    -1.540674786635     1.007825032230
         H            2.874616214741    -1.104256853182     0.145461213365     1.007825032230
         H           -2.171748785259    -1.308094853182    -0.276990786635     1.007825032230
         H           -2.060953785259    -0.465345853182     1.270068213365     1.007825032230
         H           -4.204974785259     0.132697146818     0.086565213365     1.007825032230
         H           -3.159528785259     1.556300146818     0.252763213365     1.007825032230
         H           -3.266404785259     0.711924146818    -1.302893786635     1.007825032230

  Basis Set: AUG-CC-PVTZ
    Blend: AUG-CC-PVTZ
  Basis Set: (AUG-CC-PVTZ AUX)
    Blend: AUG-CC-PVTZ-JKFIT
	 Reference Energy          =    -384.0764685716550275 [Eh]
	 Singles Energy            =      -0.0000000000000000 [Eh]
	 Same-Spin Energy          =      -0.3824637644171044 [Eh]
	 Opposite-Spin Energy      =      -1.2847187170892362 [Eh]
	 Correlation Energy        =      -1.6671824815063405 [Eh]
	 Total Energy              =    -385.7436510531613862 [Eh]

	 ================> DF-SCS-MP2 Energies <==================
	-----------------------------------------------------------
	 SCS Same-Spin Scale       =       0.3333333333333333 [-]
	 SCS Opposite-Spin Scale   =       1.2000000000000000 [-]
	 SCS Same-Spin Energy      =      -0.1274879214723681 [Eh]
	 SCS Opposite-Spin Energy  =      -1.5416624605070834 [Eh]
	 SCS Correlation Energy    =      -1.6691503819794515 [Eh]
	 SCS Total Energy          =    -385.7456189536345050 [Eh]
	-----------------------------------------------------------

  Dipole Moment: [D]
     X:    -0.7943      Y:     1.1990      Z:    -0.4431     Total:     1.5049

*** Psi4 exiting successfully. Buy a developer a beer!
