                               Psi4 1.4a3.dev225

  ==> Input File <==

--------------------------------------------------------------------------
#psi4
#
memory 32 gb

molecule  {
0 1
  O       -0.8844740     0.2512200    -0.2589860
  O        0.2594420    -1.5357810     0.5540110
  C        1.4751410     0.3499910    -0.3991000
  C        1.6489360     1.5420820     0.5503600
  C        2.7076510    -0.5454760    -0.4239080
  C        0.2528950    -0.4576356     0.0242085
  C       -2.1066380    -0.4073920     0.1545600
  C       -3.2437300     0.5134160    -0.2249800
  H        1.2747850     0.7394360    -1.4046030
  H        2.5199720     2.1341380     0.2549160
  H        1.8085970     1.1898350     1.5745190
  H        0.7675450     2.1869880     0.5363060
  H        3.5809030     0.0268420    -0.7502520
  H        2.5706130    -1.3892510    -1.1045820
  H        2.9042310    -0.9491700     0.5720060
  H       -2.1727950    -1.3769310    -0.3467220
  H       -2.0631380    -0.5911830     1.2316620
  H       -4.1987120     0.0656950     0.0643780
  H       -3.1432900     1.4757990     0.2814060
  H       -3.2533220     0.6866720    -1.3031500
units angstrom
no_reorient  #important for SAPT in psi4, default
symmetry c1  #important for SAPT in psi4, default
}

set PROPERTIES_ORIGIN ["COM"]
properties('MP2/aug-cc-pvtz', properties = ['dipole'])
--------------------------------------------------------------------------

    Molecular point group: c1
  Charge       = 0
  Multiplicity = 1
  Basis Set: AUG-CC-PVTZ
    Blend: AUG-CC-PVTZ
  Basis Set: (AUG-CC-PVTZ AUX)
    Blend: AUG-CC-PVTZ-JKFIT

    Orbital Energies [Eh]
    ---------------------

    Doubly Occupied:

       1A    -20.595497     2A    -20.545108     3A    -11.372762
       4A    -11.285560     5A    -11.246579     6A    -11.226096
       7A    -11.223506     8A    -11.215818     9A     -1.449760
      10A     -1.357204    11A     -1.091126    12A     -1.031825
      13A     -0.937907    14A     -0.891181    15A     -0.827124
      16A     -0.759541    17A     -0.698446    18A     -0.676760
      19A     -0.663840    20A     -0.622160    21A     -0.586976
      22A     -0.582249    23A     -0.556086    24A     -0.547877
      25A     -0.544057    26A     -0.519841    27A     -0.509725
      28A     -0.507697    29A     -0.489286    30A     -0.482151
      31A     -0.456692    32A     -0.435433

  @DF-RHF Final Energy:  -384.08628781700406

   => Energetics <=

    Nuclear Repulsion Energy =            395.7817242405744764
    One-Electron Energy =               -1307.8642843363927568
    Two-Electron Energy =                 527.9962722788142173
    Total Energy =                       -384.0862878170040631
  Basis Set: (AUG-CC-PVTZ AUX)
    Blend: AUG-CC-PVTZ-RI
    Molecular point group: c1

    Geometry (in Angstrom), charge = 0, multiplicity = 1:

       Center              X                  Y                   Z               Mass
    ------------   -----------------  -----------------  -----------------  -----------------
         O           -0.879423976726     0.288907386851    -0.263253486209    15.994914619570
         O            0.264492023274    -1.498093613149     0.549743513791    15.994914619570
         C            1.480191023274     0.387678386851    -0.403367486209    12.000000000000
         C            1.653986023274     1.579769386851     0.546092513791    12.000000000000
         C            2.712701023274    -0.507788613149    -0.428175486209    12.000000000000
         C            0.257945023274    -0.419948213149     0.019941013791    12.000000000000
         C           -2.101587976726    -0.369704613149     0.150292513791    12.000000000000
         C           -3.238679976726     0.551103386851    -0.229247486209    12.000000000000
         H            1.279835023274     0.777123386851    -1.408870486209     1.007825032230
         H            2.525022023274     2.171825386851     0.250648513791     1.007825032230
         H            1.813647023274     1.227522386851     1.570251513791     1.007825032230
         H            0.772595023274     2.224675386851     0.532038513791     1.007825032230
         H            3.585953023274     0.064529386851    -0.754519486209     1.007825032230
         H            2.575663023274    -1.351563613149    -1.108849486209     1.007825032230
         H            2.909281023274    -0.911482613149     0.567738513791     1.007825032230
         H           -2.167744976726    -1.339243613149    -0.350989486209     1.007825032230
         H           -2.058087976726    -0.553495613149     1.227394513791     1.007825032230
         H           -4.193661976726     0.103382386851     0.060110513791     1.007825032230
         H           -3.138239976726     1.513486386851     0.277138513791     1.007825032230
         H           -3.248271976726     0.724359386851    -1.307417486209     1.007825032230

  Basis Set: AUG-CC-PVTZ
    Blend: AUG-CC-PVTZ
  Basis Set: (AUG-CC-PVTZ AUX)
    Blend: AUG-CC-PVTZ-JKFIT
	 Reference Energy          =    -384.0862878170040631 [Eh]
	 Singles Energy            =      -0.0000000000000000 [Eh]
	 Same-Spin Energy          =      -0.3834516984068762 [Eh]
	 Opposite-Spin Energy      =      -1.2861111416925795 [Eh]
	 Correlation Energy        =      -1.6695628400994558 [Eh]
	 Total Energy              =    -385.7558506571035082 [Eh]

	 ================> DF-SCS-MP2 Energies <==================
	-----------------------------------------------------------
	 SCS Same-Spin Scale       =       0.3333333333333333 [-]
	 SCS Opposite-Spin Scale   =       1.2000000000000000 [-]
	 SCS Same-Spin Energy      =      -0.1278172328022921 [Eh]
	 SCS Opposite-Spin Energy  =      -1.5433333700310954 [Eh]
	 SCS Correlation Energy    =      -1.6711506028333873 [Eh]
	 SCS Total Energy          =    -385.7574384198374560 [Eh]
	-----------------------------------------------------------

  Dipole Moment: [D]
     X:    -0.6699      Y:     1.4927      Z:    -0.5858     Total:     1.7378

*** Psi4 exiting successfully. Buy a developer a beer!
