                               Psi4 1.3.2 release

  ==> Input File <==

--------------------------------------------------------------------------
#psi4
#
memory 32 gb

molecule  {
0 1
  O       -0.8946000     0.3180840    -0.2486650
  O        0.2608140    -1.4535000     0.5764690
  C        1.4621750     0.4213130    -0.3980820
  C        1.7977560     1.3797177     0.7495317
  C        2.6165010    -0.5169580    -0.7250520
  C        0.2444058    -0.3537629     0.0441688
  C       -2.1092640    -0.3317960     0.1925940
  C       -3.2536250     0.5656790    -0.2140850
  H        1.1864410     1.0054960    -1.2820320
  H        2.6888660     1.9907190     0.4595330
  H        2.0609350     0.8310830     1.6444090
  H        0.9859800     2.0639750     0.9510040
  H        3.4951390     0.0579210    -1.0318300
  H        2.3532220    -1.2022810    -1.5348280
  H        2.8748910    -1.1153660     0.1513080
  H       -2.1714740    -1.3192040    -0.2711440
  H       -2.0606790    -0.4764550     1.2759150
  H       -4.2047000     0.1215880     0.0924120
  H       -3.1592540     1.5451910     0.2586100
  H       -3.2661300     0.7008150    -1.2970470
units angstrom
no_reorient  #important for SAPT in psi4, default
symmetry c1  #important for SAPT in psi4, default
}

set PROPERTIES_ORIGIN ["COM"]
properties('MP2/aug-cc-pvtz', properties = ['dipole'])
--------------------------------------------------------------------------

    Molecular point group: c1
  Charge       = 0
  Multiplicity = 1
  Basis Set: AUG-CC-PVTZ
    Blend: AUG-CC-PVTZ
  Basis Set: (AUG-CC-PVTZ AUX)
    Blend: AUG-CC-PVTZ-JKFIT

    Orbital Energies [Eh]
    ---------------------

    Doubly Occupied:

       1A    -20.599804     2A    -20.539206     3A    -11.373087
       4A    -11.286663     5A    -11.245719     6A    -11.227274
       7A    -11.224093     8A    -11.217581     9A     -1.450183
      10A     -1.347947    11A     -1.094792    12A     -1.034839
      13A     -0.940117    14A     -0.894724    15A     -0.828208
      16A     -0.762330    17A     -0.699310    18A     -0.678015
      19A     -0.660881    20A     -0.620902    21A     -0.591265
      22A     -0.583012    23A     -0.555896    24A     -0.551708
      25A     -0.540342    26A     -0.518409    27A     -0.508782
      28A     -0.506017    29A     -0.492065    30A     -0.482033
      31A     -0.455246    32A     -0.433986

  @DF-RHF Final Energy:  -384.08477740179768

   => Energetics <=

    Nuclear Repulsion Energy =            396.0080567698933578
    One-Electron Energy =               -1308.2967920690691699
    Two-Electron Energy =                 528.2039578973781317
    Total Energy =                       -384.0847774017977372
  Basis Set: (AUG-CC-PVTZ AUX)
    Blend: AUG-CC-PVTZ-RI
    Molecular point group: c1

    Geometry (in Angstrom), charge = 0, multiplicity = 1:

       Center              X                  Y                   Z               Mass
    ------------   -----------------  -----------------  -----------------  -----------------
         O           -0.892423971515     0.317689405473    -0.252488495337    15.994914619570
         O            0.262990028485    -1.453894594527     0.572645504663    15.994914619570
         C            1.464351028485     0.420918405473    -0.401905495337    12.000000000000
         C            1.799932028485     1.379323105473     0.745708204663    12.000000000000
         C            2.618677028485    -0.517352594527    -0.728875495337    12.000000000000
         C            0.246581828485    -0.354157494527     0.040345304663    12.000000000000
         C           -2.107087971515    -0.332190594527     0.188770504663    12.000000000000
         C           -3.251448971515     0.565284405473    -0.217908495337    12.000000000000
         H            1.188617028485     1.005101405473    -1.285855495337     1.007825032230
         H            2.691042028485     1.990324405473     0.455709504663     1.007825032230
         H            2.063111028485     0.830688405473     1.640585504663     1.007825032230
         H            0.988156028485     2.063580405473     0.947180504663     1.007825032230
         H            3.497315028485     0.057526405473    -1.035653495337     1.007825032230
         H            2.355398028485    -1.202675594527    -1.538651495337     1.007825032230
         H            2.877067028485    -1.115760594527     0.147484504663     1.007825032230
         H           -2.169297971515    -1.319598594527    -0.274967495337     1.007825032230
         H           -2.058502971515    -0.476849594527     1.272091504663     1.007825032230
         H           -4.202523971515     0.121193405473     0.088588504663     1.007825032230
         H           -3.157077971515     1.544796405473     0.254786504663     1.007825032230
         H           -3.263953971515     0.700420405473    -1.300870495337     1.007825032230

  Basis Set: AUG-CC-PVTZ
    Blend: AUG-CC-PVTZ
  Basis Set: (AUG-CC-PVTZ AUX)
    Blend: AUG-CC-PVTZ-JKFIT
	 Reference Energy          =    -384.0847774017976803 [Eh]
	 Singles Energy            =      -0.0000000000000000 [Eh]
	 Same-Spin Energy          =      -0.3839336815049864 [Eh]
	 Opposite-Spin Energy      =      -1.2867043869360384 [Eh]
	 Correlation Energy        =      -1.6706380684410247 [Eh]
	 Total Energy              =    -385.7554154702386882 [Eh]

	 ================> DF-SCS-MP2 Energies <==================
	-----------------------------------------------------------
	 SCS Same-Spin Scale       =       0.3333333333333333 [-]
	 SCS Opposite-Spin Scale   =       1.2000000000000000 [-]
	 SCS Same-Spin Energy      =      -0.1279778938349954 [Eh]
	 SCS Opposite-Spin Energy  =      -1.5440452643232461 [Eh]
	 SCS Correlation Energy    =      -1.6720231581582414 [Eh]
	 SCS Total Energy          =    -385.7568005599559342 [Eh]
	-----------------------------------------------------------

  Dipole Moment: [D]
     X:    -0.7139      Y:     1.6102      Z:    -0.5955     Total:     1.8594

*** Psi4 exiting successfully. Buy a developer a beer!
