                               Psi4 1.3.2 release

  ==> Input File <==

--------------------------------------------------------------------------
#psi4
#
memory 32 gb

molecule  {
0 1
  O       -0.8946000     0.3180840    -0.2486650
  O        0.2608140    -1.4535000     0.5764690
  C        1.4621750     0.4213130    -0.3980820
  C        1.8184670     1.3890190     0.7353960
  C        2.6165010    -0.5169580    -0.7250520
  C        0.0767639    -0.2658940    -0.0184852
  C       -2.1092640    -0.3317960     0.1925940
  C       -3.2536250     0.5656790    -0.2140850
  H        1.1864410     1.0054960    -1.2820320
  H        2.6888660     1.9907190     0.4595330
  H        2.0609350     0.8310830     1.6444090
  H        0.9859800     2.0639750     0.9510040
  H        3.4951390     0.0579210    -1.0318300
  H        2.3532220    -1.2022810    -1.5348280
  H        2.8748910    -1.1153660     0.1513080
  H       -2.1714740    -1.3192040    -0.2711440
  H       -2.0606790    -0.4764550     1.2759150
  H       -4.2047000     0.1215880     0.0924120
  H       -3.1592540     1.5451910     0.2586100
  H       -3.2661300     0.7008150    -1.2970470
units angstrom
no_reorient  #important for SAPT in psi4, default
symmetry c1  #important for SAPT in psi4, default
}

set PROPERTIES_ORIGIN ["COM"]
properties('MP2/aug-cc-pvtz', properties = ['dipole'])
--------------------------------------------------------------------------

    Molecular point group: c1
  Charge       = 0
  Multiplicity = 1
  Basis Set: AUG-CC-PVTZ
    Blend: AUG-CC-PVTZ
  Basis Set: (AUG-CC-PVTZ AUX)
    Blend: AUG-CC-PVTZ-JKFIT

    Orbital Energies [Eh]
    ---------------------

    Doubly Occupied:

       1A    -20.648349     2A    -20.500611     3A    -11.369751
       4A    -11.312266     5A    -11.240848     6A    -11.240720
       7A    -11.219668     8A    -11.208038     9A     -1.562433
      10A     -1.271567    11A     -1.093411    12A     -1.057979
      13A     -0.930272    14A     -0.921675    15A     -0.828932
      16A     -0.809785    17A     -0.731462    18A     -0.692909
      19A     -0.667466    20A     -0.614636    21A     -0.605091
      22A     -0.570972    23A     -0.569191    24A     -0.553400
      25A     -0.540958    26A     -0.534505    27A     -0.515470
      28A     -0.485614    29A     -0.478102    30A     -0.473012
      31A     -0.421282    32A     -0.396557

  @DF-RHF Final Energy:  -384.02655634753984

   => Energetics <=

    Nuclear Repulsion Energy =            396.8123931011982677
    One-Electron Energy =               -1309.5440333790895693
    Two-Electron Energy =                 528.7050839303514067
    Total Energy =                       -384.0265563475398949
  Basis Set: (AUG-CC-PVTZ AUX)
    Blend: AUG-CC-PVTZ-RI
    Molecular point group: c1

    Geometry (in Angstrom), charge = 0, multiplicity = 1:

       Center              X                  Y                   Z               Mass
    ------------   -----------------  -----------------  -----------------  -----------------
         O           -0.877235186612     0.307644566254    -0.244550462996    15.994914619570
         O            0.278178813388    -1.463939433746     0.580583537004    15.994914619570
         C            1.479539813388     0.410873566254    -0.393967462996    12.000000000000
         C            1.835831813388     1.378579566254     0.739510537004    12.000000000000
         C            2.633865813388    -0.527397433746    -0.720937462996    12.000000000000
         C            0.094128713388    -0.276333433746    -0.014370662996    12.000000000000
         C           -2.091899186612    -0.342235433746     0.196708537004    12.000000000000
         C           -3.236260186612     0.555239566254    -0.209970462996    12.000000000000
         H            1.203805813388     0.995056566254    -1.277917462996     1.007825032230
         H            2.706230813388     1.980279566254     0.463647537004     1.007825032230
         H            2.078299813388     0.820643566254     1.648523537004     1.007825032230
         H            1.003344813388     2.053535566254     0.955118537004     1.007825032230
         H            3.512503813388     0.047481566254    -1.027715462996     1.007825032230
         H            2.370586813388    -1.212720433746    -1.530713462996     1.007825032230
         H            2.892255813388    -1.125805433746     0.155422537004     1.007825032230
         H           -2.154109186612    -1.329643433746    -0.267029462996     1.007825032230
         H           -2.043314186612    -0.486894433746     1.280029537004     1.007825032230
         H           -4.187335186612     0.111148566254     0.096526537004     1.007825032230
         H           -3.141889186612     1.534751566254     0.262724537004     1.007825032230
         H           -3.248765186612     0.690375566254    -1.292932462996     1.007825032230

  Basis Set: AUG-CC-PVTZ
    Blend: AUG-CC-PVTZ
  Basis Set: (AUG-CC-PVTZ AUX)
    Blend: AUG-CC-PVTZ-JKFIT
	 Reference Energy          =    -384.0265563475398380 [Eh]
	 Singles Energy            =      -0.0000000000000000 [Eh]
	 Same-Spin Energy          =      -0.3844800236734451 [Eh]
	 Opposite-Spin Energy      =      -1.2873868389227454 [Eh]
	 Correlation Energy        =      -1.6718668625961906 [Eh]
	 Total Energy              =    -385.6984232101360135 [Eh]

	 ================> DF-SCS-MP2 Energies <==================
	-----------------------------------------------------------
	 SCS Same-Spin Scale       =       0.3333333333333333 [-]
	 SCS Opposite-Spin Scale   =       1.2000000000000000 [-]
	 SCS Same-Spin Energy      =      -0.1281600078911483 [Eh]
	 SCS Opposite-Spin Energy  =      -1.5448642067072944 [Eh]
	 SCS Correlation Energy    =      -1.6730242145984429 [Eh]
	 SCS Total Energy          =    -385.6995805621382942 [Eh]
	-----------------------------------------------------------

  Dipole Moment: [D]
     X:    -2.3772      Y:     2.3383      Z:    -0.9364     Total:     3.4635

*** Psi4 exiting successfully. Buy a developer a beer!
