                               Psi4 1.3.2 release

  ==> Input File <==

--------------------------------------------------------------------------
#psi4
#
memory 32 gb

molecule  {
0 1
  O       -0.8946000     0.3180840    -0.2486650
  O        0.2608140    -1.4535000     0.5764690
  C        1.4621750     0.4213130    -0.3980820
  C        1.8184670     1.3890190     0.7353960
  C        2.6165010    -0.5169580    -0.7250520
  C        0.2182247    -0.3455763    -0.0189269
  C       -2.1092640    -0.3317960     0.1925940
  C       -3.2536250     0.5656790    -0.2140850
  H        1.1512884     0.9906366    -1.2800609
  H        2.6888660     1.9907190     0.4595330
  H        2.0609350     0.8310830     1.6444090
  H        0.9859800     2.0639750     0.9510040
  H        3.4951390     0.0579210    -1.0318300
  H        2.3532220    -1.2022810    -1.5348280
  H        2.8748910    -1.1153660     0.1513080
  H       -2.1714740    -1.3192040    -0.2711440
  H       -2.0606790    -0.4764550     1.2759150
  H       -4.2047000     0.1215880     0.0924120
  H       -3.1592540     1.5451910     0.2586100
  H       -3.2661300     0.7008150    -1.2970470
units angstrom
no_reorient  #important for SAPT in psi4, default
symmetry c1  #important for SAPT in psi4, default
}

set PROPERTIES_ORIGIN ["COM"]
properties('MP2/aug-cc-pvtz', properties = ['dipole'])
--------------------------------------------------------------------------

    Molecular point group: c1
  Charge       = 0
  Multiplicity = 1
  Basis Set: AUG-CC-PVTZ
    Blend: AUG-CC-PVTZ
  Basis Set: (AUG-CC-PVTZ AUX)
    Blend: AUG-CC-PVTZ-JKFIT

    Orbital Energies [Eh]
    ---------------------

    Doubly Occupied:

       1A    -20.609988     2A    -20.530221     3A    -11.374144
       4A    -11.291744     5A    -11.245329     6A    -11.227284
       7A    -11.227197     8A    -11.216233     9A     -1.462549
      10A     -1.328285    11A     -1.093920    12A     -1.041505
      13A     -0.938270    14A     -0.901590    15A     -0.831711
      16A     -0.770397    17A     -0.694544    18A     -0.682337
      19A     -0.660271    20A     -0.618269    21A     -0.591988
      22A     -0.581181    23A     -0.558381    24A     -0.551845
      25A     -0.543340    26A     -0.519479    27A     -0.506568
      28A     -0.503981    29A     -0.490829    30A     -0.480385
      31A     -0.449422    32A     -0.430977

  @DF-RHF Final Energy:  -384.08075293989270

   => Energetics <=

    Nuclear Repulsion Energy =            395.8653131531305007
    One-Electron Energy =               -1307.9838054411388839
    Two-Electron Energy =                 528.0377393481156787
    Total Energy =                       -384.0807529398927045
  Basis Set: (AUG-CC-PVTZ AUX)
    Blend: AUG-CC-PVTZ-RI
    Molecular point group: c1

    Geometry (in Angstrom), charge = 0, multiplicity = 1:

       Center              X                  Y                   Z               Mass
    ------------   -----------------  -----------------  -----------------  -----------------
         O           -0.891553316596     0.316010624774    -0.244521915704    15.994914619570
         O            0.263860683404    -1.455573375226     0.580612084296    15.994914619570
         C            1.465221683404     0.419239624774    -0.393938915704    12.000000000000
         C            1.821513683404     1.386945624774     0.739539084296    12.000000000000
         C            2.619547683404    -0.519031375226    -0.720908915704    12.000000000000
         C            0.221271383404    -0.347649675226    -0.014783815704    12.000000000000
         C           -2.106217316596    -0.333869375226     0.196737084296    12.000000000000
         C           -3.250578316596     0.563605624774    -0.209941915704    12.000000000000
         H            1.154335083404     0.988563224774    -1.275917815704     1.007825032230
         H            2.691912683404     1.988645624774     0.463676084296     1.007825032230
         H            2.063981683404     0.829009624774     1.648552084296     1.007825032230
         H            0.989026683404     2.061901624774     0.955147084296     1.007825032230
         H            3.498185683404     0.055847624774    -1.027686915704     1.007825032230
         H            2.356268683404    -1.204354375226    -1.530684915704     1.007825032230
         H            2.877937683404    -1.117439375226     0.155451084296     1.007825032230
         H           -2.168427316596    -1.321277375226    -0.267000915704     1.007825032230
         H           -2.057632316596    -0.478528375226     1.280058084296     1.007825032230
         H           -4.201653316596     0.119514624774     0.096555084296     1.007825032230
         H           -3.156207316596     1.543117624774     0.262753084296     1.007825032230
         H           -3.263083316596     0.698741624774    -1.292903915704     1.007825032230

  Basis Set: AUG-CC-PVTZ
    Blend: AUG-CC-PVTZ
  Basis Set: (AUG-CC-PVTZ AUX)
    Blend: AUG-CC-PVTZ-JKFIT
	 Reference Energy          =    -384.0807529398927045 [Eh]
	 Singles Energy            =      -0.0000000000000000 [Eh]
	 Same-Spin Energy          =      -0.3843109807059294 [Eh]
	 Opposite-Spin Energy      =      -1.2874143102482729 [Eh]
	 Correlation Energy        =      -1.6717252909542024 [Eh]
	 Total Energy              =    -385.7524782308469184 [Eh]

	 ================> DF-SCS-MP2 Energies <==================
	-----------------------------------------------------------
	 SCS Same-Spin Scale       =       0.3333333333333333 [-]
	 SCS Opposite-Spin Scale   =       1.2000000000000000 [-]
	 SCS Same-Spin Energy      =      -0.1281036602353098 [Eh]
	 SCS Opposite-Spin Energy  =      -1.5448971722979274 [Eh]
	 SCS Correlation Energy    =      -1.6730008325332373 [Eh]
	 SCS Total Energy          =    -385.7537537724259664 [Eh]
	-----------------------------------------------------------

  Dipole Moment: [D]
     X:    -1.0208      Y:     1.7969      Z:    -0.7093     Total:     2.1849

*** Psi4 exiting successfully. Buy a developer a beer!
