                               Psi4 1.4a3.dev225

  ==> Input File <==

--------------------------------------------------------------------------
#psi4
#
memory 32 gb

molecule  {
0 1
  O       -0.8844740     0.2512200    -0.2589860
  O        0.2594420    -1.5357810     0.5540110
  C        1.4751410     0.3499910    -0.3991000
  C        1.6489360     1.5420820     0.5503600
  C        2.7076510    -0.5454760    -0.4239080
  C        0.2527860    -0.4396860     0.0153880
  C       -2.0644540    -0.3846595     0.1402861
  C       -3.2437300     0.5134160    -0.2249800
  H        1.2747850     0.7394360    -1.4046030
  H        2.5199720     2.1341380     0.2549160
  H        1.8085970     1.1898350     1.5745190
  H        0.7675450     2.1869880     0.5363060
  H        3.5809030     0.0268420    -0.7502520
  H        2.5706130    -1.3892510    -1.1045820
  H        2.9042310    -0.9491700     0.5720060
  H       -2.1727950    -1.3769310    -0.3467220
  H       -2.0631380    -0.5911830     1.2316620
  H       -4.1987120     0.0656950     0.0643780
  H       -3.1432900     1.4757990     0.2814060
  H       -3.2533220     0.6866720    -1.3031500
units angstrom
no_reorient  #important for SAPT in psi4, default
symmetry c1  #important for SAPT in psi4, default
}

set PROPERTIES_ORIGIN ["COM"]
properties('MP2/aug-cc-pvtz', properties = ['dipole'])
--------------------------------------------------------------------------

    Molecular point group: c1
  Charge       = 0
  Multiplicity = 1
  Basis Set: AUG-CC-PVTZ
    Blend: AUG-CC-PVTZ
  Basis Set: (AUG-CC-PVTZ AUX)
    Blend: AUG-CC-PVTZ-JKFIT

    Orbital Energies [Eh]
    ---------------------

    Doubly Occupied:

       1A    -20.603927     2A    -20.544646     3A    -11.377632
       4A    -11.286033     5A    -11.248994     6A    -11.228472
       7A    -11.222765     8A    -11.217588     9A     -1.461228
      10A     -1.356156    11A     -1.095840    12A     -1.029348
      13A     -0.940006    14A     -0.899196    15A     -0.826312
      16A     -0.768393    17A     -0.701252    18A     -0.680650
      19A     -0.666813    20A     -0.623121    21A     -0.587109
      22A     -0.585246    23A     -0.557274    24A     -0.550527
      25A     -0.545423    26A     -0.519645    27A     -0.505016
      28A     -0.501772    29A     -0.490981    30A     -0.481654
      31A     -0.452020    32A     -0.439798

  @DF-RHF Final Energy:  -384.08415514271650

   => Energetics <=

    Nuclear Repulsion Energy =            396.5770055878483049
    One-Electron Energy =               -1309.3326498533938320
    Two-Electron Energy =                 528.6714891228290298
    Total Energy =                       -384.0841551427164404
  Basis Set: (AUG-CC-PVTZ AUX)
    Blend: AUG-CC-PVTZ-RI
    Molecular point group: c1

    Geometry (in Angstrom), charge = 0, multiplicity = 1:

       Center              X                  Y                   Z               Mass
    ------------   -----------------  -----------------  -----------------  -----------------
         O           -0.883773423471     0.284701929277    -0.260866133555    15.994914619570
         O            0.260142576529    -1.502299070723     0.552130866445    15.994914619570
         C            1.475841576529     0.383472929277    -0.400980133555    12.000000000000
         C            1.649636576529     1.575563929277     0.548479866445    12.000000000000
         C            2.708351576529    -0.511994070723    -0.425788133555    12.000000000000
         C            0.253486576529    -0.406204070723     0.013507866445    12.000000000000
         C           -2.063753423471    -0.351177570723     0.138405966445    12.000000000000
         C           -3.243029423471     0.546897929277    -0.226860133555    12.000000000000
         H            1.275485576529     0.772917929277    -1.406483133555     1.007825032230
         H            2.520672576529     2.167619929277     0.253035866445     1.007825032230
         H            1.809297576529     1.223316929277     1.572638866445     1.007825032230
         H            0.768245576529     2.220469929277     0.534425866445     1.007825032230
         H            3.581603576529     0.060323929277    -0.752132133555     1.007825032230
         H            2.571313576529    -1.355769070723    -1.106462133555     1.007825032230
         H            2.904931576529    -0.915688070723     0.570125866445     1.007825032230
         H           -2.172094423471    -1.343449070723    -0.348602133555     1.007825032230
         H           -2.062437423471    -0.557701070723     1.229781866445     1.007825032230
         H           -4.198011423471     0.099176929277     0.062497866445     1.007825032230
         H           -3.142589423471     1.509280929277     0.279525866445     1.007825032230
         H           -3.252621423471     0.720153929277    -1.305030133555     1.007825032230

  Basis Set: AUG-CC-PVTZ
    Blend: AUG-CC-PVTZ
  Basis Set: (AUG-CC-PVTZ AUX)
    Blend: AUG-CC-PVTZ-JKFIT
	 Reference Energy          =    -384.0841551427164973 [Eh]
	 Singles Energy            =      -0.0000000000000000 [Eh]
	 Same-Spin Energy          =      -0.3837807967865741 [Eh]
	 Opposite-Spin Energy      =      -1.2863013270991157 [Eh]
	 Correlation Energy        =      -1.6700821238856898 [Eh]
	 Total Energy              =    -385.7542372666021606 [Eh]

	 ================> DF-SCS-MP2 Energies <==================
	-----------------------------------------------------------
	 SCS Same-Spin Scale       =       0.3333333333333333 [-]
	 SCS Opposite-Spin Scale   =       1.2000000000000000 [-]
	 SCS Same-Spin Energy      =      -0.1279269322621914 [Eh]
	 SCS Opposite-Spin Energy  =      -1.5435615925189388 [Eh]
	 SCS Correlation Energy    =      -1.6714885247811302 [Eh]
	 SCS Total Energy          =    -385.7556436674976226 [Eh]
	-----------------------------------------------------------

  Dipole Moment: [D]
     X:    -0.4958      Y:     1.6379      Z:    -0.6569     Total:     1.8331

*** Psi4 exiting successfully. Buy a developer a beer!
