                               Psi4 1.4a3.dev225

  ==> Input File <==

--------------------------------------------------------------------------
#psi4
#
memory 32 gb

molecule  {
0 1
  O       -0.8844740     0.2512200    -0.2589860
  O        0.2594420    -1.5357810     0.5540110
  C        1.4751410     0.3499910    -0.3991000
  C        1.6489360     1.5420820     0.5503600
  C        2.7076510    -0.5454760    -0.4239080
  C        0.2946379    -0.4651118     0.0254851
  C       -2.1066380    -0.4073920     0.1545600
  C       -3.2437300     0.5134160    -0.2249800
  H        1.2747850     0.7394360    -1.4046030
  H        2.5199720     2.1341380     0.2549160
  H        1.8085970     1.1898350     1.5745190
  H        0.7675450     2.1869880     0.5363060
  H        3.5809030     0.0268420    -0.7502520
  H        2.5706130    -1.3892510    -1.1045820
  H        2.9042310    -0.9491700     0.5720060
  H       -2.1727950    -1.3769310    -0.3467220
  H       -2.0631380    -0.5911830     1.2316620
  H       -4.1987120     0.0656950     0.0643780
  H       -3.1432900     1.4757990     0.2814060
  H       -3.2533220     0.6866720    -1.3031500
units angstrom
no_reorient  #important for SAPT in psi4, default
symmetry c1  #important for SAPT in psi4, default
}

set PROPERTIES_ORIGIN ["COM"]
properties('MP2/aug-cc-pvtz', properties = ['dipole'])
--------------------------------------------------------------------------

    Molecular point group: c1
  Charge       = 0
  Multiplicity = 1
  Basis Set: AUG-CC-PVTZ
    Blend: AUG-CC-PVTZ
  Basis Set: (AUG-CC-PVTZ AUX)
    Blend: AUG-CC-PVTZ-JKFIT

    Orbital Energies [Eh]
    ---------------------

    Doubly Occupied:

       1A    -20.585616     2A    -20.550260     3A    -11.374631
       4A    -11.280806     5A    -11.248733     6A    -11.228672
       7A    -11.220351     8A    -11.218537     9A     -1.443039
      10A     -1.351778    11A     -1.097638    12A     -1.025868
      13A     -0.940862    14A     -0.891389    15A     -0.827193
      16A     -0.752303    17A     -0.701561    18A     -0.671732
      19A     -0.661993    20A     -0.624282    21A     -0.586976
      22A     -0.580464    23A     -0.554478    24A     -0.547619
      25A     -0.544418    26A     -0.521820    27A     -0.509451
      28A     -0.504557    29A     -0.491291    30A     -0.484963
      31A     -0.451905    32A     -0.439239

  @DF-RHF Final Energy:  -384.08292815030774

   => Energetics <=

    Nuclear Repulsion Energy =            395.6240549314114219
    One-Electron Energy =               -1307.5851119638823548
    Two-Electron Energy =                 527.8781288821633098
    Total Energy =                       -384.0829281503076800
  Basis Set: (AUG-CC-PVTZ AUX)
    Blend: AUG-CC-PVTZ-RI
    Molecular point group: c1

    Geometry (in Angstrom), charge = 0, multiplicity = 1:

       Center              X                  Y                   Z               Mass
    ------------   -----------------  -----------------  -----------------  -----------------
         O           -0.883739093078     0.289680229008    -0.263385453023    15.994914619570
         O            0.260176906922    -1.497320770992     0.549611546977    15.994914619570
         C            1.475875906922     0.388451229008    -0.403499453023    12.000000000000
         C            1.649670906922     1.580542229008     0.545960546977    12.000000000000
         C            2.708385906922    -0.507015770992    -0.428307453023    12.000000000000
         C            0.295372806922    -0.426651570992     0.021085646977    12.000000000000
         C           -2.105903093078    -0.368931770992     0.150160546977    12.000000000000
         C           -3.242995093078     0.551876229008    -0.229379453023    12.000000000000
         H            1.275519906922     0.777896229008    -1.409002453023     1.007825032230
         H            2.520706906922     2.172598229008     0.250516546977     1.007825032230
         H            1.809331906922     1.228295229008     1.570119546977     1.007825032230
         H            0.768279906922     2.225448229008     0.531906546977     1.007825032230
         H            3.581637906922     0.065302229008    -0.754651453023     1.007825032230
         H            2.571347906922    -1.350790770992    -1.108981453023     1.007825032230
         H            2.904965906922    -0.910709770992     0.567606546977     1.007825032230
         H           -2.172060093078    -1.338470770992    -0.351121453023     1.007825032230
         H           -2.062403093078    -0.552722770992     1.227262546977     1.007825032230
         H           -4.197977093078     0.104155229008     0.059978546977     1.007825032230
         H           -3.142555093078     1.514259229008     0.277006546977     1.007825032230
         H           -3.252587093078     0.725132229008    -1.307549453023     1.007825032230

  Basis Set: AUG-CC-PVTZ
    Blend: AUG-CC-PVTZ
  Basis Set: (AUG-CC-PVTZ AUX)
    Blend: AUG-CC-PVTZ-JKFIT
	 Reference Energy          =    -384.0829281503077368 [Eh]
	 Singles Energy            =      -0.0000000000000000 [Eh]
	 Same-Spin Energy          =      -0.3838794390387258 [Eh]
	 Opposite-Spin Energy      =      -1.2869876087832743 [Eh]
	 Correlation Energy        =      -1.6708670478220000 [Eh]
	 Total Energy              =    -385.7537951981297510 [Eh]

	 ================> DF-SCS-MP2 Energies <==================
	-----------------------------------------------------------
	 SCS Same-Spin Scale       =       0.3333333333333333 [-]
	 SCS Opposite-Spin Scale   =       1.2000000000000000 [-]
	 SCS Same-Spin Energy      =      -0.1279598130129086 [Eh]
	 SCS Opposite-Spin Energy  =      -1.5443851305399292 [Eh]
	 SCS Correlation Energy    =      -1.6723449435528377 [Eh]
	 SCS Total Energy          =    -385.7552730938605805 [Eh]
	-----------------------------------------------------------

  Dipole Moment: [D]
     X:    -0.2884      Y:     1.4320      Z:    -0.5543     Total:     1.5624

*** Psi4 exiting successfully. Buy a developer a beer!
