                               Psi4 1.4a3.dev225

  ==> Input File <==

--------------------------------------------------------------------------
#psi4
#
memory 32 gb

molecule  {
0 1
  O       -0.8844740     0.2512200    -0.2589860
  O        0.2594420    -1.5357810     0.5540110
  C        1.4751410     0.3499910    -0.3991000
  C        1.6489360     1.5420820     0.5503600
  C        2.7076510    -0.5454760    -0.4239080
  C        0.2931778    -0.4135917     0.0016916
  C       -2.1066380    -0.4073920     0.1545600
  C       -3.2437300     0.5134160    -0.2249800
  H        1.2747850     0.7394360    -1.4046030
  H        2.5199720     2.1341380     0.2549160
  H        1.8085970     1.1898350     1.5745190
  H        0.7675450     2.1869880     0.5363060
  H        3.5809030     0.0268420    -0.7502520
  H        2.5706130    -1.3892510    -1.1045820
  H        2.9042310    -0.9491700     0.5720060
  H       -2.1727950    -1.3769310    -0.3467220
  H       -2.0631380    -0.5911830     1.2316620
  H       -4.1987120     0.0656950     0.0643780
  H       -3.1432900     1.4757990     0.2814060
  H       -3.2533220     0.6866720    -1.3031500
units angstrom
no_reorient  #important for SAPT in psi4, default
symmetry c1  #important for SAPT in psi4, default
}

set PROPERTIES_ORIGIN ["COM"]
properties('MP2/aug-cc-pvtz', properties = ['dipole'])
--------------------------------------------------------------------------

    Molecular point group: c1
  Charge       = 0
  Multiplicity = 1
  Basis Set: AUG-CC-PVTZ
    Blend: AUG-CC-PVTZ
  Basis Set: (AUG-CC-PVTZ AUX)
    Blend: AUG-CC-PVTZ-JKFIT

    Orbital Energies [Eh]
    ---------------------

    Doubly Occupied:

       1A    -20.594655     2A    -20.539141     3A    -11.378755
       4A    -11.284968     5A    -11.249019     6A    -11.231040
       7A    -11.222872     8A    -11.219307     9A     -1.435971
      10A     -1.330190    11A     -1.104139    12A     -1.031497
      13A     -0.942214    14A     -0.900181    15A     -0.832866
      16A     -0.756361    17A     -0.699821    18A     -0.671744
      19A     -0.656556    20A     -0.623421    21A     -0.585724
      22A     -0.579565    23A     -0.555645    24A     -0.548898
      25A     -0.545198    26A     -0.518479    27A     -0.506670
      28A     -0.504310    29A     -0.492344    30A     -0.480003
      31A     -0.448666    32A     -0.440405

  @DF-RHF Final Energy:  -384.07811824800643

   => Energetics <=

    Nuclear Repulsion Energy =            395.5584602017069074
    One-Electron Energy =               -1307.4519035001733300
    Two-Electron Energy =                 527.8153250504600464
    Total Energy =                       -384.0781182480063762
  Basis Set: (AUG-CC-PVTZ AUX)
    Blend: AUG-CC-PVTZ-RI
    Molecular point group: c1

    Geometry (in Angstrom), charge = 0, multiplicity = 1:

       Center              X                  Y                   Z               Mass
    ------------   -----------------  -----------------  -----------------  -----------------
         O           -0.883588157197     0.284354407707    -0.260925831843    15.994914619570
         O            0.260327842803    -1.502646592293     0.552071168157    15.994914619570
         C            1.476026842803     0.383125407707    -0.401039831843    12.000000000000
         C            1.649821842803     1.575216407707     0.548420168157    12.000000000000
         C            2.708536842803    -0.512341592293    -0.425847831843    12.000000000000
         C            0.294063642803    -0.380457292293    -0.000248231843    12.000000000000
         C           -2.105752157197    -0.374257592293     0.152620168157    12.000000000000
         C           -3.242844157197     0.546550407707    -0.226919831843    12.000000000000
         H            1.275670842803     0.772570407707    -1.406542831843     1.007825032230
         H            2.520857842803     2.167272407707     0.252976168157     1.007825032230
         H            1.809482842803     1.222969407707     1.572579168157     1.007825032230
         H            0.768430842803     2.220122407707     0.534366168157     1.007825032230
         H            3.581788842803     0.059976407707    -0.752191831843     1.007825032230
         H            2.571498842803    -1.356116592293    -1.106521831843     1.007825032230
         H            2.905116842803    -0.916035592293     0.570066168157     1.007825032230
         H           -2.171909157197    -1.343796592293    -0.348661831843     1.007825032230
         H           -2.062252157197    -0.558048592293     1.229722168157     1.007825032230
         H           -4.197826157197     0.098829407707     0.062438168157     1.007825032230
         H           -3.142404157197     1.508933407707     0.279466168157     1.007825032230
         H           -3.252436157197     0.719806407707    -1.305089831843     1.007825032230

  Basis Set: AUG-CC-PVTZ
    Blend: AUG-CC-PVTZ
  Basis Set: (AUG-CC-PVTZ AUX)
    Blend: AUG-CC-PVTZ-JKFIT
	 Reference Energy          =    -384.0781182480064331 [Eh]
	 Singles Energy            =      -0.0000000000000000 [Eh]
	 Same-Spin Energy          =      -0.3850128566978515 [Eh]
	 Opposite-Spin Energy      =      -1.2889680072323697 [Eh]
	 Correlation Energy        =      -1.6739808639302212 [Eh]
	 Total Energy              =    -385.7520991119366727 [Eh]

	 ================> DF-SCS-MP2 Energies <==================
	-----------------------------------------------------------
	 SCS Same-Spin Scale       =       0.3333333333333333 [-]
	 SCS Opposite-Spin Scale   =       1.2000000000000000 [-]
	 SCS Same-Spin Energy      =      -0.1283376188992838 [Eh]
	 SCS Opposite-Spin Energy  =      -1.5467616086788436 [Eh]
	 SCS Correlation Energy    =      -1.6750992275781273 [Eh]
	 SCS Total Energy          =    -385.7532174755845631 [Eh]
	-----------------------------------------------------------

  Dipole Moment: [D]
     X:    -0.4512      Y:     1.7483      Z:    -0.6825     Total:     1.9303

*** Psi4 exiting successfully. Buy a developer a beer!
