                               Psi4 1.3.2 release

  ==> Input File <==

--------------------------------------------------------------------------
#psi4
#
memory 32 gb

molecule  {
0 1
  O       -0.8946000     0.3180840    -0.2486650
  O        0.2608140    -1.4535000     0.5764690
  C        1.4621750     0.4213130    -0.3980820
  C        1.8184670     1.3890190     0.7353960
  C        2.6165010    -0.5169580    -0.7250520
  C        0.2573081    -0.3495756     0.0111642
  C       -2.1226703    -0.3124528     0.1834564
  C       -3.2536250     0.5656790    -0.2140850
  H        1.1864410     1.0054960    -1.2820320
  H        2.6888660     1.9907190     0.4595330
  H        2.0609350     0.8310830     1.6444090
  H        0.9859800     2.0639750     0.9510040
  H        3.4951390     0.0579210    -1.0318300
  H        2.3532220    -1.2022810    -1.5348280
  H        2.8748910    -1.1153660     0.1513080
  H       -2.1714740    -1.3192040    -0.2711440
  H       -2.0606790    -0.4764550     1.2759150
  H       -4.2047000     0.1215880     0.0924120
  H       -3.1592540     1.5451910     0.2586100
  H       -3.2661300     0.7008150    -1.2970470
units angstrom
no_reorient  #important for SAPT in psi4, default
symmetry c1  #important for SAPT in psi4, default
}

set PROPERTIES_ORIGIN ["COM"]
properties('MP2/aug-cc-pvtz', properties = ['dipole'])
--------------------------------------------------------------------------

    Molecular point group: c1
  Charge       = 0
  Multiplicity = 1
  Basis Set: AUG-CC-PVTZ
    Blend: AUG-CC-PVTZ
  Basis Set: (AUG-CC-PVTZ AUX)
    Blend: AUG-CC-PVTZ-JKFIT

    Orbital Energies [Eh]
    ---------------------

    Doubly Occupied:

       1A    -20.599016     2A    -20.537126     3A    -11.375763
       4A    -11.287805     5A    -11.246478     6A    -11.228810
       7A    -11.223648     8A    -11.218345     9A     -1.445432
      10A     -1.337370    11A     -1.098962    12A     -1.039904
      13A     -0.940741    14A     -0.899079    15A     -0.828705
      16A     -0.760844    17A     -0.699307    18A     -0.675094
      19A     -0.657595    20A     -0.619859    21A     -0.591291
      22A     -0.583565    23A     -0.557530    24A     -0.551240
      25A     -0.545076    26A     -0.522314    27A     -0.507186
      28A     -0.502257    29A     -0.490819    30A     -0.478968
      31A     -0.449340    32A     -0.437523

  @DF-RHF Final Energy:  -384.08212218284109

   => Energetics <=

    Nuclear Repulsion Energy =            395.7628954323827202
    One-Electron Energy =               -1307.8160535655645162
    Two-Electron Energy =                 527.9710359503407062
    Total Energy =                       -384.0821221828410899
  Basis Set: (AUG-CC-PVTZ AUX)
    Blend: AUG-CC-PVTZ-RI
    Molecular point group: c1

    Geometry (in Angstrom), charge = 0, multiplicity = 1:

       Center              X                  Y                   Z               Mass
    ------------   -----------------  -----------------  -----------------  -----------------
         O           -0.894512843063     0.314295462142    -0.246670842836    15.994914619570
         O            0.260901156937    -1.457288537858     0.578463157164    15.994914619570
         C            1.462262156937     0.417524462142    -0.396087842836    12.000000000000
         C            1.818554156937     1.385230462142     0.737390157164    12.000000000000
         C            2.616588156937    -0.520746537858    -0.723057842836    12.000000000000
         C            0.257395256937    -0.353364137858     0.013158357164    12.000000000000
         C           -2.122583143063    -0.316241337858     0.185450557164    12.000000000000
         C           -3.253537843063     0.561890462142    -0.212090842836    12.000000000000
         H            1.186528156937     1.001707462142    -1.280037842836     1.007825032230
         H            2.688953156937     1.986930462142     0.461527157164     1.007825032230
         H            2.061022156937     0.827294462142     1.646403157164     1.007825032230
         H            0.986067156937     2.060186462142     0.952998157164     1.007825032230
         H            3.495226156937     0.054132462142    -1.029835842836     1.007825032230
         H            2.353309156937    -1.206069537858    -1.532833842836     1.007825032230
         H            2.874978156937    -1.119154537858     0.153302157164     1.007825032230
         H           -2.171386843063    -1.322992537858    -0.269149842836     1.007825032230
         H           -2.060591843063    -0.480243537858     1.277909157164     1.007825032230
         H           -4.204612843063     0.117799462142     0.094406157164     1.007825032230
         H           -3.159166843063     1.541402462142     0.260604157164     1.007825032230
         H           -3.266042843063     0.697026462142    -1.295052842836     1.007825032230

  Basis Set: AUG-CC-PVTZ
    Blend: AUG-CC-PVTZ
  Basis Set: (AUG-CC-PVTZ AUX)
    Blend: AUG-CC-PVTZ-JKFIT
	 Reference Energy          =    -384.0821221828410899 [Eh]
	 Singles Energy            =      -0.0000000000000000 [Eh]
	 Same-Spin Energy          =      -0.3845780843585557 [Eh]
	 Opposite-Spin Energy      =      -1.2877336865829054 [Eh]
	 Correlation Energy        =      -1.6723117709414610 [Eh]
	 Total Energy              =    -385.7544339537825522 [Eh]

	 ================> DF-SCS-MP2 Energies <==================
	-----------------------------------------------------------
	 SCS Same-Spin Scale       =       0.3333333333333333 [-]
	 SCS Opposite-Spin Scale   =       1.2000000000000000 [-]
	 SCS Same-Spin Energy      =      -0.1281926947861852 [Eh]
	 SCS Opposite-Spin Energy  =      -1.5452804238994864 [Eh]
	 SCS Correlation Energy    =      -1.6734731186856715 [Eh]
	 SCS Total Energy          =    -385.7555953015267391 [Eh]
	-----------------------------------------------------------

  Dipole Moment: [D]
     X:    -0.6853      Y:     1.7236      Z:    -0.6622     Total:     1.9695

*** Psi4 exiting successfully. Buy a developer a beer!
