                               Psi4 1.3.2 release

  ==> Input File <==

--------------------------------------------------------------------------
#psi4
#
memory 32 gb

molecule  {
0 1
  O       -0.8547657     0.3692287    -0.2776690
  O        0.3245267    -1.4530913     0.5717482
  C        1.4621750     0.4213130    -0.3980820
  C        1.8184670     1.3890190     0.7353960
  C        2.6165010    -0.5169580    -0.7250520
  C        0.2447430    -0.3668820     0.0213200
  C       -2.1092640    -0.3317960     0.1925940
  C       -3.2536250     0.5656790    -0.2140850
  H        1.1864410     1.0054960    -1.2820320
  H        2.6888660     1.9907190     0.4595330
  H        2.0609350     0.8310830     1.6444090
  H        0.9859800     2.0639750     0.9510040
  H        3.4951390     0.0579210    -1.0318300
  H        2.3532220    -1.2022810    -1.5348280
  H        2.8748910    -1.1153660     0.1513080
  H       -2.1714740    -1.3192040    -0.2711440
  H       -2.0606790    -0.4764550     1.2759150
  H       -4.2047000     0.1215880     0.0924120
  H       -3.1592540     1.5451910     0.2586100
  H       -3.2661300     0.7008150    -1.2970470
units angstrom
no_reorient  #important for SAPT in psi4, default
symmetry c1  #important for SAPT in psi4, default
}

set PROPERTIES_ORIGIN ["COM"]
properties('MP2/aug-cc-pvtz', properties = ['dipole'])
--------------------------------------------------------------------------

    Molecular point group: c1
  Charge       = 0
  Multiplicity = 1
  Basis Set: AUG-CC-PVTZ
    Blend: AUG-CC-PVTZ
  Basis Set: (AUG-CC-PVTZ AUX)
    Blend: AUG-CC-PVTZ-JKFIT

    Orbital Energies [Eh]
    ---------------------

    Doubly Occupied:

       1A    -20.606257     2A    -20.541965     3A    -11.372133
       4A    -11.296684     5A    -11.237344     6A    -11.228459
       7A    -11.223120     8A    -11.212107     9A     -1.440633
      10A     -1.350046    11A     -1.088300    12A     -1.037223
      13A     -0.934915    14A     -0.888970    15A     -0.830798
      16A     -0.756262    17A     -0.694523    18A     -0.674041
      19A     -0.659203    20A     -0.616890    21A     -0.592306
      22A     -0.580748    23A     -0.556072    24A     -0.547527
      25A     -0.541610    26A     -0.524480    27A     -0.511137
      28A     -0.507405    29A     -0.484487    30A     -0.477666
      31A     -0.462206    32A     -0.430247

  @DF-RHF Final Energy:  -384.07731233181090

   => Energetics <=

    Nuclear Repulsion Energy =            394.9592867136211680
    One-Electron Energy =               -1306.2616726215935614
    Two-Electron Energy =                 527.2250735761615488
    Total Energy =                       -384.0773123318108446
  Basis Set: (AUG-CC-PVTZ AUX)
    Blend: AUG-CC-PVTZ-RI
    Molecular point group: c1

    Geometry (in Angstrom), charge = 0, multiplicity = 1:

       Center              X                  Y                   Z               Mass
    ------------   -----------------  -----------------  -----------------  -----------------
         O           -0.869033007978     0.362125339017    -0.273022408273    15.994914619570
         O            0.310259392022    -1.460194660983     0.576394791727    15.994914619570
         C            1.447907692022     0.414209639017    -0.393435408273    12.000000000000
         C            1.804199692022     1.381915639017     0.740042591727    12.000000000000
         C            2.602233692022    -0.524061360983    -0.720405408273    12.000000000000
         C            0.230475692022    -0.373985360983     0.025966591727    12.000000000000
         C           -2.123531307978    -0.338899360983     0.197240591727    12.000000000000
         C           -3.267892307978     0.558575639017    -0.209438408273    12.000000000000
         H            1.172173692022     0.998392639017    -1.277385408273     1.007825032230
         H            2.674598692022     1.983615639017     0.464179591727     1.007825032230
         H            2.046667692022     0.823979639017     1.649055591727     1.007825032230
         H            0.971712692022     2.056871639017     0.955650591727     1.007825032230
         H            3.480871692022     0.050817639017    -1.027183408273     1.007825032230
         H            2.338954692022    -1.209384360983    -1.530181408273     1.007825032230
         H            2.860623692022    -1.122469360983     0.155954591727     1.007825032230
         H           -2.185741307978    -1.326307360983    -0.266497408273     1.007825032230
         H           -2.074946307978    -0.483558360983     1.280561591727     1.007825032230
         H           -4.218967307978     0.114484639017     0.097058591727     1.007825032230
         H           -3.173521307978     1.538087639017     0.263256591727     1.007825032230
         H           -3.280397307978     0.693711639017    -1.292400408273     1.007825032230

  Basis Set: AUG-CC-PVTZ
    Blend: AUG-CC-PVTZ
  Basis Set: (AUG-CC-PVTZ AUX)
    Blend: AUG-CC-PVTZ-JKFIT
	 Reference Energy          =    -384.0773123318109015 [Eh]
	 Singles Energy            =      -0.0000000000000000 [Eh]
	 Same-Spin Energy          =      -0.3846767182688056 [Eh]
	 Opposite-Spin Energy      =      -1.2892646531121830 [Eh]
	 Correlation Energy        =      -1.6739413713809885 [Eh]
	 Total Energy              =    -385.7512537031918782 [Eh]

	 ================> DF-SCS-MP2 Energies <==================
	-----------------------------------------------------------
	 SCS Same-Spin Scale       =       0.3333333333333333 [-]
	 SCS Opposite-Spin Scale   =       1.2000000000000000 [-]
	 SCS Same-Spin Energy      =      -0.1282255727562685 [Eh]
	 SCS Opposite-Spin Energy  =      -1.5471175837346196 [Eh]
	 SCS Correlation Energy    =      -1.6753431564908881 [Eh]
	 SCS Total Energy          =    -385.7526554883017980 [Eh]
	-----------------------------------------------------------

  Dipole Moment: [D]
     X:    -1.1933      Y:     1.4581      Z:    -0.5206     Total:     1.9547

*** Psi4 exiting successfully. Buy a developer a beer!
