                               Psi4 1.3.2 release

  ==> Input File <==

--------------------------------------------------------------------------
#psi4
#
memory 32 gb

molecule  {
0 1
  O       -0.9084019     0.3370489    -0.2580043
  O        0.2608140    -1.4535000     0.5764690
  C        1.4621750     0.4213130    -0.3980820
  C        1.8184670     1.3890190     0.7353960
  C        2.6165010    -0.5169580    -0.7250520
  C        0.2447430    -0.3668820     0.0213200
  C       -2.1092640    -0.3317960     0.1925940
  C       -3.2363348     0.5825993    -0.2245439
  H        1.1864410     1.0054960    -1.2820320
  H        2.6888660     1.9907190     0.4595330
  H        2.0609350     0.8310830     1.6444090
  H        0.9859800     2.0639750     0.9510040
  H        3.4951390     0.0579210    -1.0318300
  H        2.3532220    -1.2022810    -1.5348280
  H        2.8748910    -1.1153660     0.1513080
  H       -2.1714740    -1.3192040    -0.2711440
  H       -2.0606790    -0.4764550     1.2759150
  H       -4.2047000     0.1215880     0.0924120
  H       -3.1592540     1.5451910     0.2586100
  H       -3.2661300     0.7008150    -1.2970470
units angstrom
no_reorient  #important for SAPT in psi4, default
symmetry c1  #important for SAPT in psi4, default
}

set PROPERTIES_ORIGIN ["COM"]
properties('MP2/aug-cc-pvtz', properties = ['dipole'])
--------------------------------------------------------------------------

    Molecular point group: c1
  Charge       = 0
  Multiplicity = 1
  Basis Set: AUG-CC-PVTZ
    Blend: AUG-CC-PVTZ
  Basis Set: (AUG-CC-PVTZ AUX)
    Blend: AUG-CC-PVTZ-JKFIT

    Orbital Energies [Eh]
    ---------------------

    Doubly Occupied:

       1A    -20.598368     2A    -20.544890     3A    -11.376472
       4A    -11.284948     5A    -11.246512     6A    -11.227708
       7A    -11.222311     8A    -11.217943     9A     -1.443384
      10A     -1.350312    11A     -1.094672    12A     -1.031620
      13A     -0.939951    14A     -0.892358    15A     -0.828893
      16A     -0.759048    17A     -0.699495    18A     -0.676234
      19A     -0.660136    20A     -0.620234    21A     -0.591330
      22A     -0.583697    23A     -0.554160    24A     -0.545656
      25A     -0.540674    26A     -0.519074    27A     -0.512695
      28A     -0.508498    29A     -0.489594    30A     -0.481894
      31A     -0.456792    32A     -0.436437

  @DF-RHF Final Energy:  -384.08258221904134

   => Energetics <=

    Nuclear Repulsion Energy =            395.4246020208753407
    One-Electron Energy =               -1307.1423875426273753
    Two-Electron Energy =                 527.6352033027106927
    Total Energy =                       -384.0825822190413419
  Basis Set: (AUG-CC-PVTZ AUX)
    Blend: AUG-CC-PVTZ-RI
    Molecular point group: c1

    Geometry (in Angstrom), charge = 0, multiplicity = 1:

       Center              X                  Y                   Z               Mass
    ------------   -----------------  -----------------  -----------------  -----------------
         O           -0.908287319650     0.332686721404    -0.255636556406    15.994914619570
         O            0.260928580350    -1.457862178596     0.578836743594    15.994914619570
         C            1.462289580350     0.416950821404    -0.395714256406    12.000000000000
         C            1.818581580350     1.384656821404     0.737763743594    12.000000000000
         C            2.616615580350    -0.521320178596    -0.722684256406    12.000000000000
         C            0.244857580350    -0.371244178596     0.023687743594    12.000000000000
         C           -2.109149419650    -0.336158178596     0.194961743594    12.000000000000
         C           -3.236220219650     0.578237121404    -0.222176156406    12.000000000000
         H            1.186555580350     1.001133821404    -1.279664256406     1.007825032230
         H            2.688980580350     1.986356821404     0.461900743594     1.007825032230
         H            2.061049580350     0.826720821404     1.646776743594     1.007825032230
         H            0.986094580350     2.059612821404     0.953371743594     1.007825032230
         H            3.495253580350     0.053558821404    -1.029462256406     1.007825032230
         H            2.353336580350    -1.206643178596    -1.532460256406     1.007825032230
         H            2.875005580350    -1.119728178596     0.153675743594     1.007825032230
         H           -2.171359419650    -1.323566178596    -0.268776256406     1.007825032230
         H           -2.060564419650    -0.480817178596     1.278282743594     1.007825032230
         H           -4.204585419650     0.117225821404     0.094779743594     1.007825032230
         H           -3.159139419650     1.540828821404     0.260977743594     1.007825032230
         H           -3.266015419650     0.696452821404    -1.294679256406     1.007825032230

  Basis Set: AUG-CC-PVTZ
    Blend: AUG-CC-PVTZ
  Basis Set: (AUG-CC-PVTZ AUX)
    Blend: AUG-CC-PVTZ-JKFIT
	 Reference Energy          =    -384.0825822190413419 [Eh]
	 Singles Energy            =      -0.0000000000000000 [Eh]
	 Same-Spin Energy          =      -0.3843029429946628 [Eh]
	 Opposite-Spin Energy      =      -1.2878417520217136 [Eh]
	 Correlation Energy        =      -1.6721446950163763 [Eh]
	 Total Energy              =    -385.7547269140576987 [Eh]

	 ================> DF-SCS-MP2 Energies <==================
	-----------------------------------------------------------
	 SCS Same-Spin Scale       =       0.3333333333333333 [-]
	 SCS Opposite-Spin Scale   =       1.2000000000000000 [-]
	 SCS Same-Spin Energy      =      -0.1281009809982209 [Eh]
	 SCS Opposite-Spin Energy  =      -1.5454101024260563 [Eh]
	 SCS Correlation Energy    =      -1.6735110834242772 [Eh]
	 SCS Total Energy          =    -385.7560933024656151 [Eh]
	-----------------------------------------------------------

  Dipole Moment: [D]
     X:    -0.5585      Y:     1.5231      Z:    -0.5783     Total:     1.7222

*** Psi4 exiting successfully. Buy a developer a beer!
