                               Psi4 1.4a3.dev225

  ==> Input File <==

--------------------------------------------------------------------------
#psi4
#
memory 32 gb

molecule  {
0 1
  O       -0.8844740     0.2512200    -0.2589860
  O        0.2594420    -1.5357810     0.5540110
  C        1.4751410     0.3499910    -0.3991000
  C        1.6489360     1.5420820     0.5503600
  C        2.7076510    -0.5454760    -0.4239080
  C        0.2695267    -0.4498563     0.0194269
  C       -2.1066380    -0.4073920     0.1545600
  C       -3.2437300     0.5134160    -0.2249800
  H        1.2747850     0.7394360    -1.4046030
  H        2.5199720     2.1341380     0.2549160
  H        1.8085970     1.1898350     1.5745190
  H        0.7675450     2.1869880     0.5363060
  H        3.5809030     0.0268420    -0.7502520
  H        2.5706130    -1.3892510    -1.1045820
  H        2.9042310    -0.9491700     0.5720060
  H       -2.1727950    -1.3769310    -0.3467220
  H       -2.0631380    -0.5911830     1.2316620
  H       -4.1987120     0.0656950     0.0643780
  H       -3.1432900     1.4757990     0.2814060
  H       -3.2533220     0.6866720    -1.3031500
units angstrom
no_reorient  #important for SAPT in psi4, default
symmetry c1  #important for SAPT in psi4, default
}

set PROPERTIES_ORIGIN ["COM"]
properties('MP2/aug-cc-pvtz', properties = ['dipole'])
--------------------------------------------------------------------------

    Molecular point group: c1
  Charge       = 0
  Multiplicity = 1
  Basis Set: AUG-CC-PVTZ
    Blend: AUG-CC-PVTZ
  Basis Set: (AUG-CC-PVTZ AUX)
    Blend: AUG-CC-PVTZ-JKFIT

    Orbital Energies [Eh]
    ---------------------

    Doubly Occupied:

       1A    -20.593445     2A    -20.544842     3A    -11.374369
       4A    -11.284515     5A    -11.247604     6A    -11.227617
       7A    -11.222768     8A    -11.217066     9A     -1.444576
      10A     -1.351169    11A     -1.094977    12A     -1.030631
      13A     -0.939375    14A     -0.892939    15A     -0.828469
      16A     -0.757376    17A     -0.699055    18A     -0.674417
      19A     -0.661990    20A     -0.622850    21A     -0.586331
      22A     -0.581627    23A     -0.555665    24A     -0.547791
      25A     -0.544617    26A     -0.519639    27A     -0.508433
      28A     -0.506411    29A     -0.490446    30A     -0.482484
      31A     -0.454511    32A     -0.438051

  @DF-RHF Final Energy:  -384.08517426452261

   => Energetics <=

    Nuclear Repulsion Energy =            395.6967462523982704
    One-Electron Energy =               -1307.7117329719435475
    Two-Electron Energy =                 527.9298124550226703
    Total Energy =                       -384.0851742645226068
  Basis Set: (AUG-CC-PVTZ AUX)
    Blend: AUG-CC-PVTZ-RI
    Molecular point group: c1

    Geometry (in Angstrom), charge = 0, multiplicity = 1:

       Center              X                  Y                   Z               Mass
    ------------   -----------------  -----------------  -----------------  -----------------
         O           -0.881143256427     0.288103212138    -0.262759194716    15.994914619570
         O            0.262772743573    -1.498897787862     0.550237805284    15.994914619570
         C            1.478471743573     0.386874212138    -0.402873194716    12.000000000000
         C            1.652266743573     1.578965212138     0.546586805284    12.000000000000
         C            2.710981743573    -0.508592787862    -0.427681194716    12.000000000000
         C            0.272857443573    -0.412973087862     0.015653705284    12.000000000000
         C           -2.103307256427    -0.370508787862     0.150786805284    12.000000000000
         C           -3.240399256427     0.550299212138    -0.228753194716    12.000000000000
         H            1.278115743573     0.776319212138    -1.408376194716     1.007825032230
         H            2.523302743573     2.171021212138     0.251142805284     1.007825032230
         H            1.811927743573     1.226718212138     1.570745805284     1.007825032230
         H            0.770875743573     2.223871212138     0.532532805284     1.007825032230
         H            3.584233743573     0.063725212138    -0.754025194716     1.007825032230
         H            2.573943743573    -1.352367787862    -1.108355194716     1.007825032230
         H            2.907561743573    -0.912286787862     0.568232805284     1.007825032230
         H           -2.169464256427    -1.340047787862    -0.350495194716     1.007825032230
         H           -2.059807256427    -0.554299787862     1.227888805284     1.007825032230
         H           -4.195381256427     0.102578212138     0.060604805284     1.007825032230
         H           -3.139959256427     1.512682212138     0.277632805284     1.007825032230
         H           -3.249991256427     0.723555212138    -1.306923194716     1.007825032230

  Basis Set: AUG-CC-PVTZ
    Blend: AUG-CC-PVTZ
  Basis Set: (AUG-CC-PVTZ AUX)
    Blend: AUG-CC-PVTZ-JKFIT
	 Reference Energy          =    -384.0851742645226068 [Eh]
	 Singles Energy            =      -0.0000000000000000 [Eh]
	 Same-Spin Energy          =      -0.3838229172068325 [Eh]
	 Opposite-Spin Energy      =      -1.2868093941083263 [Eh]
	 Correlation Energy        =      -1.6706323113151589 [Eh]
	 Total Energy              =    -385.7558065758377666 [Eh]

	 ================> DF-SCS-MP2 Energies <==================
	-----------------------------------------------------------
	 SCS Same-Spin Scale       =       0.3333333333333333 [-]
	 SCS Opposite-Spin Scale   =       1.2000000000000000 [-]
	 SCS Same-Spin Energy      =      -0.1279409724022775 [Eh]
	 SCS Opposite-Spin Energy  =      -1.5441712729299915 [Eh]
	 SCS Correlation Energy    =      -1.6721122453322690 [Eh]
	 SCS Total Energy          =    -385.7572865098548505 [Eh]
	-----------------------------------------------------------

  Dipole Moment: [D]
     X:    -0.5501      Y:     1.5368      Z:    -0.6013     Total:     1.7395

*** Psi4 exiting successfully. Buy a developer a beer!
