                               Psi4 1.3.2 release

  ==> Input File <==

--------------------------------------------------------------------------
#psi4
#
memory 32 gb

molecule  {
0 1
  O       -0.8946000     0.3180840    -0.2486650
  O        0.2608140    -1.4535000     0.5764690
  C        1.4621750     0.4213130    -0.3980820
  C        1.8184670     1.3890190     0.7353960
  C        2.6165010    -0.5169580    -0.7250520
  C        0.2421091    -0.1887950    -0.0696640
  C       -2.1092640    -0.3317960     0.1925940
  C       -3.2536250     0.5656790    -0.2140850
  H        1.1864410     1.0054960    -1.2820320
  H        2.6888660     1.9907190     0.4595330
  H        2.0609350     0.8310830     1.6444090
  H        0.9859800     2.0639750     0.9510040
  H        3.4951390     0.0579210    -1.0318300
  H        2.3532220    -1.2022810    -1.5348280
  H        2.8748910    -1.1153660     0.1513080
  H       -2.1714740    -1.3192040    -0.2711440
  H       -2.0606790    -0.4764550     1.2759150
  H       -4.2047000     0.1215880     0.0924120
  H       -3.1592540     1.5451910     0.2586100
  H       -3.2661300     0.7008150    -1.2970470
units angstrom
no_reorient  #important for SAPT in psi4, default
symmetry c1  #important for SAPT in psi4, default
}

set PROPERTIES_ORIGIN ["COM"]
properties('MP2/aug-cc-pvtz', properties = ['dipole'])
--------------------------------------------------------------------------

    Molecular point group: c1
  Charge       = 0
  Multiplicity = 1
  Basis Set: AUG-CC-PVTZ
    Blend: AUG-CC-PVTZ
  Basis Set: (AUG-CC-PVTZ AUX)
    Blend: AUG-CC-PVTZ-JKFIT

    Orbital Energies [Eh]
    ---------------------

    Doubly Occupied:

       1A    -20.627162     2A    -20.497844     3A    -11.382887
       4A    -11.300622     5A    -11.248392     6A    -11.235623
       7A    -11.232060     8A    -11.220800     9A     -1.488405
      10A     -1.235585    11A     -1.114870    12A     -1.055455
      13A     -0.944292    14A     -0.923294    15A     -0.853170
      16A     -0.782956    17A     -0.703304    18A     -0.686945
      19A     -0.663795    20A     -0.619488    21A     -0.600185
      22A     -0.566990    23A     -0.562797    24A     -0.554295
      25A     -0.545476    26A     -0.527957    27A     -0.506948
      28A     -0.505874    29A     -0.485815    30A     -0.469589
      31A     -0.409186    32A     -0.400509

  @DF-RHF Final Energy:  -384.02110772803775

   => Energetics <=

    Nuclear Repulsion Energy =            395.8631804141779753
    One-Electron Energy =               -1307.8634332221349723
    Two-Electron Energy =                 527.9791450799192489
    Total Energy =                       -384.0211077280376912
  Basis Set: (AUG-CC-PVTZ AUX)
    Blend: AUG-CC-PVTZ-RI
    Molecular point group: c1

    Geometry (in Angstrom), charge = 0, multiplicity = 1:

       Center              X                  Y                   Z               Mass
    ------------   -----------------  -----------------  -----------------  -----------------
         O           -0.894327525103     0.299674560440    -0.239259923125    15.994914619570
         O            0.261086474897    -1.471909439560     0.585874076875    15.994914619570
         C            1.462447474897     0.402903560440    -0.388676923125    12.000000000000
         C            1.818739474897     1.370609560440     0.744801076875    12.000000000000
         C            2.616773474897    -0.535367439560    -0.715646923125    12.000000000000
         C            0.242381574897    -0.207204439560    -0.060258923125    12.000000000000
         C           -2.108991525103    -0.350205439560     0.201999076875    12.000000000000
         C           -3.253352525103     0.547269560440    -0.204679923125    12.000000000000
         H            1.186713474897     0.987086560440    -1.272626923125     1.007825032230
         H            2.689138474897     1.972309560440     0.468938076875     1.007825032230
         H            2.061207474897     0.812673560440     1.653814076875     1.007825032230
         H            0.986252474897     2.045565560440     0.960409076875     1.007825032230
         H            3.495411474897     0.039511560440    -1.022424923125     1.007825032230
         H            2.353494474897    -1.220690439560    -1.525422923125     1.007825032230
         H            2.875163474897    -1.133775439560     0.160713076875     1.007825032230
         H           -2.171201525103    -1.337613439560    -0.261738923125     1.007825032230
         H           -2.060406525103    -0.494864439560     1.285320076875     1.007825032230
         H           -4.204427525103     0.103178560440     0.101817076875     1.007825032230
         H           -3.158981525103     1.526781560440     0.268015076875     1.007825032230
         H           -3.265857525103     0.682405560440    -1.287641923125     1.007825032230

  Basis Set: AUG-CC-PVTZ
    Blend: AUG-CC-PVTZ
  Basis Set: (AUG-CC-PVTZ AUX)
    Blend: AUG-CC-PVTZ-JKFIT
	 Reference Energy          =    -384.0211077280377481 [Eh]
	 Singles Energy            =      -0.0000000000000000 [Eh]
	 Same-Spin Energy          =      -0.3880565291067610 [Eh]
	 Opposite-Spin Energy      =      -1.2940803640089709 [Eh]
	 Correlation Energy        =      -1.6821368931157319 [Eh]
	 Total Energy              =    -385.7032446211534875 [Eh]

	 ================> DF-SCS-MP2 Energies <==================
	-----------------------------------------------------------
	 SCS Same-Spin Scale       =       0.3333333333333333 [-]
	 SCS Opposite-Spin Scale   =       1.2000000000000000 [-]
	 SCS Same-Spin Energy      =      -0.1293521763689203 [Eh]
	 SCS Opposite-Spin Energy  =      -1.5528964368107649 [Eh]
	 SCS Correlation Energy    =      -1.6822486131796852 [Eh]
	 SCS Total Energy          =    -385.7033563412174431 [Eh]
	-----------------------------------------------------------

  Dipole Moment: [D]
     X:    -1.1807      Y:     2.6194      Z:    -1.0218     Total:     3.0495

*** Psi4 exiting successfully. Buy a developer a beer!
