                               Psi4 1.3.2 release

  ==> Input File <==

--------------------------------------------------------------------------
#psi4
#
memory 32 gb

molecule  {
0 1
  O       -0.8946000     0.3180840    -0.2486650
  O        0.2608140    -1.4535000     0.5764690
  C        1.4621750     0.4213130    -0.3980820
  C        1.8029409     1.4498760     0.6854807
  C        2.6165010    -0.5169580    -0.7250520
  C        0.2447430    -0.3668820     0.0213200
  C       -2.1092640    -0.3317960     0.1925940
  C       -3.2536250     0.5656790    -0.2140850
  H        1.1960211     1.0531562    -1.2516644
  H        2.6888660     1.9907190     0.4595330
  H        2.0609350     0.8310830     1.6444090
  H        0.9859800     2.0639750     0.9510040
  H        3.4951390     0.0579210    -1.0318300
  H        2.3532220    -1.2022810    -1.5348280
  H        2.8748910    -1.1153660     0.1513080
  H       -2.1714740    -1.3192040    -0.2711440
  H       -2.0606790    -0.4764550     1.2759150
  H       -4.2047000     0.1215880     0.0924120
  H       -3.1592540     1.5451910     0.2586100
  H       -3.2661300     0.7008150    -1.2970470
units angstrom
no_reorient  #important for SAPT in psi4, default
symmetry c1  #important for SAPT in psi4, default
}

set PROPERTIES_ORIGIN ["COM"]
properties('MP2/aug-cc-pvtz', properties = ['dipole'])
--------------------------------------------------------------------------

    Molecular point group: c1
  Charge       = 0
  Multiplicity = 1
  Basis Set: AUG-CC-PVTZ
    Blend: AUG-CC-PVTZ
  Basis Set: (AUG-CC-PVTZ AUX)
    Blend: AUG-CC-PVTZ-JKFIT

    Orbital Energies [Eh]
    ---------------------

    Doubly Occupied:

       1A    -20.599805     2A    -20.541098     3A    -11.374708
       4A    -11.286732     5A    -11.245931     6A    -11.227894
       7A    -11.224163     8A    -11.218357     9A     -1.450317
      10A     -1.349481    11A     -1.094283    12A     -1.034839
      13A     -0.941081    14A     -0.895219    15A     -0.828396
      16A     -0.762213    17A     -0.699350    18A     -0.678349
      19A     -0.662410    20A     -0.620390    21A     -0.598035
      22A     -0.584015    23A     -0.557571    24A     -0.553524
      25A     -0.533844    26A     -0.520108    27A     -0.510492
      28A     -0.507914    29A     -0.492444    30A     -0.468373
      31A     -0.455243    32A     -0.438214

  @DF-RHF Final Energy:  -384.07847770818717

   => Energetics <=

    Nuclear Repulsion Energy =            395.5908765291075611
    One-Electron Energy =               -1307.4291219487986382
    Two-Electron Energy =                 527.7597677115038550
    Total Energy =                       -384.0784777081871653
  Basis Set: (AUG-CC-PVTZ AUX)
    Blend: AUG-CC-PVTZ-RI
    Molecular point group: c1

    Geometry (in Angstrom), charge = 0, multiplicity = 1:

       Center              X                  Y                   Z               Mass
    ------------   -----------------  -----------------  -----------------  -----------------
         O           -0.893077984483     0.311379274458    -0.243768992821    15.994914619570
         O            0.262336015517    -1.460204725542     0.581365007179    15.994914619570
         C            1.463697015517     0.414608274458    -0.393185992821    12.000000000000
         C            1.804462915517     1.443171274458     0.690376707179    12.000000000000
         C            2.618023015517    -0.523662725542    -0.720155992821    12.000000000000
         C            0.246265015517    -0.373586725542     0.026216007179    12.000000000000
         C           -2.107741984483    -0.338500725542     0.197490007179    12.000000000000
         C           -3.252102984483     0.558974274458    -0.209188992821    12.000000000000
         H            1.197543115517     1.046451474458    -1.246768392821     1.007825032230
         H            2.690388015517     1.984014274458     0.464429007179     1.007825032230
         H            2.062457015517     0.824378274458     1.649305007179     1.007825032230
         H            0.987502015517     2.057270274458     0.955900007179     1.007825032230
         H            3.496661015517     0.051216274458    -1.026933992821     1.007825032230
         H            2.354744015517    -1.208985725542    -1.529931992821     1.007825032230
         H            2.876413015517    -1.122070725542     0.156204007179     1.007825032230
         H           -2.169951984483    -1.325908725542    -0.266247992821     1.007825032230
         H           -2.059156984483    -0.483159725542     1.280811007179     1.007825032230
         H           -4.203177984483     0.114883274458     0.097308007179     1.007825032230
         H           -3.157731984483     1.538486274458     0.263506007179     1.007825032230
         H           -3.264607984483     0.694110274458    -1.292150992821     1.007825032230

  Basis Set: AUG-CC-PVTZ
    Blend: AUG-CC-PVTZ
  Basis Set: (AUG-CC-PVTZ AUX)
    Blend: AUG-CC-PVTZ-JKFIT
	 Reference Energy          =    -384.0784777081871653 [Eh]
	 Singles Energy            =      -0.0000000000000000 [Eh]
	 Same-Spin Energy          =      -0.3840047475362869 [Eh]
	 Opposite-Spin Energy      =      -1.2870291839264094 [Eh]
	 Correlation Energy        =      -1.6710339314626963 [Eh]
	 Total Energy              =    -385.7495116396498815 [Eh]

	 ================> DF-SCS-MP2 Energies <==================
	-----------------------------------------------------------
	 SCS Same-Spin Scale       =       0.3333333333333333 [-]
	 SCS Opposite-Spin Scale   =       1.2000000000000000 [-]
	 SCS Same-Spin Energy      =      -0.1280015825120956 [Eh]
	 SCS Opposite-Spin Energy  =      -1.5444350207116913 [Eh]
	 SCS Correlation Energy    =      -1.6724366032237870 [Eh]
	 SCS Total Energy          =    -385.7509143114109520 [Eh]
	-----------------------------------------------------------

  Dipole Moment: [D]
     X:    -0.7166      Y:     1.6110      Z:    -0.6444     Total:     1.8772

*** Psi4 exiting successfully. Buy a developer a beer!
