                               Psi4 1.4a3.dev225

  ==> Input File <==

--------------------------------------------------------------------------
#psi4
#
memory 32 gb

molecule  {
0 1
  O       -0.8844740     0.2512200    -0.2589860
  O        0.2594420    -1.5357810     0.5540110
  C        1.4751410     0.3499910    -0.3991000
  C        1.6489360     1.5420820     0.5503600
  C        2.7076510    -0.5454760    -0.4239080
  C        0.2530585    -0.4845600     0.0374391
  C       -2.1066380    -0.4073920     0.1545600
  C       -3.2437300     0.5134160    -0.2249800
  H        1.2747850     0.7394360    -1.4046030
  H        2.5199720     2.1341380     0.2549160
  H        1.8085970     1.1898350     1.5745190
  H        0.7675450     2.1869880     0.5363060
  H        3.5809030     0.0268420    -0.7502520
  H        2.5706130    -1.3892510    -1.1045820
  H        2.9042310    -0.9491700     0.5720060
  H       -2.1727950    -1.3769310    -0.3467220
  H       -2.0631380    -0.5911830     1.2316620
  H       -4.1987120     0.0656950     0.0643780
  H       -3.1432900     1.4757990     0.2814060
  H       -3.2533220     0.6866720    -1.3031500
units angstrom
no_reorient  #important for SAPT in psi4, default
symmetry c1  #important for SAPT in psi4, default
}

set PROPERTIES_ORIGIN ["COM"]
properties('MP2/aug-cc-pvtz', properties = ['dipole'])
--------------------------------------------------------------------------

    Molecular point group: c1
  Charge       = 0
  Multiplicity = 1
  Basis Set: AUG-CC-PVTZ
    Blend: AUG-CC-PVTZ
  Basis Set: (AUG-CC-PVTZ AUX)
    Blend: AUG-CC-PVTZ-JKFIT

    Orbital Energies [Eh]
    ---------------------

    Doubly Occupied:

       1A    -20.590741     2A    -20.550909     3A    -11.370411
       4A    -11.283414     5A    -11.246001     6A    -11.224862
       7A    -11.222180     8A    -11.215385     9A     -1.456774
      10A     -1.366334    11A     -1.087862    12A     -1.028843
      13A     -0.937146    14A     -0.886453    15A     -0.824282
      16A     -0.757310    17A     -0.701087    18A     -0.677482
      19A     -0.666378    20A     -0.622566    21A     -0.588946
      22A     -0.581872    23A     -0.555636    24A     -0.546820
      25A     -0.544099    26A     -0.522654    27A     -0.512966
      28A     -0.508334    29A     -0.488254    30A     -0.483479
      31A     -0.456961    32A     -0.432497

  @DF-RHF Final Energy:  -384.08456943433760

   => Energetics <=

    Nuclear Repulsion Energy =            395.8442357976235257
    One-Electron Energy =               -1307.9797357772233681
    Two-Electron Energy =                 528.0509305452623039
    Total Energy =                       -384.0845694343375953
  Basis Set: (AUG-CC-PVTZ AUX)
    Blend: AUG-CC-PVTZ-RI
    Molecular point group: c1

    Geometry (in Angstrom), charge = 0, multiplicity = 1:

       Center              X                  Y                   Z               Mass
    ------------   -----------------  -----------------  -----------------  -----------------
         O           -0.879440878319     0.291690660623    -0.264621181755    15.994914619570
         O            0.264475121681    -1.495310339377     0.548375818245    15.994914619570
         C            1.480174121681     0.390461660623    -0.404735181755    12.000000000000
         C            1.653969121681     1.582552660623     0.544724818245    12.000000000000
         C            2.712684121681    -0.505005339377    -0.429543181755    12.000000000000
         C            0.258091621681    -0.444089339377     0.031803918245    12.000000000000
         C           -2.101604878319    -0.366921339377     0.148924818245    12.000000000000
         C           -3.238696878319     0.553886660623    -0.230615181755    12.000000000000
         H            1.279818121681     0.779906660623    -1.410238181755     1.007825032230
         H            2.525005121681     2.174608660623     0.249280818245     1.007825032230
         H            1.813630121681     1.230305660623     1.568883818245     1.007825032230
         H            0.772578121681     2.227458660623     0.530670818245     1.007825032230
         H            3.585936121681     0.067312660623    -0.755887181755     1.007825032230
         H            2.575646121681    -1.348780339377    -1.110217181755     1.007825032230
         H            2.909264121681    -0.908699339377     0.566370818245     1.007825032230
         H           -2.167761878319    -1.336460339377    -0.352357181755     1.007825032230
         H           -2.058104878319    -0.550712339377     1.226026818245     1.007825032230
         H           -4.193678878319     0.106165660623     0.058742818245     1.007825032230
         H           -3.138256878319     1.516269660623     0.275770818245     1.007825032230
         H           -3.248288878319     0.727142660623    -1.308785181755     1.007825032230

  Basis Set: AUG-CC-PVTZ
    Blend: AUG-CC-PVTZ
  Basis Set: (AUG-CC-PVTZ AUX)
    Blend: AUG-CC-PVTZ-JKFIT
	 Reference Energy          =    -384.0845694343375953 [Eh]
	 Singles Energy            =      -0.0000000000000000 [Eh]
	 Same-Spin Energy          =      -0.3829446820764157 [Eh]
	 Opposite-Spin Energy      =      -1.2852312629103961 [Eh]
	 Correlation Energy        =      -1.6681759449868119 [Eh]
	 Total Energy              =    -385.7527453793243808 [Eh]

	 ================> DF-SCS-MP2 Energies <==================
	-----------------------------------------------------------
	 SCS Same-Spin Scale       =       0.3333333333333333 [-]
	 SCS Opposite-Spin Scale   =       1.2000000000000000 [-]
	 SCS Same-Spin Energy      =      -0.1276482273588052 [Eh]
	 SCS Opposite-Spin Energy  =      -1.5422775154924753 [Eh]
	 SCS Correlation Energy    =      -1.6699257428512806 [Eh]
	 SCS Total Energy          =    -385.7544951771888577 [Eh]
	-----------------------------------------------------------

  Dipole Moment: [D]
     X:    -0.5900      Y:     1.3163      Z:    -0.5128     Total:     1.5310

*** Psi4 exiting successfully. Buy a developer a beer!
