                               Psi4 1.3.2 release

  ==> Input File <==

--------------------------------------------------------------------------
#psi4
#
memory 32 gb

molecule  {
0 1
  O       -0.8946000     0.3180840    -0.2486650
  O        0.2608140    -1.4535000     0.5764690
  C        1.4621750     0.4213130    -0.3980820
  C        1.8184670     1.3890190     0.7353960
  C        2.6165010    -0.5169580    -0.7250520
  C        0.2447430    -0.3668820     0.0213200
  C       -2.1092640    -0.3317960     0.1925940
  C       -3.2536250     0.5656790    -0.2140850
  H        1.1864410     1.0054960    -1.2820320
  H        2.6888660     1.9907190     0.4595330
  H        2.0609350     0.8310830     1.6444090
  H        0.9859800     2.0639750     0.9510040
  H        3.4951390     0.0579210    -1.0318300
  H        2.3532220    -1.2022810    -1.5348280
  H        2.8748910    -1.1153660     0.1513080
  H       -2.1714740    -1.3192040    -0.2711440
  H       -2.0606790    -0.4764550     1.2759150
  H       -4.2047000     0.1215880     0.0924120
  H       -3.1592540     1.5451910     0.2586100
  H       -3.2661300     0.7008150    -1.2970470
units angstrom
no_reorient  #important for SAPT in psi4, default
symmetry c1  #important for SAPT in psi4, default
}

set PROPERTIES_ORIGIN ["COM"]
properties('MP2/aug-cc-pvtz', properties = ['dipole'])
--------------------------------------------------------------------------

    Molecular point group: c1
  Charge       = 0
  Multiplicity = 1
  Basis Set: AUG-CC-PVTZ
    Blend: AUG-CC-PVTZ
  Basis Set: (AUG-CC-PVTZ AUX)
    Blend: AUG-CC-PVTZ-JKFIT

    Orbital Energies [Eh]
    ---------------------

    Doubly Occupied:

       1A    -20.599444     2A    -20.540198     3A    -11.373519
       4A    -11.286516     5A    -11.245622     6A    -11.227197
       7A    -11.223973     8A    -11.217193     9A     -1.449889
      10A     -1.348907    11A     -1.094343    12A     -1.034646
      13A     -0.939344    14A     -0.895208    15A     -0.828374
      16A     -0.761848    17A     -0.699118    18A     -0.677874
      19A     -0.660915    20A     -0.619703    21A     -0.590934
      22A     -0.583605    23A     -0.555469    24A     -0.549766
      25A     -0.544388    26A     -0.519259    27A     -0.509476
      28A     -0.505767    29A     -0.489494    30A     -0.481057
      31A     -0.455358    32A     -0.435988

  @DF-RHF Final Energy:  -384.08593085918011

   => Energetics <=

    Nuclear Repulsion Energy =            395.8143457129607441
    One-Electron Energy =               -1307.9117725471285212
    Two-Electron Energy =                 528.0114959749877244
    Total Energy =                       -384.0859308591800527
  Basis Set: (AUG-CC-PVTZ AUX)
    Blend: AUG-CC-PVTZ-RI
    Molecular point group: c1

    Geometry (in Angstrom), charge = 0, multiplicity = 1:

       Center              X                  Y                   Z               Mass
    ------------   -----------------  -----------------  -----------------  -----------------
         O           -0.894599800986     0.318084065432    -0.248665272208    15.994914619570
         O            0.260814199014    -1.453499934568     0.576468727792    15.994914619570
         C            1.462175199014     0.421313065432    -0.398082272208    12.000000000000
         C            1.818467199014     1.389019065432     0.735395727792    12.000000000000
         C            2.616501199014    -0.516957934568    -0.725052272208    12.000000000000
         C            0.244743199014    -0.366881934568     0.021319727792    12.000000000000
         C           -2.109263800986    -0.331795934568     0.192593727792    12.000000000000
         C           -3.253624800986     0.565679065432    -0.214085272208    12.000000000000
         H            1.186441199014     1.005496065432    -1.282032272208     1.007825032230
         H            2.688866199014     1.990719065432     0.459532727792     1.007825032230
         H            2.060935199014     0.831083065432     1.644408727792     1.007825032230
         H            0.985980199014     2.063975065432     0.951003727792     1.007825032230
         H            3.495139199014     0.057921065432    -1.031830272208     1.007825032230
         H            2.353222199014    -1.202280934568    -1.534828272208     1.007825032230
         H            2.874891199014    -1.115365934568     0.151307727792     1.007825032230
         H           -2.171473800986    -1.319203934568    -0.271144272208     1.007825032230
         H           -2.060678800986    -0.476454934568     1.275914727792     1.007825032230
         H           -4.204699800986     0.121588065432     0.092411727792     1.007825032230
         H           -3.159253800986     1.545191065432     0.258609727792     1.007825032230
         H           -3.266129800986     0.700815065432    -1.297047272208     1.007825032230

  Basis Set: AUG-CC-PVTZ
    Blend: AUG-CC-PVTZ
  Basis Set: (AUG-CC-PVTZ AUX)
    Blend: AUG-CC-PVTZ-JKFIT
	 Reference Energy          =    -384.0859308591801096 [Eh]
	 Singles Energy            =      -0.0000000000000000 [Eh]
	 Same-Spin Energy          =      -0.3838589857429188 [Eh]
	 Opposite-Spin Energy      =      -1.2866358622402494 [Eh]
	 Correlation Energy        =      -1.6704948479831683 [Eh]
	 Total Energy              =    -385.7564257071632596 [Eh]

	 ================> DF-SCS-MP2 Energies <==================
	-----------------------------------------------------------
	 SCS Same-Spin Scale       =       0.3333333333333333 [-]
	 SCS Opposite-Spin Scale   =       1.2000000000000000 [-]
	 SCS Same-Spin Energy      =      -0.1279529952476396 [Eh]
	 SCS Opposite-Spin Energy  =      -1.5439630346882993 [Eh]
	 SCS Correlation Energy    =      -1.6719160299359390 [Eh]
	 SCS Total Energy          =    -385.7578468891160242 [Eh]
	-----------------------------------------------------------

  Dipole Moment: [D]
     X:    -0.7047      Y:     1.5940      Z:    -0.6086     Total:     1.8461

*** Psi4 exiting successfully. Buy a developer a beer!
