                               Psi4 1.3.2 release

  ==> Input File <==

--------------------------------------------------------------------------
#psi4
#
memory 32 gb

molecule  {
0 1
  O       -0.8946000     0.3180840    -0.2486650
  O        0.2608140    -1.4535000     0.5764690
  C        1.4621750     0.4213130    -0.3980820
  C        1.8184670     1.3890190     0.7353960
  C        2.6165010    -0.5169580    -0.7250520
  C        0.2510692    -0.3582545     0.0162522
  C       -2.1160136    -0.3221488     0.1880418
  C       -3.2536250     0.5656790    -0.2140850
  H        1.1864410     1.0054960    -1.2820320
  H        2.6888660     1.9907190     0.4595330
  H        2.0609350     0.8310830     1.6444090
  H        0.9859800     2.0639750     0.9510040
  H        3.4951390     0.0579210    -1.0318300
  H        2.3532220    -1.2022810    -1.5348280
  H        2.8748910    -1.1153660     0.1513080
  H       -2.1714740    -1.3192040    -0.2711440
  H       -2.0606790    -0.4764550     1.2759150
  H       -4.2047000     0.1215880     0.0924120
  H       -3.1592540     1.5451910     0.2586100
  H       -3.2661300     0.7008150    -1.2970470
units angstrom
no_reorient  #important for SAPT in psi4, default
symmetry c1  #important for SAPT in psi4, default
}

set PROPERTIES_ORIGIN ["COM"]
properties('MP2/aug-cc-pvtz', properties = ['dipole'])
--------------------------------------------------------------------------

    Molecular point group: c1
  Charge       = 0
  Multiplicity = 1
  Basis Set: AUG-CC-PVTZ
    Blend: AUG-CC-PVTZ
  Basis Set: (AUG-CC-PVTZ AUX)
    Blend: AUG-CC-PVTZ-JKFIT

    Orbital Energies [Eh]
    ---------------------

    Doubly Occupied:

       1A    -20.599218     2A    -20.538666     3A    -11.374629
       4A    -11.287131     5A    -11.246074     6A    -11.228000
       7A    -11.223812     8A    -11.217769     9A     -1.447559
      10A     -1.343187    11A     -1.096633    12A     -1.037232
      13A     -0.940043    14A     -0.897105    15A     -0.828532
      16A     -0.761367    17A     -0.699151    18A     -0.676428
      19A     -0.659222    20A     -0.619776    21A     -0.591053
      22A     -0.583517    23A     -0.556417    24A     -0.550548
      25A     -0.544733    26A     -0.520770    27A     -0.508410
      28A     -0.503877    29A     -0.490167    30A     -0.480226
      31A     -0.452375    32A     -0.436921

  @DF-RHF Final Energy:  -384.08446334213903

   => Energetics <=

    Nuclear Repulsion Energy =            395.7861015414219423
    One-Electron Energy =               -1307.8600266491534967
    Two-Electron Energy =                 527.9894617655925231
    Total Energy =                       -384.0844633421390881
  Basis Set: (AUG-CC-PVTZ AUX)
    Blend: AUG-CC-PVTZ-RI
    Molecular point group: c1

    Geometry (in Angstrom), charge = 0, multiplicity = 1:

       Center              X                  Y                   Z               Mass
    ------------   -----------------  -----------------  -----------------  -----------------
         O           -0.894556032578     0.316194942807    -0.247670817598    15.994914619570
         O            0.260857967422    -1.455389057193     0.577463182402    15.994914619570
         C            1.462218967422     0.419423942807    -0.397087817598    12.000000000000
         C            1.818510967422     1.387129942807     0.736390182402    12.000000000000
         C            2.616544967422    -0.518847057193    -0.724057817598    12.000000000000
         C            0.251113167422    -0.360143557193     0.017246382402    12.000000000000
         C           -2.115969632578    -0.324037857193     0.189035982402    12.000000000000
         C           -3.253581032578     0.563789942807    -0.213090817598    12.000000000000
         H            1.186484967422     1.003606942807    -1.281037817598     1.007825032230
         H            2.688909967422     1.988829942807     0.460527182402     1.007825032230
         H            2.060978967422     0.829193942807     1.645403182402     1.007825032230
         H            0.986023967422     2.062085942807     0.951998182402     1.007825032230
         H            3.495182967422     0.056031942807    -1.030835817598     1.007825032230
         H            2.353265967422    -1.204170057193    -1.533833817598     1.007825032230
         H            2.874934967422    -1.117255057193     0.152302182402     1.007825032230
         H           -2.171430032578    -1.321093057193    -0.270149817598     1.007825032230
         H           -2.060635032578    -0.478344057193     1.276909182402     1.007825032230
         H           -4.204656032578     0.119698942807     0.093406182402     1.007825032230
         H           -3.159210032578     1.543301942807     0.259604182402     1.007825032230
         H           -3.266086032578     0.698925942807    -1.296052817598     1.007825032230

  Basis Set: AUG-CC-PVTZ
    Blend: AUG-CC-PVTZ
  Basis Set: (AUG-CC-PVTZ AUX)
    Blend: AUG-CC-PVTZ-JKFIT
	 Reference Energy          =    -384.0844633421390313 [Eh]
	 Singles Energy            =      -0.0000000000000000 [Eh]
	 Same-Spin Energy          =      -0.3842030221211933 [Eh]
	 Opposite-Spin Energy      =      -1.2871567421297427 [Eh]
	 Correlation Energy        =      -1.6713597642509361 [Eh]
	 Total Energy              =    -385.7558231063899825 [Eh]

	 ================> DF-SCS-MP2 Energies <==================
	-----------------------------------------------------------
	 SCS Same-Spin Scale       =       0.3333333333333333 [-]
	 SCS Opposite-Spin Scale   =       1.2000000000000000 [-]
	 SCS Same-Spin Energy      =      -0.1280676740403978 [Eh]
	 SCS Opposite-Spin Energy  =      -1.5445880905556912 [Eh]
	 SCS Correlation Energy    =      -1.6726557645960889 [Eh]
	 SCS Total Energy          =    -385.7571191067351037 [Eh]
	-----------------------------------------------------------

  Dipole Moment: [D]
     X:    -0.6944      Y:     1.6589      Z:    -0.6355     Total:     1.9074

*** Psi4 exiting successfully. Buy a developer a beer!
