                               Psi4 1.4a3.dev225

  ==> Input File <==

--------------------------------------------------------------------------
#psi4
#
memory 32 gb

molecule  {
0 1
  O       -0.8844740     0.2512200    -0.2589860
  O        0.2594420    -1.5357810     0.5540110
  C        1.4751410     0.3499910    -0.3991000
  C        1.6489360     1.5420820     0.5503600
  C        2.7076510    -0.5454760    -0.4239080
  C        0.2527860    -0.4396860     0.0153880
  C       -2.1066380    -0.4073920     0.1545600
  C       -3.2437300     0.5134160    -0.2249800
  H        1.2656509     0.7571906    -1.4504434
  H        2.5199720     2.1341380     0.2549160
  H        1.8085970     1.1898350     1.5745190
  H        0.7675450     2.1869880     0.5363060
  H        3.5809030     0.0268420    -0.7502520
  H        2.5706130    -1.3892510    -1.1045820
  H        2.9042310    -0.9491700     0.5720060
  H       -2.1727950    -1.3769310    -0.3467220
  H       -2.0631380    -0.5911830     1.2316620
  H       -4.1987120     0.0656950     0.0643780
  H       -3.1432900     1.4757990     0.2814060
  H       -3.2533220     0.6866720    -1.3031500
units angstrom
no_reorient  #important for SAPT in psi4, default
symmetry c1  #important for SAPT in psi4, default
}

set PROPERTIES_ORIGIN ["COM"]
properties('MP2/aug-cc-pvtz', properties = ['dipole'])
--------------------------------------------------------------------------

    Molecular point group: c1
  Charge       = 0
  Multiplicity = 1
  Basis Set: AUG-CC-PVTZ
    Blend: AUG-CC-PVTZ
  Basis Set: (AUG-CC-PVTZ AUX)
    Blend: AUG-CC-PVTZ-JKFIT

    Orbital Energies [Eh]
    ---------------------

    Doubly Occupied:

       1A    -20.598453     2A    -20.541579     3A    -11.374720
       4A    -11.286940     5A    -11.252839     6A    -11.227374
       7A    -11.224330     8A    -11.216579     9A     -1.448547
      10A     -1.348509    11A     -1.091598    12A     -1.033701
      13A     -0.938781    14A     -0.894006    15A     -0.827892
      16A     -0.759600    17A     -0.693651    18A     -0.676835
      19A     -0.661447    20A     -0.620953    21A     -0.586433
      22A     -0.582010    23A     -0.556726    24A     -0.548685
      25A     -0.544307    26A     -0.518530    27A     -0.509174
      28A     -0.505947    29A     -0.488877    30A     -0.478017
      31A     -0.455285    32A     -0.436316

  @DF-RHF Final Energy:  -384.08341058881143

   => Energetics <=

    Nuclear Repulsion Energy =            395.5051366065411003
    One-Electron Energy =               -1307.3198136644741680
    Two-Electron Energy =                 527.7312664691215787
    Total Energy =                       -384.0834105888114891
  Basis Set: (AUG-CC-PVTZ AUX)
    Blend: AUG-CC-PVTZ-RI
    Molecular point group: c1

    Geometry (in Angstrom), charge = 0, multiplicity = 1:

       Center              X                  Y                   Z               Mass
    ------------   -----------------  -----------------  -----------------  -----------------
         O           -0.879333407835     0.286897727693    -0.261943697980    15.994914619570
         O            0.264582592165    -1.500103272307     0.551053302020    15.994914619570
         C            1.480281592165     0.385668727693    -0.402057697980    12.000000000000
         C            1.654076592165     1.577759727693     0.547402302020    12.000000000000
         C            2.712791592165    -0.509798272307    -0.426865697980    12.000000000000
         C            0.257926592165    -0.404008272307     0.012430302020    12.000000000000
         C           -2.101497407835    -0.371714272307     0.151602302020    12.000000000000
         C           -3.238589407835     0.549093727693    -0.227937697980    12.000000000000
         H            1.270791492165     0.792868327693    -1.453401097980     1.007825032230
         H            2.525112592165     2.169815727693     0.251958302020     1.007825032230
         H            1.813737592165     1.225512727693     1.571561302020     1.007825032230
         H            0.772685592165     2.222665727693     0.533348302020     1.007825032230
         H            3.586043592165     0.062519727693    -0.753209697980     1.007825032230
         H            2.575753592165    -1.353573272307    -1.107539697980     1.007825032230
         H            2.909371592165    -0.913492272307     0.569048302020     1.007825032230
         H           -2.167654407835    -1.341253272307    -0.349679697980     1.007825032230
         H           -2.057997407835    -0.555505272307     1.228704302020     1.007825032230
         H           -4.193571407835     0.101372727693     0.061420302020     1.007825032230
         H           -3.138149407835     1.511476727693     0.278448302020     1.007825032230
         H           -3.248181407835     0.722349727693    -1.306107697980     1.007825032230

  Basis Set: AUG-CC-PVTZ
    Blend: AUG-CC-PVTZ
  Basis Set: (AUG-CC-PVTZ AUX)
    Blend: AUG-CC-PVTZ-JKFIT
	 Reference Energy          =    -384.0834105888114323 [Eh]
	 Singles Energy            =      -0.0000000000000000 [Eh]
	 Same-Spin Energy          =      -0.3838588673519814 [Eh]
	 Opposite-Spin Energy      =      -1.2871262833258350 [Eh]
	 Correlation Energy        =      -1.6709851506778164 [Eh]
	 Total Energy              =    -385.7543957394892686 [Eh]

	 ================> DF-SCS-MP2 Energies <==================
	-----------------------------------------------------------
	 SCS Same-Spin Scale       =       0.3333333333333333 [-]
	 SCS Opposite-Spin Scale   =       1.2000000000000000 [-]
	 SCS Same-Spin Energy      =      -0.1279529557839938 [Eh]
	 SCS Opposite-Spin Energy  =      -1.5445515399910019 [Eh]
	 SCS Correlation Energy    =      -1.6725044957749957 [Eh]
	 SCS Total Energy          =    -385.7559150845864337 [Eh]
	-----------------------------------------------------------

  Dipole Moment: [D]
     X:    -0.7140      Y:     1.5990      Z:    -0.6106     Total:     1.8546

*** Psi4 exiting successfully. Buy a developer a beer!
