                               Psi4 1.3.2 release

  ==> Input File <==

--------------------------------------------------------------------------
#psi4
#
memory 32 gb

molecule  {
0 1
  O       -0.8946000     0.3180840    -0.2486650
  O        0.2608140    -1.4535000     0.5764690
  C        1.4621750     0.4213130    -0.3980820
  C        1.8184670     1.3890190     0.7353960
  C        2.6165010    -0.5169580    -0.7250520
  C        0.2585604    -0.3771763     0.0412549
  C       -2.1092640    -0.3317960     0.1925940
  C       -3.2536250     0.5656790    -0.2140850
  H        1.2041460     1.0126599    -1.2826138
  H        2.6888660     1.9907190     0.4595330
  H        2.0609350     0.8310830     1.6444090
  H        0.9859800     2.0639750     0.9510040
  H        3.4951390     0.0579210    -1.0318300
  H        2.3532220    -1.2022810    -1.5348280
  H        2.8748910    -1.1153660     0.1513080
  H       -2.1714740    -1.3192040    -0.2711440
  H       -2.0606790    -0.4764550     1.2759150
  H       -4.2047000     0.1215880     0.0924120
  H       -3.1592540     1.5451910     0.2586100
  H       -3.2661300     0.7008150    -1.2970470
units angstrom
no_reorient  #important for SAPT in psi4, default
symmetry c1  #important for SAPT in psi4, default
}

set PROPERTIES_ORIGIN ["COM"]
properties('MP2/aug-cc-pvtz', properties = ['dipole'])
--------------------------------------------------------------------------

    Molecular point group: c1
  Charge       = 0
  Multiplicity = 1
  Basis Set: AUG-CC-PVTZ
    Blend: AUG-CC-PVTZ
  Basis Set: (AUG-CC-PVTZ AUX)
    Blend: AUG-CC-PVTZ-JKFIT

    Orbital Energies [Eh]
    ---------------------

    Doubly Occupied:

       1A    -20.593965     2A    -20.545110     3A    -11.373237
       4A    -11.283875     5A    -11.245979     6A    -11.227266
       7A    -11.222282     8A    -11.217740     9A     -1.447769
      10A     -1.355429    11A     -1.094816    12A     -1.031178
      13A     -0.939953    14A     -0.892198    15A     -0.826733
      16A     -0.758148    17A     -0.702160    18A     -0.675286
      19A     -0.662677    20A     -0.620268    21A     -0.591232
      22A     -0.583834    23A     -0.554346    24A     -0.548986
      25A     -0.544533    26A     -0.521275    27A     -0.509215
      28A     -0.507031    29A     -0.488831    30A     -0.482319
      31A     -0.455525    32A     -0.437111

  @DF-RHF Final Energy:  -384.08574865580243

   => Energetics <=

    Nuclear Repulsion Energy =            395.7954073342258425
    One-Electron Energy =               -1307.8816975100260152
    Two-Electron Energy =                 528.0005415199976824
    Total Energy =                       -384.0857486558024902
  Basis Set: (AUG-CC-PVTZ AUX)
    Blend: AUG-CC-PVTZ-RI
    Molecular point group: c1

    Geometry (in Angstrom), charge = 0, multiplicity = 1:

       Center              X                  Y                   Z               Mass
    ------------   -----------------  -----------------  -----------------  -----------------
         O           -0.896181868884     0.319086028779    -0.250720964665    15.994914619570
         O            0.259232131116    -1.452497971221     0.574413035335    15.994914619570
         C            1.460593131116     0.422315028779    -0.400137964665    12.000000000000
         C            1.816885131116     1.390021028779     0.733340035335    12.000000000000
         C            2.614919131116    -0.515955971221    -0.727107964665    12.000000000000
         C            0.256978531116    -0.376174271221     0.039198935335    12.000000000000
         C           -2.110845868884    -0.330793971221     0.190538035335    12.000000000000
         C           -3.255206868884     0.566681028779    -0.216140964665    12.000000000000
         H            1.202564131116     1.013661928779    -1.284669764665     1.007825032230
         H            2.687284131116     1.991721028779     0.457477035335     1.007825032230
         H            2.059353131116     0.832085028779     1.642353035335     1.007825032230
         H            0.984398131116     2.064977028779     0.948948035335     1.007825032230
         H            3.493557131116     0.058923028779    -1.033885964665     1.007825032230
         H            2.351640131116    -1.201278971221    -1.536883964665     1.007825032230
         H            2.873309131116    -1.114363971221     0.149252035335     1.007825032230
         H           -2.173055868884    -1.318201971221    -0.273199964665     1.007825032230
         H           -2.062260868884    -0.475452971221     1.273859035335     1.007825032230
         H           -4.206281868884     0.122590028779     0.090356035335     1.007825032230
         H           -3.160835868884     1.546193028779     0.256554035335     1.007825032230
         H           -3.267711868884     0.701817028779    -1.299102964665     1.007825032230

  Basis Set: AUG-CC-PVTZ
    Blend: AUG-CC-PVTZ
  Basis Set: (AUG-CC-PVTZ AUX)
    Blend: AUG-CC-PVTZ-JKFIT
	 Reference Energy          =    -384.0857486558024334 [Eh]
	 Singles Energy            =      -0.0000000000000000 [Eh]
	 Same-Spin Energy          =      -0.3837044260984654 [Eh]
	 Opposite-Spin Energy      =      -1.2863897424555255 [Eh]
	 Correlation Energy        =      -1.6700941685539910 [Eh]
	 Total Energy              =    -385.7558428243564208 [Eh]

	 ================> DF-SCS-MP2 Energies <==================
	-----------------------------------------------------------
	 SCS Same-Spin Scale       =       0.3333333333333333 [-]
	 SCS Opposite-Spin Scale   =       1.2000000000000000 [-]
	 SCS Same-Spin Energy      =      -0.1279014753661551 [Eh]
	 SCS Opposite-Spin Energy  =      -1.5436676909466305 [Eh]
	 SCS Correlation Energy    =      -1.6715691663127856 [Eh]
	 SCS Total Energy          =    -385.7573178221152261 [Eh]
	-----------------------------------------------------------

  Dipole Moment: [D]
     X:    -0.5389      Y:     1.4923      Z:    -0.5551     Total:     1.6809

*** Psi4 exiting successfully. Buy a developer a beer!
