                               Psi4 1.3.2 release

  ==> Input File <==

--------------------------------------------------------------------------
#psi4
#
memory 32 gb

molecule  {
0 1
  O       -0.8946000     0.3180840    -0.2486650
  O        0.2608140    -1.4535000     0.5764690
  C        1.4621750     0.4213130    -0.3980820
  C        1.8595570     1.4067346     0.7060933
  C        2.6165010    -0.5169580    -0.7250520
  C        0.2465296    -0.3923961    -0.0247539
  C       -2.1092640    -0.3317960     0.1925940
  C       -3.2536250     0.5656790    -0.2140850
  H        1.1864410     1.0054960    -1.2820320
  H        2.6888660     1.9907190     0.4595330
  H        2.0609350     0.8310830     1.6444090
  H        0.9859800     2.0639750     0.9510040
  H        3.4951390     0.0579210    -1.0318300
  H        2.3532220    -1.2022810    -1.5348280
  H        2.8748910    -1.1153660     0.1513080
  H       -2.1714740    -1.3192040    -0.2711440
  H       -2.0606790    -0.4764550     1.2759150
  H       -4.2047000     0.1215880     0.0924120
  H       -3.1592540     1.5451910     0.2586100
  H       -3.2661300     0.7008150    -1.2970470
units angstrom
no_reorient  #important for SAPT in psi4, default
symmetry c1  #important for SAPT in psi4, default
}

set PROPERTIES_ORIGIN ["COM"]
properties('MP2/aug-cc-pvtz', properties = ['dipole'])
--------------------------------------------------------------------------

    Molecular point group: c1
  Charge       = 0
  Multiplicity = 1
  Basis Set: AUG-CC-PVTZ
    Blend: AUG-CC-PVTZ
  Basis Set: (AUG-CC-PVTZ AUX)
    Blend: AUG-CC-PVTZ-JKFIT

    Orbital Energies [Eh]
    ---------------------

    Doubly Occupied:

       1A    -20.598660     2A    -20.542669     3A    -11.375331
       4A    -11.286120     5A    -11.246048     6A    -11.227963
       7A    -11.223663     8A    -11.216601     9A     -1.448508
      10A     -1.349544    11A     -1.093965    12A     -1.034104
      13A     -0.938595    14A     -0.896273    15A     -0.828901
      16A     -0.760794    17A     -0.698635    18A     -0.677415
      19A     -0.660485    20A     -0.619629    21A     -0.591663
      22A     -0.584059    23A     -0.558074    24A     -0.552989
      25A     -0.542045    26A     -0.520102    27A     -0.510261
      28A     -0.505051    29A     -0.483478    30A     -0.478228
      31A     -0.454995    32A     -0.438904

  @DF-RHF Final Energy:  -384.08024261341126

   => Energetics <=

    Nuclear Repulsion Energy =            395.3759422079149317
    One-Electron Energy =               -1307.0248678121129160
    Two-Electron Energy =                 527.5686829907867832
    Total Energy =                       -384.0802426134112011
  Basis Set: (AUG-CC-PVTZ AUX)
    Blend: AUG-CC-PVTZ-RI
    Molecular point group: c1

    Geometry (in Angstrom), charge = 0, multiplicity = 1:

       Center              X                  Y                   Z               Mass
    ------------   -----------------  -----------------  -----------------  -----------------
         O           -0.899032112057     0.318890224919    -0.240873317186    15.994914619570
         O            0.256381887943    -1.452693775081     0.584260682814    15.994914619570
         C            1.457742887943     0.422119224919    -0.390290317186    12.000000000000
         C            1.855124887943     1.407540824919     0.713884982814    12.000000000000
         C            2.612068887943    -0.516151775081    -0.717260317186    12.000000000000
         C            0.242097487943    -0.391589875081    -0.016962217186    12.000000000000
         C           -2.113696112057    -0.330989775081     0.200385682814    12.000000000000
         C           -3.258057112057     0.566485224919    -0.206293317186    12.000000000000
         H            1.182008887943     1.006302224919    -1.274240317186     1.007825032230
         H            2.684433887943     1.991525224919     0.467324682814     1.007825032230
         H            2.056502887943     0.831889224919     1.652200682814     1.007825032230
         H            0.981547887943     2.064781224919     0.958795682814     1.007825032230
         H            3.490706887943     0.058727224919    -1.024038317186     1.007825032230
         H            2.348789887943    -1.201474775081    -1.527036317186     1.007825032230
         H            2.870458887943    -1.114559775081     0.159099682814     1.007825032230
         H           -2.175906112057    -1.318397775081    -0.263352317186     1.007825032230
         H           -2.065111112057    -0.475648775081     1.283706682814     1.007825032230
         H           -4.209132112057     0.122394224919     0.100203682814     1.007825032230
         H           -3.163686112057     1.545997224919     0.266401682814     1.007825032230
         H           -3.270562112057     0.701621224919    -1.289255317186     1.007825032230

  Basis Set: AUG-CC-PVTZ
    Blend: AUG-CC-PVTZ
  Basis Set: (AUG-CC-PVTZ AUX)
    Blend: AUG-CC-PVTZ-JKFIT
	 Reference Energy          =    -384.0802426134112579 [Eh]
	 Singles Energy            =      -0.0000000000000000 [Eh]
	 Same-Spin Energy          =      -0.3840149064662803 [Eh]
	 Opposite-Spin Energy      =      -1.2872391324882737 [Eh]
	 Correlation Energy        =      -1.6712540389545540 [Eh]
	 Total Energy              =    -385.7514966523658018 [Eh]

	 ================> DF-SCS-MP2 Energies <==================
	-----------------------------------------------------------
	 SCS Same-Spin Scale       =       0.3333333333333333 [-]
	 SCS Opposite-Spin Scale   =       1.2000000000000000 [-]
	 SCS Same-Spin Energy      =      -0.1280049688220934 [Eh]
	 SCS Opposite-Spin Energy  =      -1.5446869589859284 [Eh]
	 SCS Correlation Energy    =      -1.6726919278080219 [Eh]
	 SCS Total Energy          =    -385.7529345412193038 [Eh]
	-----------------------------------------------------------

  Dipole Moment: [D]
     X:    -0.6825      Y:     1.5528      Z:    -0.6373     Total:     1.8119

*** Psi4 exiting successfully. Buy a developer a beer!
