                               Psi4 1.3.2 release

  ==> Input File <==

--------------------------------------------------------------------------
#psi4
#
memory 32 gb

molecule  {
0 1
  O       -0.8946000     0.3180840    -0.2486650
  O        0.2608140    -1.4535000     0.5764690
  C        1.4621750     0.4213130    -0.3980820
  C        1.8184670     1.3890190     0.7353960
  C        2.6165010    -0.5169580    -0.7250520
  C        0.4060209    -0.2624668    -0.0342398
  C       -2.1092640    -0.3317960     0.1925940
  C       -3.2536250     0.5656790    -0.2140850
  H        1.1864410     1.0054960    -1.2820320
  H        2.6888660     1.9907190     0.4595330
  H        2.0609350     0.8310830     1.6444090
  H        0.9859800     2.0639750     0.9510040
  H        3.4951390     0.0579210    -1.0318300
  H        2.3532220    -1.2022810    -1.5348280
  H        2.8748910    -1.1153660     0.1513080
  H       -2.1714740    -1.3192040    -0.2711440
  H       -2.0606790    -0.4764550     1.2759150
  H       -4.2047000     0.1215880     0.0924120
  H       -3.1592540     1.5451910     0.2586100
  H       -3.2661300     0.7008150    -1.2970470
units angstrom
no_reorient  #important for SAPT in psi4, default
symmetry c1  #important for SAPT in psi4, default
}

set PROPERTIES_ORIGIN ["COM"]
properties('MP2/aug-cc-pvtz', properties = ['dipole'])
--------------------------------------------------------------------------

    Molecular point group: c1
  Charge       = 0
  Multiplicity = 1
  Basis Set: AUG-CC-PVTZ
    Blend: AUG-CC-PVTZ
  Basis Set: (AUG-CC-PVTZ AUX)
    Blend: AUG-CC-PVTZ-JKFIT

    Orbital Energies [Eh]
    ---------------------

    Doubly Occupied:

       1A    -20.582434     2A    -20.529460     3A    -11.390825
       4A    -11.277645     5A    -11.249897     6A    -11.246622
       7A    -11.232172     8A    -11.217318     9A     -1.399509
      10A     -1.278703    11A     -1.146648    12A     -1.023307
      13A     -0.956689    14A     -0.926979    15A     -0.835896
      16A     -0.742303    17A     -0.714073    18A     -0.659331
      19A     -0.644546    20A     -0.621851    21A     -0.594807
      22A     -0.571385    23A     -0.557849    24A     -0.549458
      25A     -0.541029    26A     -0.529236    27A     -0.513109
      28A     -0.504846    29A     -0.485061    30A     -0.466311
      31A     -0.430065    32A     -0.424796

  @DF-RHF Final Energy:  -384.00813553437303

   => Energetics <=

    Nuclear Repulsion Energy =            395.2789699972692574
    One-Electron Energy =               -1306.8858854458960650
    Two-Electron Energy =                 527.5987799142537824
    Total Energy =                       -384.0081355343729683
  Basis Set: (AUG-CC-PVTZ AUX)
    Blend: AUG-CC-PVTZ-RI
    Molecular point group: c1

    Geometry (in Angstrom), charge = 0, multiplicity = 1:

       Center              X                  Y                   Z               Mass
    ------------   -----------------  -----------------  -----------------  -----------------
         O           -0.911271687789     0.307290284046    -0.242921852332    15.994914619570
         O            0.244142312211    -1.464293715954     0.582212147668    15.994914619570
         C            1.445503312211     0.410519284046    -0.392338852332    12.000000000000
         C            1.801795312211     1.378225284046     0.741139147668    12.000000000000
         C            2.599829312211    -0.527751715954    -0.719308852332    12.000000000000
         C            0.389349212211    -0.273260515954    -0.028496652332    12.000000000000
         C           -2.125935687789    -0.342589715954     0.198337147668    12.000000000000
         C           -3.270296687789     0.554885284046    -0.208341852332    12.000000000000
         H            1.169769312211     0.994702284046    -1.276288852332     1.007825032230
         H            2.672194312211     1.979925284046     0.465276147668     1.007825032230
         H            2.044263312211     0.820289284046     1.650152147668     1.007825032230
         H            0.969308312211     2.053181284046     0.956747147668     1.007825032230
         H            3.478467312211     0.047127284046    -1.026086852332     1.007825032230
         H            2.336550312211    -1.213074715954    -1.529084852332     1.007825032230
         H            2.858219312211    -1.126159715954     0.157051147668     1.007825032230
         H           -2.188145687789    -1.329997715954    -0.265400852332     1.007825032230
         H           -2.077350687789    -0.487248715954     1.281658147668     1.007825032230
         H           -4.221371687789     0.110794284046     0.098155147668     1.007825032230
         H           -3.175925687789     1.534397284046     0.264353147668     1.007825032230
         H           -3.282801687789     0.690021284046    -1.291303852332     1.007825032230

  Basis Set: AUG-CC-PVTZ
    Blend: AUG-CC-PVTZ
  Basis Set: (AUG-CC-PVTZ AUX)
    Blend: AUG-CC-PVTZ-JKFIT
	 Reference Energy          =    -384.0081355343730252 [Eh]
	 Singles Energy            =      -0.0000000000000000 [Eh]
	 Same-Spin Energy          =      -0.3904986833712695 [Eh]
	 Opposite-Spin Energy      =      -1.2987088589203315 [Eh]
	 Correlation Energy        =      -1.6892075422916011 [Eh]
	 Total Energy              =    -385.6973430766646516 [Eh]

	 ================> DF-SCS-MP2 Energies <==================
	-----------------------------------------------------------
	 SCS Same-Spin Scale       =       0.3333333333333333 [-]
	 SCS Opposite-Spin Scale   =       1.2000000000000000 [-]
	 SCS Same-Spin Energy      =      -0.1301662277904232 [Eh]
	 SCS Opposite-Spin Energy  =      -1.5584506307043977 [Eh]
	 SCS Correlation Energy    =      -1.6886168584948209 [Eh]
	 SCS Total Energy          =    -385.6967523928678361 [Eh]
	-----------------------------------------------------------

  Dipole Moment: [D]
     X:     0.4590      Y:     2.1306      Z:    -0.7929     Total:     2.3192

*** Psi4 exiting successfully. Buy a developer a beer!
