                               Psi4 1.3.2 release

  ==> Input File <==

--------------------------------------------------------------------------
#psi4
#
memory 32 gb

molecule  {
0 1
  O       -0.9005339     0.3382137    -0.2346305
  O        0.2608140    -1.4535000     0.5764690
  C        1.4621750     0.4213130    -0.3980820
  C        1.8184670     1.3890190     0.7353960
  C        2.6165010    -0.5169580    -0.7250520
  C        0.2447430    -0.3668820     0.0213200
  C       -2.1092640    -0.3317960     0.1925940
  C       -3.2536250     0.5656790    -0.2140850
  H        1.1864410     1.0054960    -1.2820320
  H        2.6888660     1.9907190     0.4595330
  H        2.0609350     0.8310830     1.6444090
  H        0.9859800     2.0639750     0.9510040
  H        3.4951390     0.0579210    -1.0318300
  H        2.3532220    -1.2022810    -1.5348280
  H        2.8748910    -1.1153660     0.1513080
  H       -2.1880201    -1.3222019    -0.2621489
  H       -2.0606790    -0.4764550     1.2759150
  H       -4.2047000     0.1215880     0.0924120
  H       -3.1592540     1.5451910     0.2586100
  H       -3.2661300     0.7008150    -1.2970470
units angstrom
no_reorient  #important for SAPT in psi4, default
symmetry c1  #important for SAPT in psi4, default
}

set PROPERTIES_ORIGIN ["COM"]
properties('MP2/aug-cc-pvtz', properties = ['dipole'])
--------------------------------------------------------------------------

    Molecular point group: c1
  Charge       = 0
  Multiplicity = 1
  Basis Set: AUG-CC-PVTZ
    Blend: AUG-CC-PVTZ
  Basis Set: (AUG-CC-PVTZ AUX)
    Blend: AUG-CC-PVTZ-JKFIT

    Orbital Energies [Eh]
    ---------------------

    Doubly Occupied:

       1A    -20.599563     2A    -20.542925     3A    -11.375409
       4A    -11.285578     5A    -11.246241     6A    -11.227442
       7A    -11.222849     8A    -11.217635     9A     -1.446424
      10A     -1.349848    11A     -1.094565    12A     -1.033111
      13A     -0.939676    14A     -0.893691    15A     -0.828520
      16A     -0.760702    17A     -0.699443    18A     -0.675919
      19A     -0.661152    20A     -0.619997    21A     -0.589893
      22A     -0.583819    23A     -0.554976    24A     -0.548792
      25A     -0.544384    26A     -0.518932    27A     -0.510540
      28A     -0.505987    29A     -0.489942    30A     -0.481258
      31A     -0.455857    32A     -0.436673

  @DF-RHF Final Energy:  -384.08452609952650

   => Energetics <=

    Nuclear Repulsion Energy =            395.5301781871627327
    One-Electron Energy =               -1307.3459273557796223
    Two-Electron Energy =                 527.7312230690904471
    Total Energy =                       -384.0845260995264425
  Basis Set: (AUG-CC-PVTZ AUX)
    Blend: AUG-CC-PVTZ-RI
    Molecular point group: c1

    Geometry (in Angstrom), charge = 0, multiplicity = 1:

       Center              X                  Y                   Z               Mass
    ------------   -----------------  -----------------  -----------------  -----------------
         O           -0.899572431065     0.335466166994    -0.236642648609    15.994914619570
         O            0.261775468935    -1.456247533006     0.574456851391    15.994914619570
         C            1.463136468935     0.418565466994    -0.400094148609    12.000000000000
         C            1.819428468935     1.386271466994     0.733383851391    12.000000000000
         C            2.617462468935    -0.519705533006    -0.727064148609    12.000000000000
         C            0.245704468935    -0.369629533006     0.019307851391    12.000000000000
         C           -2.108302531065    -0.334543533006     0.190581851391    12.000000000000
         C           -3.252663531065     0.562931466994    -0.216097148609    12.000000000000
         H            1.187402468935     1.002748466994    -1.284044148609     1.007825032230
         H            2.689827468935     1.987971466994     0.457520851391     1.007825032230
         H            2.061896468935     0.828335466994     1.642396851391     1.007825032230
         H            0.986941468935     2.061227466994     0.948991851391     1.007825032230
         H            3.496100468935     0.055173466994    -1.033842148609     1.007825032230
         H            2.354183468935    -1.205028533006    -1.536840148609     1.007825032230
         H            2.875852468935    -1.118113533006     0.149295851391     1.007825032230
         H           -2.187058631065    -1.324949433006    -0.264161048609     1.007825032230
         H           -2.059717531065    -0.479202533006     1.273902851391     1.007825032230
         H           -4.203738531065     0.118840466994     0.090399851391     1.007825032230
         H           -3.158292531065     1.542443466994     0.256597851391     1.007825032230
         H           -3.265168531065     0.698067466994    -1.299059148609     1.007825032230

  Basis Set: AUG-CC-PVTZ
    Blend: AUG-CC-PVTZ
  Basis Set: (AUG-CC-PVTZ AUX)
    Blend: AUG-CC-PVTZ-JKFIT
	 Reference Energy          =    -384.0845260995264994 [Eh]
	 Singles Energy            =      -0.0000000000000000 [Eh]
	 Same-Spin Energy          =      -0.3840767373430289 [Eh]
	 Opposite-Spin Energy      =      -1.2872502252983025 [Eh]
	 Correlation Energy        =      -1.6713269626413314 [Eh]
	 Total Energy              =    -385.7558530621678301 [Eh]

	 ================> DF-SCS-MP2 Energies <==================
	-----------------------------------------------------------
	 SCS Same-Spin Scale       =       0.3333333333333333 [-]
	 SCS Opposite-Spin Scale   =       1.2000000000000000 [-]
	 SCS Same-Spin Energy      =      -0.1280255791143430 [Eh]
	 SCS Opposite-Spin Energy  =      -1.5447002703579629 [Eh]
	 SCS Correlation Energy    =      -1.6727258494723058 [Eh]
	 SCS Total Energy          =    -385.7572519489988281 [Eh]
	-----------------------------------------------------------

  Dipole Moment: [D]
     X:    -0.6251      Y:     1.5355      Z:    -0.6112     Total:     1.7669

*** Psi4 exiting successfully. Buy a developer a beer!
