                               Psi4 1.3.2 release

  ==> Input File <==

--------------------------------------------------------------------------
#psi4
#
memory 32 gb

molecule  {
0 1
  O       -0.8946000     0.3180840    -0.2486650
  O        0.2608140    -1.4535000     0.5764690
  C        1.4621750     0.4213130    -0.3980820
  C        1.8209609     1.3786137     0.7434167
  C        2.6165010    -0.5169580    -0.7250520
  C        0.2447430    -0.3668820     0.0213200
  C       -2.1092640    -0.3317960     0.1925940
  C       -3.2536250     0.5656790    -0.2140850
  H        1.1849171     0.9973934    -1.2868599
  H        2.6888660     1.9907190     0.4595330
  H        2.0609350     0.8310830     1.6444090
  H        0.9859800     2.0639750     0.9510040
  H        3.4951390     0.0579210    -1.0318300
  H        2.3532220    -1.2022810    -1.5348280
  H        2.8748910    -1.1153660     0.1513080
  H       -2.1714740    -1.3192040    -0.2711440
  H       -2.0606790    -0.4764550     1.2759150
  H       -4.2047000     0.1215880     0.0924120
  H       -3.1592540     1.5451910     0.2586100
  H       -3.2661300     0.7008150    -1.2970470
units angstrom
no_reorient  #important for SAPT in psi4, default
symmetry c1  #important for SAPT in psi4, default
}

set PROPERTIES_ORIGIN ["COM"]
properties('MP2/aug-cc-pvtz', properties = ['dipole'])
--------------------------------------------------------------------------

    Molecular point group: c1
  Charge       = 0
  Multiplicity = 1
  Basis Set: AUG-CC-PVTZ
    Blend: AUG-CC-PVTZ
  Basis Set: (AUG-CC-PVTZ AUX)
    Blend: AUG-CC-PVTZ-JKFIT

    Orbital Energies [Eh]
    ---------------------

    Doubly Occupied:

       1A    -20.599399     2A    -20.540059     3A    -11.373344
       4A    -11.286489     5A    -11.245672     6A    -11.227329
       7A    -11.223948     8A    -11.217028     9A     -1.449834
      10A     -1.348826    11A     -1.094450    12A     -1.034634
      13A     -0.939193    14A     -0.895272    15A     -0.828437
      16A     -0.761850    17A     -0.699171    18A     -0.677828
      19A     -0.660780    20A     -0.619522    21A     -0.590460
      22A     -0.583444    23A     -0.555593    24A     -0.550619
      25A     -0.544487    26A     -0.519073    27A     -0.509389
      28A     -0.505541    29A     -0.489298    30A     -0.481727
      31A     -0.455306    32A     -0.435555

  @DF-RHF Final Energy:  -384.08570917178679

   => Energetics <=

    Nuclear Repulsion Energy =            395.8547584473719212
    One-Electron Energy =               -1307.9938228930320747
    Two-Electron Energy =                 528.0533552738733079
    Total Energy =                       -384.0857091717867888
  Basis Set: (AUG-CC-PVTZ AUX)
    Blend: AUG-CC-PVTZ-RI
    Molecular point group: c1

    Geometry (in Angstrom), charge = 0, multiplicity = 1:

       Center              X                  Y                   Z               Mass
    ------------   -----------------  -----------------  -----------------  -----------------
         O           -0.894844374239     0.319230045179    -0.249452486073    15.994914619570
         O            0.260569625761    -1.452353954821     0.575681513927    15.994914619570
         C            1.461930625761     0.422459045179    -0.398869486073    12.000000000000
         C            1.820716525761     1.379759745179     0.742629213927    12.000000000000
         C            2.616256625761    -0.515811954821    -0.725839486073    12.000000000000
         C            0.244498625761    -0.365735954821     0.020532513927    12.000000000000
         C           -2.109508374239    -0.330649954821     0.191806513927    12.000000000000
         C           -3.253869374239     0.566825045179    -0.214872486073    12.000000000000
         H            1.184672725761     0.998539445179    -1.287647386073     1.007825032230
         H            2.688621625761     1.991865045179     0.458745513927     1.007825032230
         H            2.060690625761     0.832229045179     1.643621513927     1.007825032230
         H            0.985735625761     2.065121045179     0.950216513927     1.007825032230
         H            3.494894625761     0.059067045179    -1.032617486073     1.007825032230
         H            2.352977625761    -1.201134954821    -1.535615486073     1.007825032230
         H            2.874646625761    -1.114219954821     0.150520513927     1.007825032230
         H           -2.171718374239    -1.318057954821    -0.271931486073     1.007825032230
         H           -2.060923374239    -0.475308954821     1.275127513927     1.007825032230
         H           -4.204944374239     0.122734045179     0.091624513927     1.007825032230
         H           -3.159498374239     1.546337045179     0.257822513927     1.007825032230
         H           -3.266374374239     0.701961045179    -1.297834486073     1.007825032230

  Basis Set: AUG-CC-PVTZ
    Blend: AUG-CC-PVTZ
  Basis Set: (AUG-CC-PVTZ AUX)
    Blend: AUG-CC-PVTZ-JKFIT
	 Reference Energy          =    -384.0857091717867888 [Eh]
	 Singles Energy            =      -0.0000000000000000 [Eh]
	 Same-Spin Energy          =      -0.3838653238421821 [Eh]
	 Opposite-Spin Energy      =      -1.2866475947293465 [Eh]
	 Correlation Energy        =      -1.6705129185715286 [Eh]
	 Total Energy              =    -385.7562220903583352 [Eh]

	 ================> DF-SCS-MP2 Energies <==================
	-----------------------------------------------------------
	 SCS Same-Spin Scale       =       0.3333333333333333 [-]
	 SCS Opposite-Spin Scale   =       1.2000000000000000 [-]
	 SCS Same-Spin Energy      =      -0.1279551079473940 [Eh]
	 SCS Opposite-Spin Energy  =      -1.5439771136752158 [Eh]
	 SCS Correlation Energy    =      -1.6719322216226098 [Eh]
	 SCS Total Energy          =    -385.7576413934094148 [Eh]
	-----------------------------------------------------------

  Dipole Moment: [D]
     X:    -0.7034      Y:     1.5909      Z:    -0.6050     Total:     1.8417

*** Psi4 exiting successfully. Buy a developer a beer!
