                               Psi4 1.3.2 release

  ==> Input File <==

--------------------------------------------------------------------------
#psi4
#
memory 32 gb

molecule  {
0 1
  O       -0.9313114     0.2650618    -0.2189210
  O        0.1970573    -1.4509303     0.5796682
  C        1.4621750     0.4213130    -0.3980820
  C        1.8184670     1.3890190     0.7353960
  C        2.6165010    -0.5169580    -0.7250520
  C        0.2447430    -0.3668820     0.0213200
  C       -2.1092640    -0.3317960     0.1925940
  C       -3.2536250     0.5656790    -0.2140850
  H        1.1864410     1.0054960    -1.2820320
  H        2.6888660     1.9907190     0.4595330
  H        2.0609350     0.8310830     1.6444090
  H        0.9859800     2.0639750     0.9510040
  H        3.4951390     0.0579210    -1.0318300
  H        2.3532220    -1.2022810    -1.5348280
  H        2.8748910    -1.1153660     0.1513080
  H       -2.1714740    -1.3192040    -0.2711440
  H       -2.0606790    -0.4764550     1.2759150
  H       -4.2047000     0.1215880     0.0924120
  H       -3.1592540     1.5451910     0.2586100
  H       -3.2661300     0.7008150    -1.2970470
units angstrom
no_reorient  #important for SAPT in psi4, default
symmetry c1  #important for SAPT in psi4, default
}

set PROPERTIES_ORIGIN ["COM"]
properties('MP2/aug-cc-pvtz', properties = ['dipole'])
--------------------------------------------------------------------------

    Molecular point group: c1
  Charge       = 0
  Multiplicity = 1
  Basis Set: AUG-CC-PVTZ
    Blend: AUG-CC-PVTZ
  Basis Set: (AUG-CC-PVTZ AUX)
    Blend: AUG-CC-PVTZ-JKFIT

    Orbital Energies [Eh]
    ---------------------

    Doubly Occupied:

       1A    -20.591146     2A    -20.538083     3A    -11.375533
       4A    -11.276729     5A    -11.253705     6A    -11.231202
       7A    -11.222175     8A    -11.219558     9A     -1.461122
      10A     -1.348031    11A     -1.100320    12A     -1.032486
      13A     -0.943722    14A     -0.901955    15A     -0.828188
      16A     -0.765537    17A     -0.703955    18A     -0.683072
      19A     -0.662167    20A     -0.623043    21A     -0.591206
      22A     -0.587589    23A     -0.555759    24A     -0.550398
      25A     -0.545980    26A     -0.523027    27A     -0.506625
      28A     -0.496975    29A     -0.494211    30A     -0.483036
      31A     -0.445612    32A     -0.438960

  @DF-RHF Final Energy:  -384.08375156134690

   => Energetics <=

    Nuclear Repulsion Energy =            396.8461610692266959
    One-Electron Energy =               -1309.8976189892678121
    Two-Electron Energy =                 528.9677063586942722
    Total Energy =                       -384.0837515613468440
  Basis Set: (AUG-CC-PVTZ AUX)
    Blend: AUG-CC-PVTZ-RI
    Molecular point group: c1

    Geometry (in Angstrom), charge = 0, multiplicity = 1:

       Center              X                  Y                   Z               Mass
    ------------   -----------------  -----------------  -----------------  -----------------
         O           -0.917467928663     0.272013601325    -0.223460441245    15.994914619570
         O            0.210900771337    -1.443978498675     0.575128758755    15.994914619570
         C            1.476018471337     0.428264801325    -0.402621441245    12.000000000000
         C            1.832310471337     1.395970801325     0.730856558755    12.000000000000
         C            2.630344471337    -0.510006198675    -0.729591441245    12.000000000000
         C            0.258586471337    -0.359930198675     0.016780558755    12.000000000000
         C           -2.095420528663    -0.324844198675     0.188054558755    12.000000000000
         C           -3.239781528663     0.572630801325    -0.218624441245    12.000000000000
         H            1.200284471337     1.012447801325    -1.286571441245     1.007825032230
         H            2.702709471337     1.997670801325     0.454993558755     1.007825032230
         H            2.074778471337     0.838034801325     1.639869558755     1.007825032230
         H            0.999823471337     2.070926801325     0.946464558755     1.007825032230
         H            3.508982471337     0.064872801325    -1.036369441245     1.007825032230
         H            2.367065471337    -1.195329198675    -1.539367441245     1.007825032230
         H            2.888734471337    -1.108414198675     0.146768558755     1.007825032230
         H           -2.157630528663    -1.312252198675    -0.275683441245     1.007825032230
         H           -2.046835528663    -0.469503198675     1.271375558755     1.007825032230
         H           -4.190856528663     0.128539801325     0.087872558755     1.007825032230
         H           -3.145410528663     1.552142801325     0.254070558755     1.007825032230
         H           -3.252286528663     0.707766801325    -1.301586441245     1.007825032230

  Basis Set: AUG-CC-PVTZ
    Blend: AUG-CC-PVTZ
  Basis Set: (AUG-CC-PVTZ AUX)
    Blend: AUG-CC-PVTZ-JKFIT
	 Reference Energy          =    -384.0837515613469009 [Eh]
	 Singles Energy            =      -0.0000000000000000 [Eh]
	 Same-Spin Energy          =      -0.3834681407589560 [Eh]
	 Opposite-Spin Energy      =      -1.2848101915060428 [Eh]
	 Correlation Energy        =      -1.6682783322649988 [Eh]
	 Total Energy              =    -385.7520298936119048 [Eh]

	 ================> DF-SCS-MP2 Energies <==================
	-----------------------------------------------------------
	 SCS Same-Spin Scale       =       0.3333333333333333 [-]
	 SCS Opposite-Spin Scale   =       1.2000000000000000 [-]
	 SCS Same-Spin Energy      =      -0.1278227135863186 [Eh]
	 SCS Opposite-Spin Energy  =      -1.5417722298072514 [Eh]
	 SCS Correlation Energy    =      -1.6695949433935700 [Eh]
	 SCS Total Energy          =    -385.7533465047404775 [Eh]
	-----------------------------------------------------------

  Dipole Moment: [D]
     X:    -0.2039      Y:     1.7385      Z:    -0.7022     Total:     1.8860

*** Psi4 exiting successfully. Buy a developer a beer!
