                               Psi4 1.3.2 release

  ==> Input File <==

--------------------------------------------------------------------------
#psi4
#
memory 32 gb

molecule  {
0 1
  O       -0.8946000     0.3180840    -0.2486650
  O        0.2608140    -1.4535000     0.5764690
  C        1.4621750     0.4213130    -0.3980820
  C        1.8799236     1.4151435     0.6909351
  C        2.6165010    -0.5169580    -0.7250520
  C        0.2479785    -0.4047833    -0.0479649
  C       -2.1092640    -0.3317960     0.1925940
  C       -3.2536250     0.5656790    -0.2140850
  H        1.1864410     1.0054960    -1.2820320
  H        2.6888660     1.9907190     0.4595330
  H        2.0609350     0.8310830     1.6444090
  H        0.9859800     2.0639750     0.9510040
  H        3.4951390     0.0579210    -1.0318300
  H        2.3532220    -1.2022810    -1.5348280
  H        2.8748910    -1.1153660     0.1513080
  H       -2.1714740    -1.3192040    -0.2711440
  H       -2.0606790    -0.4764550     1.2759150
  H       -4.2047000     0.1215880     0.0924120
  H       -3.1592540     1.5451910     0.2586100
  H       -3.2661300     0.7008150    -1.2970470
units angstrom
no_reorient  #important for SAPT in psi4, default
symmetry c1  #important for SAPT in psi4, default
}

set PROPERTIES_ORIGIN ["COM"]
properties('MP2/aug-cc-pvtz', properties = ['dipole'])
--------------------------------------------------------------------------

    Molecular point group: c1
  Charge       = 0
  Multiplicity = 1
  Basis Set: AUG-CC-PVTZ
    Blend: AUG-CC-PVTZ
  Basis Set: (AUG-CC-PVTZ AUX)
    Blend: AUG-CC-PVTZ-JKFIT

    Orbital Energies [Eh]
    ---------------------

    Doubly Occupied:

       1A    -20.598239     2A    -20.544156     3A    -11.376695
       4A    -11.285874     5A    -11.246578     6A    -11.228781
       7A    -11.223475     8A    -11.216398     9A     -1.447421
      10A     -1.349239    11A     -1.094024    12A     -1.033758
      13A     -0.938683    14A     -0.896846    15A     -0.829252
      16A     -0.760255    17A     -0.698324    18A     -0.677120
      19A     -0.660021    20A     -0.621227    21A     -0.592542
      22A     -0.583859    23A     -0.561431    24A     -0.553499
      25A     -0.539234    26A     -0.520228    27A     -0.510464
      28A     -0.504618    29A     -0.480173    30A     -0.476415
      31A     -0.454524    32A     -0.439843

  @DF-RHF Final Energy:  -384.07318144804083

   => Energetics <=

    Nuclear Repulsion Energy =            395.1318894801332249
    One-Electron Energy =               -1306.5237504358431124
    Two-Electron Energy =                 527.3186795076691169
    Total Energy =                       -384.0731814480408275
  Basis Set: (AUG-CC-PVTZ AUX)
    Blend: AUG-CC-PVTZ-RI
    Molecular point group: c1

    Geometry (in Angstrom), charge = 0, multiplicity = 1:

       Center              X                  Y                   Z               Mass
    ------------   -----------------  -----------------  -----------------  -----------------
         O           -0.901287260137     0.319301476351    -0.236906952550    15.994914619570
         O            0.254126739863    -1.452282523649     0.588227047450    15.994914619570
         C            1.455487739863     0.422530476351    -0.386323952550    12.000000000000
         C            1.873236339863     1.416360976351     0.702693147450    12.000000000000
         C            2.609813739863    -0.515740523649    -0.713293952550    12.000000000000
         C            0.241291239863    -0.403565823649    -0.036206852550    12.000000000000
         C           -2.115951260137    -0.330578523649     0.204352047450    12.000000000000
         C           -3.260312260137     0.566896476351    -0.202326952550    12.000000000000
         H            1.179753739863     1.006713476351    -1.270273952550     1.007825032230
         H            2.682178739863     1.991936476351     0.471291047450     1.007825032230
         H            2.054247739863     0.832300476351     1.656167047450     1.007825032230
         H            0.979292739863     2.065192476351     0.962762047450     1.007825032230
         H            3.488451739863     0.059138476351    -1.020071952550     1.007825032230
         H            2.346534739863    -1.201063523649    -1.523069952550     1.007825032230
         H            2.868203739863    -1.114148523649     0.163066047450     1.007825032230
         H           -2.178161260137    -1.317986523649    -0.259385952550     1.007825032230
         H           -2.067366260137    -0.475237523649     1.287673047450     1.007825032230
         H           -4.211387260137     0.122805476351     0.104170047450     1.007825032230
         H           -3.165941260137     1.546408476351     0.270368047450     1.007825032230
         H           -3.272817260137     0.702032476351    -1.285288952550     1.007825032230

  Basis Set: AUG-CC-PVTZ
    Blend: AUG-CC-PVTZ
  Basis Set: (AUG-CC-PVTZ AUX)
    Blend: AUG-CC-PVTZ-JKFIT
	 Reference Energy          =    -384.0731814480408275 [Eh]
	 Singles Energy            =      -0.0000000000000000 [Eh]
	 Same-Spin Energy          =      -0.3842434620743261 [Eh]
	 Opposite-Spin Energy      =      -1.2879187849314733 [Eh]
	 Correlation Energy        =      -1.6721622470057995 [Eh]
	 Total Energy              =    -385.7453436950466426 [Eh]

	 ================> DF-SCS-MP2 Energies <==================
	-----------------------------------------------------------
	 SCS Same-Spin Scale       =       0.3333333333333333 [-]
	 SCS Opposite-Spin Scale   =       1.2000000000000000 [-]
	 SCS Same-Spin Energy      =      -0.1280811540247754 [Eh]
	 SCS Opposite-Spin Energy  =      -1.5455025419177679 [Eh]
	 SCS Correlation Energy    =      -1.6735836959425434 [Eh]
	 SCS Total Energy          =    -385.7467651439833958 [Eh]
	-----------------------------------------------------------

  Dipole Moment: [D]
     X:    -0.6699      Y:     1.5276      Z:    -0.6529     Total:     1.7912

*** Psi4 exiting successfully. Buy a developer a beer!
