                               Psi4 1.3.2 release

  ==> Input File <==

--------------------------------------------------------------------------
#psi4
#
memory 32 gb

molecule  {
0 1
  O       -0.8946000     0.3180840    -0.2486650
  O        0.2608140    -1.4535000     0.5764690
  C        1.4621750     0.4213130    -0.3980820
  C        1.7719650     1.2627175     0.5874585
  C        2.6165010    -0.5169580    -0.7250520
  C        0.2447430    -0.3668820     0.0213200
  C       -2.1092640    -0.3317960     0.1925940
  C       -3.2536250     0.5656790    -0.2140850
  H        1.1864410     1.0054960    -1.2820320
  H        2.6888660     1.9907190     0.4595330
  H        2.0609350     0.8310830     1.6444090
  H        0.9859800     2.0639750     0.9510040
  H        3.4951390     0.0579210    -1.0318300
  H        2.3532220    -1.2022810    -1.5348280
  H        2.8748910    -1.1153660     0.1513080
  H       -2.1714740    -1.3192040    -0.2711440
  H       -2.0606790    -0.4764550     1.2759150
  H       -4.2047000     0.1215880     0.0924120
  H       -3.1592540     1.5451910     0.2586100
  H       -3.2661300     0.7008150    -1.2970470
units angstrom
no_reorient  #important for SAPT in psi4, default
symmetry c1  #important for SAPT in psi4, default
}

set PROPERTIES_ORIGIN ["COM"]
properties('MP2/aug-cc-pvtz', properties = ['dipole'])
--------------------------------------------------------------------------

    Molecular point group: c1
  Charge       = 0
  Multiplicity = 1
  Basis Set: AUG-CC-PVTZ
    Blend: AUG-CC-PVTZ
  Basis Set: (AUG-CC-PVTZ AUX)
    Blend: AUG-CC-PVTZ-JKFIT

    Orbital Energies [Eh]
    ---------------------

    Doubly Occupied:

       1A    -20.601085     2A    -20.542737     3A    -11.376584
       4A    -11.287519     5A    -11.238665     6A    -11.236683
       7A    -11.224504     8A    -11.218894     9A     -1.452126
      10A     -1.351041    11A     -1.132588    12A     -1.037712
      13A     -0.939812    14A     -0.892169    15A     -0.825128
      16A     -0.764204    17A     -0.709385    18A     -0.679930
      19A     -0.668211    20A     -0.639220    21A     -0.594119
      22A     -0.584047    23A     -0.561212    24A     -0.551358
      25A     -0.529872    26A     -0.523135    27A     -0.510898
      28A     -0.500510    29A     -0.492101    30A     -0.463678
      31A     -0.448321    32A     -0.429194

  @DF-RHF Final Energy:  -384.03629079747776

   => Energetics <=

    Nuclear Repulsion Energy =            399.3286232352749607
    One-Electron Energy =               -1314.7165400567912457
    Two-Electron Energy =                 531.3516260240385236
    Total Energy =                       -384.0362907974777045
  Basis Set: (AUG-CC-PVTZ AUX)
    Blend: AUG-CC-PVTZ-RI
    Molecular point group: c1

    Geometry (in Angstrom), charge = 0, multiplicity = 1:

       Center              X                  Y                   Z               Mass
    ------------   -----------------  -----------------  -----------------  -----------------
         O           -0.889792719048     0.331140313753    -0.233372431379    15.994914619570
         O            0.265621280952    -1.440443686247     0.591761568621    15.994914619570
         C            1.466982280952     0.434369313753    -0.382789431379    12.000000000000
         C            1.776772280952     1.275773813753     0.602751068621    12.000000000000
         C            2.621308280952    -0.503901686247    -0.709759431379    12.000000000000
         C            0.249550280952    -0.353825686247     0.036612568621    12.000000000000
         C           -2.104456719048    -0.318739686247     0.207886568621    12.000000000000
         C           -3.248817719048     0.578735313753    -0.198792431379    12.000000000000
         H            1.191248280952     1.018552313753    -1.266739431379     1.007825032230
         H            2.693673280952     2.003775313753     0.474825568621     1.007825032230
         H            2.065742280952     0.844139313753     1.659701568621     1.007825032230
         H            0.990787280952     2.077031313753     0.966296568621     1.007825032230
         H            3.499946280952     0.070977313753    -1.016537431379     1.007825032230
         H            2.358029280952    -1.189224686247    -1.519535431379     1.007825032230
         H            2.879698280952    -1.102309686247     0.166600568621     1.007825032230
         H           -2.166666719048    -1.306147686247    -0.255851431379     1.007825032230
         H           -2.055871719048    -0.463398686247     1.291207568621     1.007825032230
         H           -4.199892719048     0.134644313753     0.107704568621     1.007825032230
         H           -3.154446719048     1.558247313753     0.273902568621     1.007825032230
         H           -3.261322719048     0.713871313753    -1.281754431379     1.007825032230

  Basis Set: AUG-CC-PVTZ
    Blend: AUG-CC-PVTZ
  Basis Set: (AUG-CC-PVTZ AUX)
    Blend: AUG-CC-PVTZ-JKFIT
	 Reference Energy          =    -384.0362907974777613 [Eh]
	 Singles Energy            =      -0.0000000000000000 [Eh]
	 Same-Spin Energy          =      -0.3868979360726805 [Eh]
	 Opposite-Spin Energy      =      -1.2907932149155701 [Eh]
	 Correlation Energy        =      -1.6776911509882506 [Eh]
	 Total Energy              =    -385.7139819484660279 [Eh]

	 ================> DF-SCS-MP2 Energies <==================
	-----------------------------------------------------------
	 SCS Same-Spin Scale       =       0.3333333333333333 [-]
	 SCS Opposite-Spin Scale   =       1.2000000000000000 [-]
	 SCS Same-Spin Energy      =      -0.1289659786908935 [Eh]
	 SCS Opposite-Spin Energy  =      -1.5489518578986841 [Eh]
	 SCS Correlation Energy    =      -1.6779178365895775 [Eh]
	 SCS Total Energy          =    -385.7142086340673472 [Eh]
	-----------------------------------------------------------

  Dipole Moment: [D]
     X:    -0.8042      Y:     1.5009      Z:    -0.6617     Total:     1.8268

*** Psi4 exiting successfully. Buy a developer a beer!
