                               Psi4 1.4a3.dev225

  ==> Input File <==

--------------------------------------------------------------------------
#psi4
#
memory 32 gb

molecule  {
0 1
  O       -0.8844740     0.2512200    -0.2589860
  O        0.2594420    -1.5357810     0.5540110
  C        1.4751410     0.3499910    -0.3991000
  C        1.6466699     1.5265384     0.5379801
  C        2.7076510    -0.5454760    -0.4239080
  C        0.2527860    -0.4396860     0.0153880
  C       -2.1066380    -0.4073920     0.1545600
  C       -3.2437300     0.5134160    -0.2249800
  H        1.2747850     0.7394360    -1.4046030
  H        2.5199720     2.1341380     0.2549160
  H        1.8085970     1.1898350     1.5745190
  H        0.7675450     2.1869880     0.5363060
  H        3.5809030     0.0268420    -0.7502520
  H        2.5706130    -1.3892510    -1.1045820
  H        2.9042310    -0.9491700     0.5720060
  H       -2.1727950    -1.3769310    -0.3467220
  H       -2.0631380    -0.5911830     1.2316620
  H       -4.1987120     0.0656950     0.0643780
  H       -3.1432900     1.4757990     0.2814060
  H       -3.2533220     0.6866720    -1.3031500
units angstrom
no_reorient  #important for SAPT in psi4, default
symmetry c1  #important for SAPT in psi4, default
}

set PROPERTIES_ORIGIN ["COM"]
properties('MP2/aug-cc-pvtz', properties = ['dipole'])
--------------------------------------------------------------------------

    Molecular point group: c1
  Charge       = 0
  Multiplicity = 1
  Basis Set: AUG-CC-PVTZ
    Blend: AUG-CC-PVTZ
  Basis Set: (AUG-CC-PVTZ AUX)
    Blend: AUG-CC-PVTZ-JKFIT

    Orbital Energies [Eh]
    ---------------------

    Doubly Occupied:

       1A    -20.598693     2A    -20.541428     3A    -11.374442
       4A    -11.287069     5A    -11.246250     6A    -11.227549
       7A    -11.224413     8A    -11.216199     9A     -1.448688
      10A     -1.348473    11A     -1.096105    12A     -1.034125
      13A     -0.938078    14A     -0.893987    15A     -0.828968
      16A     -0.761517    17A     -0.698140    18A     -0.677074
      19A     -0.662566    20A     -0.623168    21A     -0.586245
      22A     -0.581775    23A     -0.556980    24A     -0.548270
      25A     -0.541338    26A     -0.518689    27A     -0.508955
      28A     -0.506193    29A     -0.488334    30A     -0.483838
      31A     -0.455300    32A     -0.436269

  @DF-RHF Final Energy:  -384.08496916047540

   => Energetics <=

    Nuclear Repulsion Energy =            396.0785475433632996
    One-Electron Energy =               -1308.4488009144045009
    Two-Electron Energy =                 528.2852842105656919
    Total Energy =                       -384.0849691604754526
  Basis Set: (AUG-CC-PVTZ AUX)
    Blend: AUG-CC-PVTZ-RI
    Molecular point group: c1

    Geometry (in Angstrom), charge = 0, multiplicity = 1:

       Center              X                  Y                   Z               Mass
    ------------   -----------------  -----------------  -----------------  -----------------
         O           -0.879178453946     0.288658669825    -0.261061923267    15.994914619570
         O            0.264737546054    -1.498342330175     0.551935076733    15.994914619570
         C            1.480436546054     0.387429669825    -0.401175923267    12.000000000000
         C            1.651965446054     1.563977069825     0.535904176733    12.000000000000
         C            2.712946546054    -0.508037330175    -0.425983923267    12.000000000000
         C            0.258081546054    -0.402247330175     0.013312076733    12.000000000000
         C           -2.101342453946    -0.369953330175     0.152484076733    12.000000000000
         C           -3.238434453946     0.550854669825    -0.227055923267    12.000000000000
         H            1.280080546054     0.776874669825    -1.406678923267     1.007825032230
         H            2.525267546054     2.171576669825     0.252840076733     1.007825032230
         H            1.813892546054     1.227273669825     1.572443076733     1.007825032230
         H            0.772840546054     2.224426669825     0.534230076733     1.007825032230
         H            3.586198546054     0.064280669825    -0.752327923267     1.007825032230
         H            2.575908546054    -1.351812330175    -1.106657923267     1.007825032230
         H            2.909526546054    -0.911731330175     0.569930076733     1.007825032230
         H           -2.167499453946    -1.339492330175    -0.348797923267     1.007825032230
         H           -2.057842453946    -0.553744330175     1.229586076733     1.007825032230
         H           -4.193416453946     0.103133669825     0.062302076733     1.007825032230
         H           -3.137994453946     1.513237669825     0.279330076733     1.007825032230
         H           -3.248026453946     0.724110669825    -1.305225923267     1.007825032230

  Basis Set: AUG-CC-PVTZ
    Blend: AUG-CC-PVTZ
  Basis Set: (AUG-CC-PVTZ AUX)
    Blend: AUG-CC-PVTZ-JKFIT
	 Reference Energy          =    -384.0849691604753957 [Eh]
	 Singles Energy            =      -0.0000000000000000 [Eh]
	 Same-Spin Energy          =      -0.3839661316468046 [Eh]
	 Opposite-Spin Energy      =      -1.2868969898745282 [Eh]
	 Correlation Energy        =      -1.6708631215213328 [Eh]
	 Total Energy              =    -385.7558322819967316 [Eh]

	 ================> DF-SCS-MP2 Energies <==================
	-----------------------------------------------------------
	 SCS Same-Spin Scale       =       0.3333333333333333 [-]
	 SCS Opposite-Spin Scale   =       1.2000000000000000 [-]
	 SCS Same-Spin Energy      =      -0.1279887105489348 [Eh]
	 SCS Opposite-Spin Energy  =      -1.5442763878494337 [Eh]
	 SCS Correlation Energy    =      -1.6722650983983685 [Eh]
	 SCS Total Energy          =    -385.7572342588737797 [Eh]
	-----------------------------------------------------------

  Dipole Moment: [D]
     X:    -0.7300      Y:     1.6008      Z:    -0.6345     Total:     1.8703

*** Psi4 exiting successfully. Buy a developer a beer!
