                               Psi4 1.3.2 release

  ==> Input File <==

--------------------------------------------------------------------------
#psi4
#
memory 32 gb

molecule  {
0 1
  O       -0.8682773     0.3533180    -0.2662049
  O        0.2608140    -1.4535000     0.5764690
  C        1.4303416     0.4598899    -0.4146778
  C        1.8184670     1.3890190     0.7353960
  C        2.6165010    -0.5169580    -0.7250520
  C        0.2447430    -0.3668820     0.0213200
  C       -2.1092640    -0.3317960     0.1925940
  C       -3.2536250     0.5656790    -0.2140850
  H        1.1864410     1.0054960    -1.2820320
  H        2.6888660     1.9907190     0.4595330
  H        2.0609350     0.8310830     1.6444090
  H        0.9859800     2.0639750     0.9510040
  H        3.4951390     0.0579210    -1.0318300
  H        2.3532220    -1.2022810    -1.5348280
  H        2.8748910    -1.1153660     0.1513080
  H       -2.1714740    -1.3192040    -0.2711440
  H       -2.0606790    -0.4764550     1.2759150
  H       -4.2047000     0.1215880     0.0924120
  H       -3.1592540     1.5451910     0.2586100
  H       -3.2661300     0.7008150    -1.2970470
units angstrom
no_reorient  #important for SAPT in psi4, default
symmetry c1  #important for SAPT in psi4, default
}

set PROPERTIES_ORIGIN ["COM"]
properties('MP2/aug-cc-pvtz', properties = ['dipole'])
--------------------------------------------------------------------------

    Molecular point group: c1
  Charge       = 0
  Multiplicity = 1
  Basis Set: AUG-CC-PVTZ
    Blend: AUG-CC-PVTZ
  Basis Set: (AUG-CC-PVTZ AUX)
    Blend: AUG-CC-PVTZ-JKFIT

    Orbital Energies [Eh]
    ---------------------

    Doubly Occupied:

       1A    -20.600625     2A    -20.542093     3A    -11.372900
       4A    -11.290942     5A    -11.241064     6A    -11.225537
       7A    -11.225505     8A    -11.216504     9A     -1.443828
      10A     -1.347068    11A     -1.089733    12A     -1.034180
      13A     -0.933704    14A     -0.891693    15A     -0.829868
      16A     -0.760023    17A     -0.699379    18A     -0.673908
      19A     -0.660569    20A     -0.615361    21A     -0.591098
      22A     -0.580179    23A     -0.554142    24A     -0.549298
      25A     -0.542491    26A     -0.519742    27A     -0.513124
      28A     -0.506246    29A     -0.491516    30A     -0.473792
      31A     -0.458555    32A     -0.434765

  @DF-RHF Final Energy:  -384.07875859499552

   => Energetics <=

    Nuclear Repulsion Energy =            395.1183721615867057
    One-Electron Energy =               -1306.5754029428710510
    Two-Electron Energy =                 527.3782721862888820
    Total Energy =                       -384.0787585949955201
  Basis Set: (AUG-CC-PVTZ AUX)
    Blend: AUG-CC-PVTZ-RI
    Molecular point group: c1

    Geometry (in Angstrom), charge = 0, multiplicity = 1:

       Center              X                  Y                   Z               Mass
    ------------   -----------------  -----------------  -----------------  -----------------
         O           -0.868613311230     0.344475416897    -0.262072820461    15.994914619570
         O            0.260477988770    -1.462342583103     0.580601079539    15.994914619570
         C            1.430005588770     0.451047316897    -0.410545720461    12.000000000000
         C            1.818130988770     1.380176416897     0.739528079539    12.000000000000
         C            2.616164988770    -0.525800583103    -0.720919920461    12.000000000000
         C            0.244406988770    -0.375724583103     0.025452079539    12.000000000000
         C           -2.109600011230    -0.340638583103     0.196726079539    12.000000000000
         C           -3.253961011230     0.556836416897    -0.209952920461    12.000000000000
         H            1.186104988770     0.996653416897    -1.277899920461     1.007825032230
         H            2.688529988770     1.981876416897     0.463665079539     1.007825032230
         H            2.060598988770     0.822240416897     1.648541079539     1.007825032230
         H            0.985643988770     2.055132416897     0.955136079539     1.007825032230
         H            3.494802988770     0.049078416897    -1.027697920461     1.007825032230
         H            2.352885988770    -1.211123583103    -1.530695920461     1.007825032230
         H            2.874554988770    -1.124208583103     0.155440079539     1.007825032230
         H           -2.171810011230    -1.328046583103    -0.267011920461     1.007825032230
         H           -2.061015011230    -0.485297583103     1.280047079539     1.007825032230
         H           -4.205036011230     0.112745416897     0.096544079539     1.007825032230
         H           -3.159590011230     1.536348416897     0.262742079539     1.007825032230
         H           -3.266466011230     0.691972416897    -1.292914920461     1.007825032230

  Basis Set: AUG-CC-PVTZ
    Blend: AUG-CC-PVTZ
  Basis Set: (AUG-CC-PVTZ AUX)
    Blend: AUG-CC-PVTZ-JKFIT
	 Reference Energy          =    -384.0787585949955201 [Eh]
	 Singles Energy            =      -0.0000000000000000 [Eh]
	 Same-Spin Energy          =      -0.3842934857636985 [Eh]
	 Opposite-Spin Energy      =      -1.2883321478818057 [Eh]
	 Correlation Energy        =      -1.6726256336455043 [Eh]
	 Total Energy              =    -385.7513842286410295 [Eh]

	 ================> DF-SCS-MP2 Energies <==================
	-----------------------------------------------------------
	 SCS Same-Spin Scale       =       0.3333333333333333 [-]
	 SCS Opposite-Spin Scale   =       1.2000000000000000 [-]
	 SCS Same-Spin Energy      =      -0.1280978285878995 [Eh]
	 SCS Opposite-Spin Energy  =      -1.5459985774581668 [Eh]
	 SCS Correlation Energy    =      -1.6740964060460664 [Eh]
	 SCS Total Energy          =    -385.7528550010416097 [Eh]
	-----------------------------------------------------------

  Dipole Moment: [D]
     X:    -0.8950      Y:     1.5283      Z:    -0.5613     Total:     1.8579

*** Psi4 exiting successfully. Buy a developer a beer!
