                               Psi4 1.3.2 release

  ==> Input File <==

--------------------------------------------------------------------------
#psi4
#
memory 32 gb

molecule  {
0 1
  O       -0.8946000     0.3180840    -0.2486650
  O        0.2608140    -1.4535000     0.5764690
  C        1.4621750     0.4213130    -0.3980820
  C        1.8184670     1.3890190     0.7353960
  C        2.6165010    -0.5169580    -0.7250520
  C        0.2447430    -0.3668820     0.0213200
  C       -2.2772052    -0.4216494     0.2536031
  C       -3.2536250     0.5656790    -0.2140850
  H        1.1864410     1.0054960    -1.2820320
  H        2.6888660     1.9907190     0.4595330
  H        2.0609350     0.8310830     1.6444090
  H        0.9859800     2.0639750     0.9510040
  H        3.4951390     0.0579210    -1.0318300
  H        2.3532220    -1.2022810    -1.5348280
  H        2.8748910    -1.1153660     0.1513080
  H       -2.1714740    -1.3192040    -0.2711440
  H       -2.0606790    -0.4764550     1.2759150
  H       -4.2047000     0.1215880     0.0924120
  H       -3.1592540     1.5451910     0.2586100
  H       -3.2661300     0.7008150    -1.2970470
units angstrom
no_reorient  #important for SAPT in psi4, default
symmetry c1  #important for SAPT in psi4, default
}

set PROPERTIES_ORIGIN ["COM"]
properties('MP2/aug-cc-pvtz', properties = ['dipole'])
--------------------------------------------------------------------------

    Molecular point group: c1
  Charge       = 0
  Multiplicity = 1
  Basis Set: AUG-CC-PVTZ
    Blend: AUG-CC-PVTZ
  Basis Set: (AUG-CC-PVTZ AUX)
    Blend: AUG-CC-PVTZ-JKFIT

    Orbital Energies [Eh]
    ---------------------

    Doubly Occupied:

       1A    -20.573495     2A    -20.526680     3A    -11.359146
       4A    -11.299849     5A    -11.236729     6A    -11.233507
       7A    -11.220803     8A    -11.210896     9A     -1.414401
      10A     -1.317485    11A     -1.086125    12A     -1.054037
      13A     -0.932808    14A     -0.883679    15A     -0.838715
      16A     -0.735322    17A     -0.685140    18A     -0.678036
      19A     -0.644322    20A     -0.614329    21A     -0.590634
      22A     -0.588045    23A     -0.550427    24A     -0.546881
      25A     -0.540813    26A     -0.533948    27A     -0.521397
      28A     -0.489144    29A     -0.479322    30A     -0.469761
      31A     -0.446734    32A     -0.421326

  @DF-RHF Final Energy:  -384.05789517273257

   => Energetics <=

    Nuclear Repulsion Energy =            392.7575687880085979
    One-Electron Energy =               -1302.1830576814327287
    Two-Electron Energy =                 525.3675937206916160
    Total Energy =                       -384.0578951727325148
  Basis Set: (AUG-CC-PVTZ AUX)
    Blend: AUG-CC-PVTZ-RI
    Molecular point group: c1

    Geometry (in Angstrom), charge = 0, multiplicity = 1:

       Center              X                  Y                   Z               Mass
    ------------   -----------------  -----------------  -----------------  -----------------
         O           -0.877239104474     0.327372540255    -0.254972006169    15.994914619570
         O            0.278174895526    -1.444211459745     0.570161993831    15.994914619570
         C            1.479535895526     0.430601540255    -0.404389006169    12.000000000000
         C            1.835827895526     1.398307540255     0.729088993831    12.000000000000
         C            2.633861895526    -0.507669459745    -0.731359006169    12.000000000000
         C            0.262103895526    -0.357593459745     0.015012993831    12.000000000000
         C           -2.259844304474    -0.412360859745     0.247296093831    12.000000000000
         C           -3.236264104474     0.574967540255    -0.220392006169    12.000000000000
         H            1.203801895526     1.014784540255    -1.288339006169     1.007825032230
         H            2.706226895526     2.000007540255     0.453225993831     1.007825032230
         H            2.078295895526     0.840371540255     1.638101993831     1.007825032230
         H            1.003340895526     2.073263540255     0.944696993831     1.007825032230
         H            3.512499895526     0.067209540255    -1.038137006169     1.007825032230
         H            2.370582895526    -1.192992459745    -1.541135006169     1.007825032230
         H            2.892251895526    -1.106077459745     0.145000993831     1.007825032230
         H           -2.154113104474    -1.309915459745    -0.277451006169     1.007825032230
         H           -2.043318104474    -0.467166459745     1.269607993831     1.007825032230
         H           -4.187339104474     0.130876540255     0.086104993831     1.007825032230
         H           -3.141893104474     1.554479540255     0.252302993831     1.007825032230
         H           -3.248769104474     0.710103540255    -1.303354006169     1.007825032230

  Basis Set: AUG-CC-PVTZ
    Blend: AUG-CC-PVTZ
  Basis Set: (AUG-CC-PVTZ AUX)
    Blend: AUG-CC-PVTZ-JKFIT
	 Reference Energy          =    -384.0578951727325716 [Eh]
	 Singles Energy            =      -0.0000000000000000 [Eh]
	 Same-Spin Energy          =      -0.3851942883791943 [Eh]
	 Opposite-Spin Energy      =      -1.2901428902375358 [Eh]
	 Correlation Energy        =      -1.6753371786167301 [Eh]
	 Total Energy              =    -385.7332323513493293 [Eh]

	 ================> DF-SCS-MP2 Energies <==================
	-----------------------------------------------------------
	 SCS Same-Spin Scale       =       0.3333333333333333 [-]
	 SCS Opposite-Spin Scale   =       1.2000000000000000 [-]
	 SCS Same-Spin Energy      =      -0.1283980961263981 [Eh]
	 SCS Opposite-Spin Energy  =      -1.5481714682850429 [Eh]
	 SCS Correlation Energy    =      -1.6765695644114409 [Eh]
	 SCS Total Energy          =    -385.7344647371440374 [Eh]
	-----------------------------------------------------------

  Dipole Moment: [D]
     X:    -1.5567      Y:     1.5170      Z:    -0.5208     Total:     2.2351

*** Psi4 exiting successfully. Buy a developer a beer!
