                               Psi4 1.3.2 release

  ==> Input File <==

--------------------------------------------------------------------------
#psi4
#
memory 32 gb

molecule  {
0 1
  O       -0.8554305     0.2600249    -0.2198521
  O        0.2608140    -1.4535000     0.5764690
  C        1.4621750     0.4213130    -0.3980820
  C        1.8184670     1.3890190     0.7353960
  C        2.6165010    -0.5169580    -0.7250520
  C        0.2447430    -0.3668820     0.0213200
  C       -2.1092640    -0.3317960     0.1925940
  C       -3.3033836     0.5132990    -0.1819779
  H        1.1864410     1.0054960    -1.2820320
  H        2.6888660     1.9907190     0.4595330
  H        2.0609350     0.8310830     1.6444090
  H        0.9859800     2.0639750     0.9510040
  H        3.4951390     0.0579210    -1.0318300
  H        2.3532220    -1.2022810    -1.5348280
  H        2.8748910    -1.1153660     0.1513080
  H       -2.1714740    -1.3192040    -0.2711440
  H       -2.0606790    -0.4764550     1.2759150
  H       -4.2047000     0.1215880     0.0924120
  H       -3.1592540     1.5451910     0.2586100
  H       -3.2661300     0.7008150    -1.2970470
units angstrom
no_reorient  #important for SAPT in psi4, default
symmetry c1  #important for SAPT in psi4, default
}

set PROPERTIES_ORIGIN ["COM"]
properties('MP2/aug-cc-pvtz', properties = ['dipole'])
--------------------------------------------------------------------------

    Molecular point group: c1
  Charge       = 0
  Multiplicity = 1
  Basis Set: AUG-CC-PVTZ
    Blend: AUG-CC-PVTZ
  Basis Set: (AUG-CC-PVTZ AUX)
    Blend: AUG-CC-PVTZ-JKFIT

    Orbital Energies [Eh]
    ---------------------

    Doubly Occupied:

       1A    -20.602554     2A    -20.525446     3A    -11.364325
       4A    -11.292584     5A    -11.243162     6A    -11.230765
       7A    -11.225839     8A    -11.215030     9A     -1.474081
      10A     -1.342511    11A     -1.093942    12A     -1.044255
      13A     -0.937675    14A     -0.906568    15A     -0.828439
      16A     -0.770068    17A     -0.698789    18A     -0.684066
      19A     -0.664607    20A     -0.618552    21A     -0.591972
      22A     -0.587218    23A     -0.581168    24A     -0.550721
      25A     -0.542357    26A     -0.518155    27A     -0.499309
      28A     -0.496819    29A     -0.487815    30A     -0.478335
      31A     -0.449638    32A     -0.432015

  @DF-RHF Final Energy:  -384.07852560939318

   => Energetics <=

    Nuclear Repulsion Energy =            397.0775141366340790
    One-Electron Energy =               -1310.3545280476516837
    Two-Electron Energy =                 529.1984883016243657
    Total Energy =                       -384.0785256093931821
  Basis Set: (AUG-CC-PVTZ AUX)
    Blend: AUG-CC-PVTZ-RI
    Molecular point group: c1

    Geometry (in Angstrom), charge = 0, multiplicity = 1:

       Center              X                  Y                   Z               Mass
    ------------   -----------------  -----------------  -----------------  -----------------
         O           -0.855683649222     0.273439509851    -0.227141464987    15.994914619570
         O            0.260560850778    -1.440085390149     0.569179635013    15.994914619570
         C            1.461921850778     0.434727609851    -0.405371364987    12.000000000000
         C            1.818213850778     1.402433609851     0.728106635013    12.000000000000
         C            2.616247850778    -0.503543390149    -0.732341364987    12.000000000000
         C            0.244489850778    -0.353467390149     0.014030635013    12.000000000000
         C           -2.109517149222    -0.318381390149     0.185304635013    12.000000000000
         C           -3.303636749222     0.526713609851    -0.189267264987    12.000000000000
         H            1.186187850778     1.018910609851    -1.289321364987     1.007825032230
         H            2.688612850778     2.004133609851     0.452243635013     1.007825032230
         H            2.060681850778     0.844497609851     1.637119635013     1.007825032230
         H            0.985726850778     2.077389609851     0.943714635013     1.007825032230
         H            3.494885850778     0.071335609851    -1.039119364987     1.007825032230
         H            2.352968850778    -1.188866390149    -1.542117364987     1.007825032230
         H            2.874637850778    -1.101951390149     0.144018635013     1.007825032230
         H           -2.171727149222    -1.305789390149    -0.278433364987     1.007825032230
         H           -2.060932149222    -0.463040390149     1.268625635013     1.007825032230
         H           -4.204953149222     0.135002609851     0.085122635013     1.007825032230
         H           -3.159507149222     1.558605609851     0.251320635013     1.007825032230
         H           -3.266383149222     0.714229609851    -1.304336364987     1.007825032230

  Basis Set: AUG-CC-PVTZ
    Blend: AUG-CC-PVTZ
  Basis Set: (AUG-CC-PVTZ AUX)
    Blend: AUG-CC-PVTZ-JKFIT
	 Reference Energy          =    -384.0785256093931821 [Eh]
	 Singles Energy            =      -0.0000000000000000 [Eh]
	 Same-Spin Energy          =      -0.3828883046603575 [Eh]
	 Opposite-Spin Energy      =      -1.2839058331418449 [Eh]
	 Correlation Energy        =      -1.6667941378022024 [Eh]
	 Total Energy              =    -385.7453197471953672 [Eh]

	 ================> DF-SCS-MP2 Energies <==================
	-----------------------------------------------------------
	 SCS Same-Spin Scale       =       0.3333333333333333 [-]
	 SCS Opposite-Spin Scale   =       1.2000000000000000 [-]
	 SCS Same-Spin Energy      =      -0.1276294348867858 [Eh]
	 SCS Opposite-Spin Energy  =      -1.5406869997702139 [Eh]
	 SCS Correlation Energy    =      -1.6683164346569999 [Eh]
	 SCS Total Energy          =    -385.7468420440501973 [Eh]
	-----------------------------------------------------------

  Dipole Moment: [D]
     X:    -1.1117      Y:     1.8158      Z:    -0.7044     Total:     2.2426

*** Psi4 exiting successfully. Buy a developer a beer!
