                               Psi4 1.3.2 release

  ==> Input File <==

--------------------------------------------------------------------------
#psi4
#
memory 32 gb

molecule  {
0 1
  O       -0.8946000     0.3180840    -0.2486650
  O        0.2501659    -1.4535248     0.5766265
  C        1.4543389     0.4307866    -0.4028174
  C        1.8184670     1.3890190     0.7353960
  C        2.6165010    -0.5169580    -0.7250520
  C        0.2447430    -0.3668820     0.0213200
  C       -2.1092640    -0.3317960     0.1925940
  C       -3.2536250     0.5656790    -0.2140850
  H        1.1864410     1.0054960    -1.2820320
  H        2.6888660     1.9907190     0.4595330
  H        2.0609350     0.8310830     1.6444090
  H        0.9859800     2.0639750     0.9510040
  H        3.4951390     0.0579210    -1.0318300
  H        2.3532220    -1.2022810    -1.5348280
  H        2.8748910    -1.1153660     0.1513080
  H       -2.1714740    -1.3192040    -0.2711440
  H       -2.0606790    -0.4764550     1.2759150
  H       -4.2047000     0.1215880     0.0924120
  H       -3.1592540     1.5451910     0.2586100
  H       -3.2661300     0.7008150    -1.2970470
units angstrom
no_reorient  #important for SAPT in psi4, default
symmetry c1  #important for SAPT in psi4, default
}

set PROPERTIES_ORIGIN ["COM"]
properties('MP2/aug-cc-pvtz', properties = ['dipole'])
--------------------------------------------------------------------------

    Molecular point group: c1
  Charge       = 0
  Multiplicity = 1
  Basis Set: AUG-CC-PVTZ
    Blend: AUG-CC-PVTZ
  Basis Set: (AUG-CC-PVTZ AUX)
    Blend: AUG-CC-PVTZ-JKFIT

    Orbital Energies [Eh]
    ---------------------

    Doubly Occupied:

       1A    -20.598518     2A    -20.540326     3A    -11.373580
       4A    -11.285934     5A    -11.245753     6A    -11.227441
       7A    -11.223609     8A    -11.217871     9A     -1.449931
      10A     -1.348208    11A     -1.094111    12A     -1.034093
      13A     -0.938631    14A     -0.895361    15A     -0.828428
      16A     -0.762041    17A     -0.700095    18A     -0.677533
      19A     -0.661014    20A     -0.619062    21A     -0.590754
      22A     -0.583254    23A     -0.555076    24A     -0.549884
      25A     -0.544338    26A     -0.519062    27A     -0.509242
      28A     -0.505558    29A     -0.489330    30A     -0.481748
      31A     -0.454977    32A     -0.436596

  @DF-RHF Final Energy:  -384.08577521389026

   => Energetics <=

    Nuclear Repulsion Energy =            395.7883281282075814
    One-Electron Energy =               -1307.8654925544428806
    Two-Electron Energy =                 527.9913892123450978
    Total Energy =                       -384.0857752138902015
  Basis Set: (AUG-CC-PVTZ AUX)
    Blend: AUG-CC-PVTZ-RI
    Molecular point group: c1

    Geometry (in Angstrom), charge = 0, multiplicity = 1:

       Center              X                  Y                   Z               Mass
    ------------   -----------------  -----------------  -----------------  -----------------
         O           -0.892322577027     0.317108161862    -0.248197458147    15.994914619570
         O            0.252443322973    -1.454500638138     0.577094041853    15.994914619570
         C            1.456616322973     0.429810761862    -0.402349858147    12.000000000000
         C            1.820744422973     1.388043161862     0.735863541853    12.000000000000
         C            2.618778422973    -0.517933838138    -0.724584458147    12.000000000000
         C            0.247020422973    -0.367857838138     0.021787541853    12.000000000000
         C           -2.106986577027    -0.332771838138     0.193061541853    12.000000000000
         C           -3.251347577027     0.564703161862    -0.213617458147    12.000000000000
         H            1.188718422973     1.004520161862    -1.281564458147     1.007825032230
         H            2.691143422973     1.989743161862     0.460000541853     1.007825032230
         H            2.063212422973     0.830107161862     1.644876541853     1.007825032230
         H            0.988257422973     2.062999161862     0.951471541853     1.007825032230
         H            3.497416422973     0.056945161862    -1.031362458147     1.007825032230
         H            2.355499422973    -1.203256838138    -1.534360458147     1.007825032230
         H            2.877168422973    -1.116341838138     0.151775541853     1.007825032230
         H           -2.169196577027    -1.320179838138    -0.270676458147     1.007825032230
         H           -2.058401577027    -0.477430838138     1.276382541853     1.007825032230
         H           -4.202422577027     0.120612161862     0.092879541853     1.007825032230
         H           -3.156976577027     1.544215161862     0.259077541853     1.007825032230
         H           -3.263852577027     0.699839161862    -1.296579458147     1.007825032230

  Basis Set: AUG-CC-PVTZ
    Blend: AUG-CC-PVTZ
  Basis Set: (AUG-CC-PVTZ AUX)
    Blend: AUG-CC-PVTZ-JKFIT
	 Reference Energy          =    -384.0857752138902583 [Eh]
	 Singles Energy            =      -0.0000000000000000 [Eh]
	 Same-Spin Energy          =      -0.3838274858317348 [Eh]
	 Opposite-Spin Energy      =      -1.2866091295283695 [Eh]
	 Correlation Energy        =      -1.6704366153601042 [Eh]
	 Total Energy              =    -385.7562118292503897 [Eh]

	 ================> DF-SCS-MP2 Energies <==================
	-----------------------------------------------------------
	 SCS Same-Spin Scale       =       0.3333333333333333 [-]
	 SCS Opposite-Spin Scale   =       1.2000000000000000 [-]
	 SCS Same-Spin Energy      =      -0.1279424952772449 [Eh]
	 SCS Opposite-Spin Energy  =      -1.5439309554340432 [Eh]
	 SCS Correlation Energy    =      -1.6718734507112882 [Eh]
	 SCS Total Energy          =    -385.7576486646015610 [Eh]
	-----------------------------------------------------------

  Dipole Moment: [D]
     X:    -0.6704      Y:     1.6009      Z:    -0.6110     Total:     1.8400

*** Psi4 exiting successfully. Buy a developer a beer!
