                               Psi4 1.4a3.dev225

  ==> Input File <==

--------------------------------------------------------------------------
#psi4
#
memory 32 gb

molecule  {
0 1
  O       -0.8844740     0.2512200    -0.2589860
  O        0.2594420    -1.5357810     0.5540110
  C        1.4751410     0.3499910    -0.3991000
  C        1.6489360     1.5420820     0.5503600
  C        2.7076510    -0.5454760    -0.4239080
  C        0.2527860    -0.4396860     0.0153880
  C       -2.1488220    -0.4301245     0.1688339
  C       -3.2437300     0.5134160    -0.2249800
  H        1.2747850     0.7394360    -1.4046030
  H        2.5199720     2.1341380     0.2549160
  H        1.8085970     1.1898350     1.5745190
  H        0.7675450     2.1869880     0.5363060
  H        3.5809030     0.0268420    -0.7502520
  H        2.5706130    -1.3892510    -1.1045820
  H        2.9042310    -0.9491700     0.5720060
  H       -2.1727950    -1.3769310    -0.3467220
  H       -2.0631380    -0.5911830     1.2316620
  H       -4.1987120     0.0656950     0.0643780
  H       -3.1432900     1.4757990     0.2814060
  H       -3.2533220     0.6866720    -1.3031500
units angstrom
no_reorient  #important for SAPT in psi4, default
symmetry c1  #important for SAPT in psi4, default
}

set PROPERTIES_ORIGIN ["COM"]
properties('MP2/aug-cc-pvtz', properties = ['dipole'])
--------------------------------------------------------------------------

    Molecular point group: c1
  Charge       = 0
  Multiplicity = 1
  Basis Set: AUG-CC-PVTZ
    Blend: AUG-CC-PVTZ
  Basis Set: (AUG-CC-PVTZ AUX)
    Blend: AUG-CC-PVTZ-JKFIT

    Orbital Energies [Eh]
    ---------------------

    Doubly Occupied:

       1A    -20.592773     2A    -20.537818     3A    -11.370780
       4A    -11.288933     5A    -11.244834     6A    -11.226269
       7A    -11.225367     8A    -11.214619     9A     -1.437770
      10A     -1.340354    11A     -1.091008    12A     -1.038610
      13A     -0.936819    14A     -0.890175    15A     -0.832061
      16A     -0.754216    17A     -0.693618    18A     -0.674857
      19A     -0.657707    20A     -0.620753    21A     -0.586996
      22A     -0.579045    23A     -0.555537    24A     -0.546371
      25A     -0.543046    26A     -0.525671    27A     -0.510016
      28A     -0.504570    29A     -0.488224    30A     -0.480280
      31A     -0.455582    32A     -0.432866

  @DF-RHF Final Energy:  -384.08284603998044

   => Energetics <=

    Nuclear Repulsion Energy =            394.9587118280367690
    One-Electron Energy =               -1306.3280261607403645
    Two-Electron Energy =                 527.2864682927231570
    Total Energy =                       -384.0828460399804953
  Basis Set: (AUG-CC-PVTZ AUX)
    Blend: AUG-CC-PVTZ-RI
    Molecular point group: c1

    Geometry (in Angstrom), charge = 0, multiplicity = 1:

       Center              X                  Y                   Z               Mass
    ------------   -----------------  -----------------  -----------------  -----------------
         O           -0.875051994522     0.289401812730    -0.263817224126    15.994914619570
         O            0.268864005478    -1.497599187270     0.549179775874    15.994914619570
         C            1.484563005478     0.388172812730    -0.403931224126    12.000000000000
         C            1.658358005478     1.580263812730     0.545528775874    12.000000000000
         C            2.717073005478    -0.507294187270    -0.428739224126    12.000000000000
         C            0.262208005478    -0.401504187270     0.010556775874    12.000000000000
         C           -2.139399994522    -0.391942687270     0.164002675874    12.000000000000
         C           -3.234307994522     0.551597812730    -0.229811224126    12.000000000000
         H            1.284207005478     0.777617812730    -1.409434224126     1.007825032230
         H            2.529394005478     2.172319812730     0.250084775874     1.007825032230
         H            1.818019005478     1.228016812730     1.569687775874     1.007825032230
         H            0.776967005478     2.225169812730     0.531474775874     1.007825032230
         H            3.590325005478     0.065023812730    -0.755083224126     1.007825032230
         H            2.580035005478    -1.351069187270    -1.109413224126     1.007825032230
         H            2.913653005478    -0.910988187270     0.567174775874     1.007825032230
         H           -2.163372994522    -1.338749187270    -0.351553224126     1.007825032230
         H           -2.053715994522    -0.553001187270     1.226830775874     1.007825032230
         H           -4.189289994522     0.103876812730     0.059546775874     1.007825032230
         H           -3.133867994522     1.513980812730     0.276574775874     1.007825032230
         H           -3.243899994522     0.724853812730    -1.307981224126     1.007825032230

  Basis Set: AUG-CC-PVTZ
    Blend: AUG-CC-PVTZ
  Basis Set: (AUG-CC-PVTZ AUX)
    Blend: AUG-CC-PVTZ-JKFIT
	 Reference Energy          =    -384.0828460399804385 [Eh]
	 Singles Energy            =      -0.0000000000000000 [Eh]
	 Same-Spin Energy          =      -0.3839951364348666 [Eh]
	 Opposite-Spin Energy      =      -1.2874101620518297 [Eh]
	 Correlation Energy        =      -1.6714052984866963 [Eh]
	 Total Energy              =    -385.7542513384671565 [Eh]

	 ================> DF-SCS-MP2 Energies <==================
	-----------------------------------------------------------
	 SCS Same-Spin Scale       =       0.3333333333333333 [-]
	 SCS Opposite-Spin Scale   =       1.2000000000000000 [-]
	 SCS Same-Spin Energy      =      -0.1279983788116222 [Eh]
	 SCS Opposite-Spin Energy  =      -1.5448921944621956 [Eh]
	 SCS Correlation Energy    =      -1.6728905732738177 [Eh]
	 SCS Total Energy          =    -385.7557366132542711 [Eh]
	-----------------------------------------------------------

  Dipole Moment: [D]
     X:    -0.9424      Y:     1.5799      Z:    -0.6109     Total:     1.9384

*** Psi4 exiting successfully. Buy a developer a beer!
