                               Psi4 1.4a3.dev225

  ==> Input File <==

--------------------------------------------------------------------------
#psi4
#
memory 32 gb

molecule  {
0 1
  O       -0.8844740     0.2512200    -0.2589860
  O        0.2594420    -1.5357810     0.5540110
  C        1.4751410     0.3499910    -0.3991000
  C        1.6489360     1.5420820     0.5503600
  C        2.7076510    -0.5454760    -0.4239080
  C        0.2527860    -0.4396860     0.0153880
  C       -2.1066380    -0.4073920     0.1545600
  C       -3.2437300     0.5134160    -0.2249800
  H        1.2784387     0.7323342    -1.3862668
  H        2.5199720     2.1341380     0.2549160
  H        1.8085970     1.1898350     1.5745190
  H        0.7675450     2.1869880     0.5363060
  H        3.5809030     0.0268420    -0.7502520
  H        2.5706130    -1.3892510    -1.1045820
  H        2.9042310    -0.9491700     0.5720060
  H       -2.1727950    -1.3769310    -0.3467220
  H       -2.0631380    -0.5911830     1.2316620
  H       -4.1987120     0.0656950     0.0643780
  H       -3.1432900     1.4757990     0.2814060
  H       -3.2533220     0.6866720    -1.3031500
units angstrom
no_reorient  #important for SAPT in psi4, default
symmetry c1  #important for SAPT in psi4, default
}

set PROPERTIES_ORIGIN ["COM"]
properties('MP2/aug-cc-pvtz', properties = ['dipole'])
--------------------------------------------------------------------------

    Molecular point group: c1
  Charge       = 0
  Multiplicity = 1
  Basis Set: AUG-CC-PVTZ
    Blend: AUG-CC-PVTZ
  Basis Set: (AUG-CC-PVTZ AUX)
    Blend: AUG-CC-PVTZ-JKFIT

    Orbital Energies [Eh]
    ---------------------

    Doubly Occupied:

       1A    -20.598608     2A    -20.541059     3A    -11.374048
       4A    -11.287007     5A    -11.244524     6A    -11.226769
       7A    -11.224390     8A    -11.215954     9A     -1.448490
      10A     -1.348215    11A     -1.094169    12A     -1.033878
      13A     -0.938293    14A     -0.894427    15A     -0.829669
      16A     -0.762052    17A     -0.699024    18A     -0.676906
      19A     -0.662321    20A     -0.622130    21A     -0.586400
      22A     -0.581950    23A     -0.556643    24A     -0.548558
      25A     -0.544049    26A     -0.518533    27A     -0.509155
      28A     -0.506028    29A     -0.490752    30A     -0.481823
      31A     -0.455336    32A     -0.436361

  @DF-RHF Final Energy:  -384.08565988918247

   => Energetics <=

    Nuclear Repulsion Energy =            395.8559789211761881
    One-Electron Energy =               -1308.0082359789212205
    Two-Electron Energy =                 528.0665971685625664
    Total Energy =                       -384.0856598891824660
  Basis Set: (AUG-CC-PVTZ AUX)
    Blend: AUG-CC-PVTZ-RI
    Molecular point group: c1

    Geometry (in Angstrom), charge = 0, multiplicity = 1:

       Center              X                  Y                   Z               Mass
    ------------   -----------------  -----------------  -----------------  -----------------
         O           -0.879444429982     0.287113527980    -0.262500871532    15.994914619570
         O            0.264471570018    -1.499887472020     0.550496128468    15.994914619570
         C            1.480170570018     0.385884527980    -0.402614871532    12.000000000000
         C            1.653965570018     1.577975527980     0.546845128468    12.000000000000
         C            2.712680570018    -0.509582472020    -0.427422871532    12.000000000000
         C            0.257815570018    -0.403792472020     0.011873128468    12.000000000000
         C           -2.101608429982    -0.371498472020     0.151045128468    12.000000000000
         C           -3.238700429982     0.549309527980    -0.228494871532    12.000000000000
         H            1.283468270018     0.768227727980    -1.389781671532     1.007825032230
         H            2.525001570018     2.170031527980     0.251401128468     1.007825032230
         H            1.813626570018     1.225728527980     1.571004128468     1.007825032230
         H            0.772574570018     2.222881527980     0.532791128468     1.007825032230
         H            3.585932570018     0.062735527980    -0.753766871532     1.007825032230
         H            2.575642570018    -1.353357472020    -1.108096871532     1.007825032230
         H            2.909260570018    -0.913276472020     0.568491128468     1.007825032230
         H           -2.167765429982    -1.341037472020    -0.350236871532     1.007825032230
         H           -2.058108429982    -0.555289472020     1.228147128468     1.007825032230
         H           -4.193682429982     0.101588527980     0.060863128468     1.007825032230
         H           -3.138260429982     1.511692527980     0.277891128468     1.007825032230
         H           -3.248292429982     0.722565527980    -1.306664871532     1.007825032230

  Basis Set: AUG-CC-PVTZ
    Blend: AUG-CC-PVTZ
  Basis Set: (AUG-CC-PVTZ AUX)
    Blend: AUG-CC-PVTZ-JKFIT
	 Reference Energy          =    -384.0856598891824660 [Eh]
	 Singles Energy            =      -0.0000000000000000 [Eh]
	 Same-Spin Energy          =      -0.3838001908642750 [Eh]
	 Opposite-Spin Energy      =      -1.2866090915632660 [Eh]
	 Correlation Energy        =      -1.6704092824275409 [Eh]
	 Total Energy              =    -385.7560691716100223 [Eh]

	 ================> DF-SCS-MP2 Energies <==================
	-----------------------------------------------------------
	 SCS Same-Spin Scale       =       0.3333333333333333 [-]
	 SCS Opposite-Spin Scale   =       1.2000000000000000 [-]
	 SCS Same-Spin Energy      =      -0.1279333969547583 [Eh]
	 SCS Opposite-Spin Energy  =      -1.5439309098759191 [Eh]
	 SCS Correlation Energy    =      -1.6718643068306773 [Eh]
	 SCS Total Energy          =    -385.7575241960131507 [Eh]
	-----------------------------------------------------------

  Dipole Moment: [D]
     X:    -0.7249      Y:     1.6091      Z:    -0.6403     Total:     1.8774

*** Psi4 exiting successfully. Buy a developer a beer!
