                               Psi4 1.3.2 release

  ==> Input File <==

--------------------------------------------------------------------------
#psi4
#
memory 32 gb

molecule  {
0 1
  O       -0.9014550     0.3275916    -0.2533516
  O        0.2608140    -1.4535000     0.5764690
  C        1.4621750     0.4213130    -0.3980820
  C        1.8184670     1.3890190     0.7353960
  C        2.6165010    -0.5169580    -0.7250520
  C        0.2447430    -0.3668820     0.0213200
  C       -2.1092640    -0.3317960     0.1925940
  C       -3.2450231     0.5741736    -0.2193301
  H        1.1864410     1.0054960    -1.2820320
  H        2.6888660     1.9907190     0.4595330
  H        2.0609350     0.8310830     1.6444090
  H        0.9859800     2.0639750     0.9510040
  H        3.4951390     0.0579210    -1.0318300
  H        2.3532220    -1.2022810    -1.5348280
  H        2.8748910    -1.1153660     0.1513080
  H       -2.1714740    -1.3192040    -0.2711440
  H       -2.0606790    -0.4764550     1.2759150
  H       -4.2047000     0.1215880     0.0924120
  H       -3.1592540     1.5451910     0.2586100
  H       -3.2661300     0.7008150    -1.2970470
units angstrom
no_reorient  #important for SAPT in psi4, default
symmetry c1  #important for SAPT in psi4, default
}

set PROPERTIES_ORIGIN ["COM"]
properties('MP2/aug-cc-pvtz', properties = ['dipole'])
--------------------------------------------------------------------------

    Molecular point group: c1
  Charge       = 0
  Multiplicity = 1
  Basis Set: AUG-CC-PVTZ
    Blend: AUG-CC-PVTZ
  Basis Set: (AUG-CC-PVTZ AUX)
    Blend: AUG-CC-PVTZ-JKFIT

    Orbital Energies [Eh]
    ---------------------

    Doubly Occupied:

       1A    -20.598907     2A    -20.542558     3A    -11.375004
       4A    -11.285705     5A    -11.246062     6A    -11.227448
       7A    -11.223102     8A    -11.217566     9A     -1.446529
      10A     -1.349661    11A     -1.094497    12A     -1.033121
      13A     -0.939644    14A     -0.893728    15A     -0.828603
      16A     -0.760439    17A     -0.699309    18A     -0.677014
      19A     -0.660497    20A     -0.619966    21A     -0.591111
      22A     -0.583681    23A     -0.554185    24A     -0.546488
      25A     -0.544219    26A     -0.519248    27A     -0.511101
      28A     -0.507158    29A     -0.489574    30A     -0.481474
      31A     -0.456104    32A     -0.436282

  @DF-RHF Final Energy:  -384.08458954621426

   => Energetics <=

    Nuclear Repulsion Energy =            395.6174755548551616
    One-Electron Energy =               -1307.5241635661559485
    Two-Electron Energy =                 527.8220984650864693
    Total Energy =                       -384.0845895462142607
  Basis Set: (AUG-CC-PVTZ AUX)
    Blend: AUG-CC-PVTZ-RI
    Molecular point group: c1

    Geometry (in Angstrom), charge = 0, multiplicity = 1:

       Center              X                  Y                   Z               Mass
    ------------   -----------------  -----------------  -----------------  -----------------
         O           -0.901399475922     0.325403516834    -0.252163911007    15.994914619570
         O            0.260869524078    -1.455688083166     0.577656688993    15.994914619570
         C            1.462230524078     0.419124916834    -0.396894311007    12.000000000000
         C            1.818522524078     1.386830916834     0.736583688993    12.000000000000
         C            2.616556524078    -0.519146083166    -0.723864311007    12.000000000000
         C            0.244798524078    -0.369070083166     0.022507688993    12.000000000000
         C           -2.109208475922    -0.333984083166     0.193781688993    12.000000000000
         C           -3.244967575922     0.571985516834    -0.218142411007    12.000000000000
         H            1.186496524078     1.003307916834    -1.280844311007     1.007825032230
         H            2.688921524078     1.988530916834     0.460720688993     1.007825032230
         H            2.060990524078     0.828894916834     1.645596688993     1.007825032230
         H            0.986035524078     2.061786916834     0.952191688993     1.007825032230
         H            3.495194524078     0.055732916834    -1.030642311007     1.007825032230
         H            2.353277524078    -1.204469083166    -1.533640311007     1.007825032230
         H            2.874946524078    -1.117554083166     0.152495688993     1.007825032230
         H           -2.171418475922    -1.321392083166    -0.269956311007     1.007825032230
         H           -2.060623475922    -0.478643083166     1.277102688993     1.007825032230
         H           -4.204644475922     0.119399916834     0.093599688993     1.007825032230
         H           -3.159198475922     1.543002916834     0.259797688993     1.007825032230
         H           -3.266074475922     0.698626916834    -1.295859311007     1.007825032230

  Basis Set: AUG-CC-PVTZ
    Blend: AUG-CC-PVTZ
  Basis Set: (AUG-CC-PVTZ AUX)
    Blend: AUG-CC-PVTZ-JKFIT
	 Reference Energy          =    -384.0845895462142607 [Eh]
	 Singles Energy            =      -0.0000000000000000 [Eh]
	 Same-Spin Energy          =      -0.3840733140513573 [Eh]
	 Opposite-Spin Energy      =      -1.2872202725498050 [Eh]
	 Correlation Energy        =      -1.6712935866011622 [Eh]
	 Total Energy              =    -385.7558831328154270 [Eh]

	 ================> DF-SCS-MP2 Energies <==================
	-----------------------------------------------------------
	 SCS Same-Spin Scale       =       0.3333333333333333 [-]
	 SCS Opposite-Spin Scale   =       1.2000000000000000 [-]
	 SCS Same-Spin Energy      =      -0.1280244380171191 [Eh]
	 SCS Opposite-Spin Energy  =      -1.5446643270597660 [Eh]
	 SCS Correlation Energy    =      -1.6726887650768851 [Eh]
	 SCS Total Energy          =    -385.7572783112911452 [Eh]
	-----------------------------------------------------------

  Dipole Moment: [D]
     X:    -0.6323      Y:     1.5584      Z:    -0.5933     Total:     1.7833

*** Psi4 exiting successfully. Buy a developer a beer!
