                               Psi4 1.3.2 release

  ==> Input File <==

--------------------------------------------------------------------------
#psi4
#
memory 32 gb

molecule  {
0 1
  O       -0.8946000     0.3180840    -0.2486650
  O        0.2608140    -1.4535000     0.5764690
  C        1.4621750     0.4213130    -0.3980820
  C        1.8184670     1.3890190     0.7353960
  C        2.6165010    -0.5169580    -0.7250520
  C        0.2447430    -0.3668820     0.0213200
  C       -1.9413228    -0.2419426     0.1315849
  C       -3.2536250     0.5656790    -0.2140850
  H        1.1864410     1.0054960    -1.2820320
  H        2.6888660     1.9907190     0.4595330
  H        2.0609350     0.8310830     1.6444090
  H        0.9859800     2.0639750     0.9510040
  H        3.4951390     0.0579210    -1.0318300
  H        2.3532220    -1.2022810    -1.5348280
  H        2.8748910    -1.1153660     0.1513080
  H       -2.1714740    -1.3192040    -0.2711440
  H       -2.0606790    -0.4764550     1.2759150
  H       -4.2047000     0.1215880     0.0924120
  H       -3.1592540     1.5451910     0.2586100
  H       -3.2661300     0.7008150    -1.2970470
units angstrom
no_reorient  #important for SAPT in psi4, default
symmetry c1  #important for SAPT in psi4, default
}

set PROPERTIES_ORIGIN ["COM"]
properties('MP2/aug-cc-pvtz', properties = ['dipole'])
--------------------------------------------------------------------------

    Molecular point group: c1
  Charge       = 0
  Multiplicity = 1
  Basis Set: AUG-CC-PVTZ
    Blend: AUG-CC-PVTZ
  Basis Set: (AUG-CC-PVTZ AUX)
    Blend: AUG-CC-PVTZ-JKFIT

    Orbital Energies [Eh]
    ---------------------

    Doubly Occupied:

       1A    -20.619735     2A    -20.555257     3A    -11.387621
       4A    -11.288792     5A    -11.254087     6A    -11.233387
       7A    -11.223136     8A    -11.218693     9A     -1.518743
      10A     -1.379233    11A     -1.105626    12A     -1.021358
      13A     -0.945676    14A     -0.918710    15A     -0.822454
      16A     -0.788214    17A     -0.715499    18A     -0.703398
      19A     -0.682764    20A     -0.628617    21A     -0.608910
      22A     -0.585633    23A     -0.556339    24A     -0.554536
      25A     -0.548784    26A     -0.531250    27A     -0.509963
      28A     -0.497110    29A     -0.485941    30A     -0.461208
      31A     -0.448033    32A     -0.423047

  @DF-RHF Final Energy:  -384.04396553244112

   => Energetics <=

    Nuclear Repulsion Energy =            399.3558972977564849
    One-Electron Energy =               -1314.3562192111955937
    Two-Electron Energy =                 530.9563563809980451
    Total Energy =                       -384.0439655324411206
  Basis Set: (AUG-CC-PVTZ AUX)
    Blend: AUG-CC-PVTZ-RI
    Molecular point group: c1

    Geometry (in Angstrom), charge = 0, multiplicity = 1:

       Center              X                  Y                   Z               Mass
    ------------   -----------------  -----------------  -----------------  -----------------
         O           -0.911960497498     0.308795590609    -0.242358538246    15.994914619570
         O            0.243453502502    -1.462788409391     0.582775461754    15.994914619570
         C            1.444814502502     0.412024590609    -0.391775538246    12.000000000000
         C            1.801106502502     1.379730590609     0.741702461754    12.000000000000
         C            2.599140502502    -0.526246409391    -0.718745538246    12.000000000000
         C            0.227382502502    -0.376170409391     0.027626461754    12.000000000000
         C           -1.958683297498    -0.251231009391     0.137891361754    12.000000000000
         C           -3.270985497498     0.556390590609    -0.207778538246    12.000000000000
         H            1.169080502502     0.996207590609    -1.275725538246     1.007825032230
         H            2.671505502502     1.981430590609     0.465839461754     1.007825032230
         H            2.043574502502     0.821794590609     1.650715461754     1.007825032230
         H            0.968619502502     2.054686590609     0.957310461754     1.007825032230
         H            3.477778502502     0.048632590609    -1.025523538246     1.007825032230
         H            2.335861502502    -1.211569409391    -1.528521538246     1.007825032230
         H            2.857530502502    -1.124654409391     0.157614461754     1.007825032230
         H           -2.188834497498    -1.328492409391    -0.264837538246     1.007825032230
         H           -2.078039497498    -0.485743409391     1.282221461754     1.007825032230
         H           -4.222060497498     0.112299590609     0.098718461754     1.007825032230
         H           -3.176614497498     1.535902590609     0.264916461754     1.007825032230
         H           -3.283490497498     0.691526590609    -1.290740538246     1.007825032230

  Basis Set: AUG-CC-PVTZ
    Blend: AUG-CC-PVTZ
  Basis Set: (AUG-CC-PVTZ AUX)
    Blend: AUG-CC-PVTZ-JKFIT
	 Reference Energy          =    -384.0439655324411206 [Eh]
	 Singles Energy            =      -0.0000000000000000 [Eh]
	 Same-Spin Energy          =      -0.3848282295304819 [Eh]
	 Opposite-Spin Energy      =      -1.2867321847426763 [Eh]
	 Correlation Energy        =      -1.6715604142731582 [Eh]
	 Total Energy              =    -385.7155259467142514 [Eh]

	 ================> DF-SCS-MP2 Energies <==================
	-----------------------------------------------------------
	 SCS Same-Spin Scale       =       0.3333333333333333 [-]
	 SCS Opposite-Spin Scale   =       1.2000000000000000 [-]
	 SCS Same-Spin Energy      =      -0.1282760765101606 [Eh]
	 SCS Opposite-Spin Energy  =      -1.5440786216912115 [Eh]
	 SCS Correlation Energy    =      -1.6723546982013722 [Eh]
	 SCS Total Energy          =    -385.7163202306425092 [Eh]
	-----------------------------------------------------------

  Dipole Moment: [D]
     X:     0.2609      Y:     1.7491      Z:    -0.7450     Total:     1.9189

*** Psi4 exiting successfully. Buy a developer a beer!
