                               Psi4 1.3.2 release

  ==> Input File <==

--------------------------------------------------------------------------
#psi4
#
memory 32 gb

molecule  {
0 1
  O       -0.8946000     0.3180840    -0.2486650
  O        0.2182224    -1.4531028     0.5768453
  C        1.4302805     0.4588401    -0.4168282
  C        1.8184670     1.3890190     0.7353960
  C        2.6165010    -0.5169580    -0.7250520
  C        0.2447430    -0.3668820     0.0213200
  C       -2.1092640    -0.3317960     0.1925940
  C       -3.2536250     0.5656790    -0.2140850
  H        1.1864410     1.0054960    -1.2820320
  H        2.6888660     1.9907190     0.4595330
  H        2.0609350     0.8310830     1.6444090
  H        0.9859800     2.0639750     0.9510040
  H        3.4951390     0.0579210    -1.0318300
  H        2.3532220    -1.2022810    -1.5348280
  H        2.8748910    -1.1153660     0.1513080
  H       -2.1714740    -1.3192040    -0.2711440
  H       -2.0606790    -0.4764550     1.2759150
  H       -4.2047000     0.1215880     0.0924120
  H       -3.1592540     1.5451910     0.2586100
  H       -3.2661300     0.7008150    -1.2970470
units angstrom
no_reorient  #important for SAPT in psi4, default
symmetry c1  #important for SAPT in psi4, default
}

set PROPERTIES_ORIGIN ["COM"]
properties('MP2/aug-cc-pvtz', properties = ['dipole'])
--------------------------------------------------------------------------

    Molecular point group: c1
  Charge       = 0
  Multiplicity = 1
  Basis Set: AUG-CC-PVTZ
    Blend: AUG-CC-PVTZ
  Basis Set: (AUG-CC-PVTZ AUX)
    Blend: AUG-CC-PVTZ-JKFIT

    Orbital Energies [Eh]
    ---------------------

    Doubly Occupied:

       1A    -20.595742     2A    -20.540723     3A    -11.373908
       4A    -11.284185     5A    -11.246402     6A    -11.228329
       7A    -11.222512     8A    -11.219880     9A     -1.450183
      10A     -1.346159    11A     -1.093591    12A     -1.032471
      13A     -0.936573    14A     -0.895878    15A     -0.828722
      16A     -0.762963    17A     -0.703088    18A     -0.676549
      19A     -0.661454    20A     -0.617144    21A     -0.590345
      22A     -0.582266    23A     -0.554157    24A     -0.550171
      25A     -0.544208    26A     -0.519189    27A     -0.509668
      28A     -0.505061    29A     -0.494024    30A     -0.475835
      31A     -0.453838    32A     -0.437896

  @DF-RHF Final Energy:  -384.08244498286354

   => Energetics <=

    Nuclear Repulsion Energy =            395.7291314049710422
    One-Electron Energy =               -1307.7569206288392252
    Two-Electron Energy =                 527.9453442410047046
    Total Energy =                       -384.0824449828635352
  Basis Set: (AUG-CC-PVTZ AUX)
    Blend: AUG-CC-PVTZ-RI
    Molecular point group: c1

    Geometry (in Angstrom), charge = 0, multiplicity = 1:

       Center              X                  Y                   Z               Mass
    ------------   -----------------  -----------------  -----------------  -----------------
         O           -0.885434149529     0.314150022465    -0.246779258428    15.994914619570
         O            0.227388250471    -1.457036777535     0.578731041572    15.994914619570
         C            1.439446350471     0.454906122465    -0.414942458428    12.000000000000
         C            1.827632850471     1.385085022465     0.737281741572    12.000000000000
         C            2.625666850471    -0.520891977535    -0.723166258428    12.000000000000
         C            0.253908850471    -0.370815977535     0.023205741572    12.000000000000
         C           -2.100098149529    -0.335729977535     0.194479741572    12.000000000000
         C           -3.244459149529     0.561745022465    -0.212199258428    12.000000000000
         H            1.195606850471     1.001562022465    -1.280146258428     1.007825032230
         H            2.698031850471     1.986785022465     0.461418741572     1.007825032230
         H            2.070100850471     0.827149022465     1.646294741572     1.007825032230
         H            0.995145850471     2.060041022465     0.952889741572     1.007825032230
         H            3.504304850471     0.053987022465    -1.029944258428     1.007825032230
         H            2.362387850471    -1.206214977535    -1.532942258428     1.007825032230
         H            2.884056850471    -1.119299977535     0.153193741572     1.007825032230
         H           -2.162308149529    -1.323137977535    -0.269258258428     1.007825032230
         H           -2.051513149529    -0.480388977535     1.277800741572     1.007825032230
         H           -4.195534149529     0.117654022465     0.094297741572     1.007825032230
         H           -3.150088149529     1.541257022465     0.260495741572     1.007825032230
         H           -3.256964149529     0.696881022465    -1.295161258428     1.007825032230

  Basis Set: AUG-CC-PVTZ
    Blend: AUG-CC-PVTZ
  Basis Set: (AUG-CC-PVTZ AUX)
    Blend: AUG-CC-PVTZ-JKFIT
	 Reference Energy          =    -384.0824449828635352 [Eh]
	 Singles Energy            =      -0.0000000000000000 [Eh]
	 Same-Spin Energy          =      -0.3838219558034195 [Eh]
	 Opposite-Spin Energy      =      -1.2867280695193672 [Eh]
	 Correlation Energy        =      -1.6705500253227867 [Eh]
	 Total Energy              =    -385.7529950081863035 [Eh]

	 ================> DF-SCS-MP2 Energies <==================
	-----------------------------------------------------------
	 SCS Same-Spin Scale       =       0.3333333333333333 [-]
	 SCS Opposite-Spin Scale   =       1.2000000000000000 [-]
	 SCS Same-Spin Energy      =      -0.1279406519344732 [Eh]
	 SCS Opposite-Spin Energy  =      -1.5440736834232407 [Eh]
	 SCS Correlation Energy    =      -1.6720143353577139 [Eh]
	 SCS Total Energy          =    -385.7544593182212225 [Eh]
	-----------------------------------------------------------

  Dipole Moment: [D]
     X:    -0.5674      Y:     1.6182      Z:    -0.6150     Total:     1.8218

*** Psi4 exiting successfully. Buy a developer a beer!
