                               Psi4 1.4a3.dev225

  ==> Input File <==

--------------------------------------------------------------------------
#psi4
#
memory 32 gb

molecule  {
0 1
  O       -0.8844740     0.2512200    -0.2589860
  O        0.2594420    -1.5357810     0.5540110
  C        1.4751410     0.3499910    -0.3991000
  C        1.6489360     1.5420820     0.5503600
  C        2.7076510    -0.5454760    -0.4239080
  C        0.2689427    -0.4292483     0.0099094
  C       -2.1066380    -0.4073920     0.1545600
  C       -3.2437300     0.5134160    -0.2249800
  H        1.2747850     0.7394360    -1.4046030
  H        2.5199720     2.1341380     0.2549160
  H        1.8085970     1.1898350     1.5745190
  H        0.7675450     2.1869880     0.5363060
  H        3.5809030     0.0268420    -0.7502520
  H        2.5706130    -1.3892510    -1.1045820
  H        2.9042310    -0.9491700     0.5720060
  H       -2.1727950    -1.3769310    -0.3467220
  H       -2.0631380    -0.5911830     1.2316620
  H       -4.1987120     0.0656950     0.0643780
  H       -3.1432900     1.4757990     0.2814060
  H       -3.2533220     0.6866720    -1.3031500
units angstrom
no_reorient  #important for SAPT in psi4, default
symmetry c1  #important for SAPT in psi4, default
}

set PROPERTIES_ORIGIN ["COM"]
properties('MP2/aug-cc-pvtz', properties = ['dipole'])
--------------------------------------------------------------------------

    Molecular point group: c1
  Charge       = 0
  Multiplicity = 1
  Basis Set: AUG-CC-PVTZ
    Blend: AUG-CC-PVTZ
  Basis Set: (AUG-CC-PVTZ AUX)
    Blend: AUG-CC-PVTZ-JKFIT

    Orbital Energies [Eh]
    ---------------------

    Doubly Occupied:

       1A    -20.597009     2A    -20.540366     3A    -11.375991
       4A    -11.286180     5A    -11.247869     6A    -11.228544
       7A    -11.223775     8A    -11.217380     9A     -1.443487
      10A     -1.341019    11A     -1.097487    12A     -1.032930
      13A     -0.939923    14A     -0.896431    15A     -0.830733
      16A     -0.759323    17A     -0.698203    18A     -0.674773
      19A     -0.659896    20A     -0.622439    21A     -0.585969
      22A     -0.581099    23A     -0.556324    24A     -0.548527
      25A     -0.544765    26A     -0.518260    27A     -0.507957
      28A     -0.505070    29A     -0.491114    30A     -0.480887
      31A     -0.452734    32A     -0.438512

  @DF-RHF Final Energy:  -384.08349135914420

   => Energetics <=

    Nuclear Repulsion Energy =            395.6717490804082900
    One-Electron Energy =               -1307.6605273692041465
    Two-Electron Energy =                 527.9052869296516519
    Total Energy =                       -384.0834913591442046
  Basis Set: (AUG-CC-PVTZ AUX)
    Blend: AUG-CC-PVTZ-RI
    Molecular point group: c1

    Geometry (in Angstrom), charge = 0, multiplicity = 1:

       Center              X                  Y                   Z               Mass
    ------------   -----------------  -----------------  -----------------  -----------------
         O           -0.881082886210     0.285972887752    -0.261775335907    15.994914619570
         O            0.262833113790    -1.501028112248     0.551221664093    15.994914619570
         C            1.478532113790     0.384743887752    -0.401889335907    12.000000000000
         C            1.652327113790     1.576834887752     0.547570664093    12.000000000000
         C            2.711042113790    -0.510723112248    -0.426697335907    12.000000000000
         C            0.272333813790    -0.394495412248     0.007120064093    12.000000000000
         C           -2.103246886210    -0.372639112248     0.151770664093    12.000000000000
         C           -3.240338886210     0.548168887752    -0.227769335907    12.000000000000
         H            1.278176113790     0.774188887752    -1.407392335907     1.007825032230
         H            2.523363113790     2.168890887752     0.252126664093     1.007825032230
         H            1.811988113790     1.224587887752     1.571729664093     1.007825032230
         H            0.770936113790     2.221740887752     0.533516664093     1.007825032230
         H            3.584294113790     0.061594887752    -0.753041335907     1.007825032230
         H            2.574004113790    -1.354498112248    -1.107371335907     1.007825032230
         H            2.907622113790    -0.914417112248     0.569216664093     1.007825032230
         H           -2.169403886210    -1.342178112248    -0.349511335907     1.007825032230
         H           -2.059746886210    -0.556430112248     1.228872664093     1.007825032230
         H           -4.195320886210     0.100447887752     0.061588664093     1.007825032230
         H           -3.139898886210     1.510551887752     0.278616664093     1.007825032230
         H           -3.249930886210     0.721424887752    -1.305939335907     1.007825032230

  Basis Set: AUG-CC-PVTZ
    Blend: AUG-CC-PVTZ
  Basis Set: (AUG-CC-PVTZ AUX)
    Blend: AUG-CC-PVTZ-JKFIT
	 Reference Energy          =    -384.0834913591442046 [Eh]
	 Singles Energy            =      -0.0000000000000000 [Eh]
	 Same-Spin Energy          =      -0.3842555502705258 [Eh]
	 Opposite-Spin Energy      =      -1.2875624835524078 [Eh]
	 Correlation Energy        =      -1.6718180338229336 [Eh]
	 Total Energy              =    -385.7553093929671491 [Eh]

	 ================> DF-SCS-MP2 Energies <==================
	-----------------------------------------------------------
	 SCS Same-Spin Scale       =       0.3333333333333333 [-]
	 SCS Opposite-Spin Scale   =       1.2000000000000000 [-]
	 SCS Same-Spin Energy      =      -0.1280851834235086 [Eh]
	 SCS Opposite-Spin Energy  =      -1.5450749802628894 [Eh]
	 SCS Correlation Energy    =      -1.6731601636863980 [Eh]
	 SCS Total Energy          =    -385.7566515228306230 [Eh]
	-----------------------------------------------------------

  Dipole Moment: [D]
     X:    -0.6136      Y:     1.6641      Z:    -0.6532     Total:     1.8901

*** Psi4 exiting successfully. Buy a developer a beer!
