                               Psi4 1.3.2 release

  ==> Input File <==

--------------------------------------------------------------------------
#psi4
#
memory 32 gb

molecule  {
0 1
  O       -0.8816102     0.3358080    -0.2574774
  O        0.2608140    -1.4535000     0.5764690
  C        1.4464413     0.4407245    -0.4064451
  C        1.8184670     1.3890190     0.7353960
  C        2.6165010    -0.5169580    -0.7250520
  C        0.2447430    -0.3668820     0.0213200
  C       -2.1092640    -0.3317960     0.1925940
  C       -3.2536250     0.5656790    -0.2140850
  H        1.1864410     1.0054960    -1.2820320
  H        2.6888660     1.9907190     0.4595330
  H        2.0609350     0.8310830     1.6444090
  H        0.9859800     2.0639750     0.9510040
  H        3.4951390     0.0579210    -1.0318300
  H        2.3532220    -1.2022810    -1.5348280
  H        2.8748910    -1.1153660     0.1513080
  H       -2.1714740    -1.3192040    -0.2711440
  H       -2.0606790    -0.4764550     1.2759150
  H       -4.2047000     0.1215880     0.0924120
  H       -3.1592540     1.5451910     0.2586100
  H       -3.2661300     0.7008150    -1.2970470
units angstrom
no_reorient  #important for SAPT in psi4, default
symmetry c1  #important for SAPT in psi4, default
}

set PROPERTIES_ORIGIN ["COM"]
properties('MP2/aug-cc-pvtz', properties = ['dipole'])
--------------------------------------------------------------------------

    Molecular point group: c1
  Charge       = 0
  Multiplicity = 1
  Basis Set: AUG-CC-PVTZ
    Blend: AUG-CC-PVTZ
  Basis Set: (AUG-CC-PVTZ AUX)
    Blend: AUG-CC-PVTZ-JKFIT

    Orbital Energies [Eh]
    ---------------------

    Doubly Occupied:

       1A    -20.600075     2A    -20.541131     3A    -11.373137
       4A    -11.288709     5A    -11.243237     6A    -11.226310
       7A    -11.224731     8A    -11.216876     9A     -1.446713
      10A     -1.347922    11A     -1.091969    12A     -1.034373
      13A     -0.936497    14A     -0.893390    15A     -0.829037
      16A     -0.760725    17A     -0.699357    18A     -0.675786
      19A     -0.660674    20A     -0.617482    21A     -0.590970
      22A     -0.581722    23A     -0.554819    24A     -0.549544
      25A     -0.543444    26A     -0.518899    27A     -0.511473
      28A     -0.506019    29A     -0.488690    30A     -0.479807
      31A     -0.457214    32A     -0.435611

  @DF-RHF Final Energy:  -384.08361539018267

   => Energetics <=

    Nuclear Repulsion Energy =            395.4591740947234371
    One-Electron Energy =               -1307.2328915632569988
    Two-Electron Energy =                 527.6901020783508329
    Total Energy =                       -384.0836153901826719
  Basis Set: (AUG-CC-PVTZ AUX)
    Blend: AUG-CC-PVTZ-RI
    Molecular point group: c1

    Geometry (in Angstrom), charge = 0, multiplicity = 1:

       Center              X                  Y                   Z               Mass
    ------------   -----------------  -----------------  -----------------  -----------------
         O           -0.881773386001     0.331359277747    -0.255398907282    15.994914619570
         O            0.260650813999    -1.457948722253     0.578547492718    15.994914619570
         C            1.446278113999     0.436275777747    -0.404366607282    12.000000000000
         C            1.818303813999     1.384570277747     0.737474492718    12.000000000000
         C            2.616337813999    -0.521406722253    -0.722973507282    12.000000000000
         C            0.244579813999    -0.371330722253     0.023398492718    12.000000000000
         C           -2.109427186001    -0.336244722253     0.194672492718    12.000000000000
         C           -3.253788186001     0.561230277747    -0.212006507282    12.000000000000
         H            1.186277813999     1.001047277747    -1.279953507282     1.007825032230
         H            2.688702813999     1.986270277747     0.461611492718     1.007825032230
         H            2.060771813999     0.826634277747     1.646487492718     1.007825032230
         H            0.985816813999     2.059526277747     0.953082492718     1.007825032230
         H            3.494975813999     0.053472277747    -1.029751507282     1.007825032230
         H            2.353058813999    -1.206729722253    -1.532749507282     1.007825032230
         H            2.874727813999    -1.119814722253     0.153386492718     1.007825032230
         H           -2.171637186001    -1.323652722253    -0.269065507282     1.007825032230
         H           -2.060842186001    -0.480903722253     1.277993492718     1.007825032230
         H           -4.204863186001     0.117139277747     0.094490492718     1.007825032230
         H           -3.159417186001     1.540742277747     0.260688492718     1.007825032230
         H           -3.266293186001     0.696366277747    -1.294968507282     1.007825032230

  Basis Set: AUG-CC-PVTZ
    Blend: AUG-CC-PVTZ
  Basis Set: (AUG-CC-PVTZ AUX)
    Blend: AUG-CC-PVTZ-JKFIT
	 Reference Energy          =    -384.0836153901826719 [Eh]
	 Singles Energy            =      -0.0000000000000000 [Eh]
	 Same-Spin Energy          =      -0.3840319338672592 [Eh]
	 Opposite-Spin Energy      =      -1.2873926255739403 [Eh]
	 Correlation Energy        =      -1.6714245594411996 [Eh]
	 Total Energy              =    -385.7550399496238924 [Eh]

	 ================> DF-SCS-MP2 Energies <==================
	-----------------------------------------------------------
	 SCS Same-Spin Scale       =       0.3333333333333333 [-]
	 SCS Opposite-Spin Scale   =       1.2000000000000000 [-]
	 SCS Same-Spin Energy      =      -0.1280106446224197 [Eh]
	 SCS Opposite-Spin Energy  =      -1.5448711506887283 [Eh]
	 SCS Correlation Energy    =      -1.6728817953111479 [Eh]
	 SCS Total Energy          =    -385.7564971854937994 [Eh]
	-----------------------------------------------------------

  Dipole Moment: [D]
     X:    -0.8008      Y:     1.5607      Z:    -0.5852     Total:     1.8492

*** Psi4 exiting successfully. Buy a developer a beer!
