                               Psi4 1.4a3.dev225

  ==> Input File <==

--------------------------------------------------------------------------
#psi4
#
memory 32 gb

molecule  {
0 1
  O       -0.8844740     0.2512200    -0.2589860
  O        0.2594420    -1.5357810     0.5540110
  C        1.4751410     0.3499910    -0.3991000
  C        1.6546012     1.5809409     0.5813098
  C        2.7076510    -0.5454760    -0.4239080
  C        0.2527860    -0.4396860     0.0153880
  C       -2.1066380    -0.4073920     0.1545600
  C       -3.2437300     0.5134160    -0.2249800
  H        1.2747850     0.7394360    -1.4046030
  H        2.5199720     2.1341380     0.2549160
  H        1.8085970     1.1898350     1.5745190
  H        0.7675450     2.1869880     0.5363060
  H        3.5809030     0.0268420    -0.7502520
  H        2.5706130    -1.3892510    -1.1045820
  H        2.9042310    -0.9491700     0.5720060
  H       -2.1727950    -1.3769310    -0.3467220
  H       -2.0631380    -0.5911830     1.2316620
  H       -4.1987120     0.0656950     0.0643780
  H       -3.1432900     1.4757990     0.2814060
  H       -3.2533220     0.6866720    -1.3031500
units angstrom
no_reorient  #important for SAPT in psi4, default
symmetry c1  #important for SAPT in psi4, default
}

set PROPERTIES_ORIGIN ["COM"]
properties('MP2/aug-cc-pvtz', properties = ['dipole'])
--------------------------------------------------------------------------

    Molecular point group: c1
  Charge       = 0
  Multiplicity = 1
  Basis Set: AUG-CC-PVTZ
    Blend: AUG-CC-PVTZ
  Basis Set: (AUG-CC-PVTZ AUX)
    Blend: AUG-CC-PVTZ-JKFIT

    Orbital Energies [Eh]
    ---------------------

    Doubly Occupied:

       1A    -20.598228     2A    -20.540622     3A    -11.373729
       4A    -11.286782     5A    -11.248476     6A    -11.225949
       7A    -11.224270     8A    -11.215980     9A     -1.448043
      10A     -1.347845    11A     -1.087249    12A     -1.033055
      13A     -0.939560    14A     -0.894916    15A     -0.829286
      16A     -0.760657    17A     -0.695792    18A     -0.676437
      19A     -0.660993    20A     -0.619283    21A     -0.587476
      22A     -0.582442    23A     -0.556059    24A     -0.551184
      25A     -0.549862    26A     -0.518164    27A     -0.509403
      28A     -0.505427    29A     -0.494074    30A     -0.471859
      31A     -0.455293    32A     -0.436006

  @DF-RHF Final Energy:  -384.08403371795146

   => Energetics <=

    Nuclear Repulsion Energy =            394.9555286224145334
    One-Electron Energy =               -1306.2303237301650825
    Two-Electron Energy =                 527.1907613897991496
    Total Energy =                       -384.0840337179514563
  Basis Set: (AUG-CC-PVTZ AUX)
    Blend: AUG-CC-PVTZ-RI
    Molecular point group: c1

    Geometry (in Angstrom), charge = 0, multiplicity = 1:

       Center              X                  Y                   Z               Mass
    ------------   -----------------  -----------------  -----------------  -----------------
         O           -0.879998341455     0.283034884286    -0.265541072943    15.994914619570
         O            0.263917658545    -1.503966115714     0.547455927057    15.994914619570
         C            1.479616658545     0.381805884286    -0.405655072943    12.000000000000
         C            1.659076858545     1.612755784286     0.574754727057    12.000000000000
         C            2.712126658545    -0.513661115714    -0.430463072943    12.000000000000
         C            0.257261658545    -0.407871115714     0.008832927057    12.000000000000
         C           -2.102162341455    -0.375577115714     0.148004927057    12.000000000000
         C           -3.239254341455     0.545230884286    -0.231535072943    12.000000000000
         H            1.279260658545     0.771250884286    -1.411158072943     1.007825032230
         H            2.524447658545     2.165952884286     0.248360927057     1.007825032230
         H            1.813072658545     1.221649884286     1.567963927057     1.007825032230
         H            0.772020658545     2.218802884286     0.529750927057     1.007825032230
         H            3.585378658545     0.058656884286    -0.756807072943     1.007825032230
         H            2.575088658545    -1.357436115714    -1.111137072943     1.007825032230
         H            2.908706658545    -0.917355115714     0.565450927057     1.007825032230
         H           -2.168319341455    -1.345116115714    -0.353277072943     1.007825032230
         H           -2.058662341455    -0.559368115714     1.225106927057     1.007825032230
         H           -4.194236341455     0.097509884286     0.057822927057     1.007825032230
         H           -3.138814341455     1.507613884286     0.274850927057     1.007825032230
         H           -3.248846341455     0.718486884286    -1.309705072943     1.007825032230

  Basis Set: AUG-CC-PVTZ
    Blend: AUG-CC-PVTZ
  Basis Set: (AUG-CC-PVTZ AUX)
    Blend: AUG-CC-PVTZ-JKFIT
	 Reference Energy          =    -384.0840337179514563 [Eh]
	 Singles Energy            =      -0.0000000000000000 [Eh]
	 Same-Spin Energy          =      -0.3835645529879644 [Eh]
	 Opposite-Spin Energy      =      -1.2865792257216664 [Eh]
	 Correlation Energy        =      -1.6701437787096309 [Eh]
	 Total Energy              =    -385.7541774966611001 [Eh]

	 ================> DF-SCS-MP2 Energies <==================
	-----------------------------------------------------------
	 SCS Same-Spin Scale       =       0.3333333333333333 [-]
	 SCS Opposite-Spin Scale   =       1.2000000000000000 [-]
	 SCS Same-Spin Energy      =      -0.1278548509959881 [Eh]
	 SCS Opposite-Spin Energy  =      -1.5438950708659995 [Eh]
	 SCS Correlation Energy    =      -1.6717499218619876 [Eh]
	 SCS Total Energy          =    -385.7557836398134441 [Eh]
	-----------------------------------------------------------

  Dipole Moment: [D]
     X:    -0.7020      Y:     1.6179      Z:    -0.6303     Total:     1.8729

*** Psi4 exiting successfully. Buy a developer a beer!
