                               Psi4 1.3.2 release

  ==> Input File <==

--------------------------------------------------------------------------
#psi4
#
memory 32 gb

molecule  {
0 1
  O       -0.8946000     0.3180840    -0.2486650
  O        0.3246485    -1.4516138     0.5746368
  C        1.5072240     0.3632364    -0.3690119
  C        1.8184670     1.3890190     0.7353960
  C        2.6165010    -0.5169580    -0.7250520
  C        0.2447430    -0.3668820     0.0213200
  C       -2.1092640    -0.3317960     0.1925940
  C       -3.2536250     0.5656790    -0.2140850
  H        1.1864410     1.0054960    -1.2820320
  H        2.6888660     1.9907190     0.4595330
  H        2.0609350     0.8310830     1.6444090
  H        0.9859800     2.0639750     0.9510040
  H        3.4951390     0.0579210    -1.0318300
  H        2.3532220    -1.2022810    -1.5348280
  H        2.8748910    -1.1153660     0.1513080
  H       -2.1714740    -1.3192040    -0.2711440
  H       -2.0606790    -0.4764550     1.2759150
  H       -4.2047000     0.1215880     0.0924120
  H       -3.1592540     1.5451910     0.2586100
  H       -3.2661300     0.7008150    -1.2970470
units angstrom
no_reorient  #important for SAPT in psi4, default
symmetry c1  #important for SAPT in psi4, default
}

set PROPERTIES_ORIGIN ["COM"]
properties('MP2/aug-cc-pvtz', properties = ['dipole'])
--------------------------------------------------------------------------

    Molecular point group: c1
  Charge       = 0
  Multiplicity = 1
  Basis Set: AUG-CC-PVTZ
    Blend: AUG-CC-PVTZ
  Basis Set: (AUG-CC-PVTZ AUX)
    Blend: AUG-CC-PVTZ-JKFIT

    Orbital Energies [Eh]
    ---------------------

    Doubly Occupied:

       1A    -20.605005     2A    -20.539492     3A    -11.373691
       4A    -11.290004     5A    -11.245748     6A    -11.226270
       7A    -11.226143     8A    -11.213132     9A     -1.450073
      10A     -1.353339    11A     -1.096496    12A     -1.038076
      13A     -0.943783    14A     -0.894478    15A     -0.828397
      16A     -0.761705    17A     -0.693791    18A     -0.679980
      19A     -0.660891    20A     -0.623559    21A     -0.592643
      22A     -0.585889    23A     -0.558392    24A     -0.549321
      25A     -0.544683    26A     -0.522343    27A     -0.514066
      28A     -0.506929    29A     -0.498096    30A     -0.461891
      31A     -0.457630    32A     -0.430020

  @DF-RHF Final Energy:  -384.07689473010174

   => Energetics <=

    Nuclear Repulsion Energy =            396.0362380730026644
    One-Electron Energy =               -1308.2943536909533577
    Two-Electron Energy =                 528.1812208878490082
    Total Energy =                       -384.0768947301016851
  Basis Set: (AUG-CC-PVTZ AUX)
    Blend: AUG-CC-PVTZ-RI
    Molecular point group: c1

    Geometry (in Angstrom), charge = 0, multiplicity = 1:

       Center              X                  Y                   Z               Mass
    ------------   -----------------  -----------------  -----------------  -----------------
         O           -0.908052292410     0.323827760902    -0.251417900147    15.994914619570
         O            0.311196207590    -1.445870039098     0.571883899853    15.994914619570
         C            1.493771707590     0.368980160902    -0.371764800147    12.000000000000
         C            1.805014707590     1.394762760902     0.732643099853    12.000000000000
         C            2.603048707590    -0.511214239098    -0.727804900147    12.000000000000
         C            0.231290707590    -0.361138239098     0.018567099853    12.000000000000
         C           -2.122716292410    -0.326052239098     0.189841099853    12.000000000000
         C           -3.267077292410     0.571422760902    -0.216837900147    12.000000000000
         H            1.172988707590     1.011239760902    -1.284784900147     1.007825032230
         H            2.675413707590     1.996462760902     0.456780099853     1.007825032230
         H            2.047482707590     0.836826760902     1.641656099853     1.007825032230
         H            0.972527707590     2.069718760902     0.948251099853     1.007825032230
         H            3.481686707590     0.063664760902    -1.034582900147     1.007825032230
         H            2.339769707590    -1.196537239098    -1.537580900147     1.007825032230
         H            2.861438707590    -1.109622239098     0.148555099853     1.007825032230
         H           -2.184926292410    -1.313460239098    -0.273896900147     1.007825032230
         H           -2.074131292410    -0.470711239098     1.273162099853     1.007825032230
         H           -4.218152292410     0.127331760902     0.089659099853     1.007825032230
         H           -3.172706292410     1.550934760902     0.255857099853     1.007825032230
         H           -3.279582292410     0.706558760902    -1.299799900147     1.007825032230

  Basis Set: AUG-CC-PVTZ
    Blend: AUG-CC-PVTZ
  Basis Set: (AUG-CC-PVTZ AUX)
    Blend: AUG-CC-PVTZ-JKFIT
	 Reference Energy          =    -384.0768947301017420 [Eh]
	 Singles Energy            =      -0.0000000000000000 [Eh]
	 Same-Spin Energy          =      -0.3843598528679101 [Eh]
	 Opposite-Spin Energy      =      -1.2874814974449933 [Eh]
	 Correlation Energy        =      -1.6718413503129033 [Eh]
	 Total Energy              =    -385.7487360804146306 [Eh]

	 ================> DF-SCS-MP2 Energies <==================
	-----------------------------------------------------------
	 SCS Same-Spin Scale       =       0.3333333333333333 [-]
	 SCS Opposite-Spin Scale   =       1.2000000000000000 [-]
	 SCS Same-Spin Energy      =      -0.1281199509559700 [Eh]
	 SCS Opposite-Spin Energy  =      -1.5449777969339920 [Eh]
	 SCS Correlation Energy    =      -1.6730977478899620 [Eh]
	 SCS Total Energy          =    -385.7499924779917251 [Eh]
	-----------------------------------------------------------

  Dipole Moment: [D]
     X:    -0.9087      Y:     1.5401      Z:    -0.5825     Total:     1.8807

*** Psi4 exiting successfully. Buy a developer a beer!
