                               Psi4 1.3.2 release

  ==> Input File <==

--------------------------------------------------------------------------
#psi4
#
memory 32 gb

molecule  {
0 1
  O       -0.8946000     0.3180840    -0.2486650
  O        0.2608140    -1.4535000     0.5764690
  C        1.4621750     0.4213130    -0.3980820
  C        1.8184670     1.3890190     0.7353960
  C        2.6165010    -0.5169580    -0.7250520
  C        0.1641040    -0.4190896     0.0490999
  C       -2.1092640    -0.3317960     0.1925940
  C       -3.2536250     0.5656790    -0.2140850
  H        1.1864410     1.0054960    -1.2820320
  H        2.6888660     1.9907190     0.4595330
  H        2.0609350     0.8310830     1.6444090
  H        0.9859800     2.0639750     0.9510040
  H        3.4951390     0.0579210    -1.0318300
  H        2.3532220    -1.2022810    -1.5348280
  H        2.8748910    -1.1153660     0.1513080
  H       -2.1714740    -1.3192040    -0.2711440
  H       -2.0606790    -0.4764550     1.2759150
  H       -4.2047000     0.1215880     0.0924120
  H       -3.1592540     1.5451910     0.2586100
  H       -3.2661300     0.7008150    -1.2970470
units angstrom
no_reorient  #important for SAPT in psi4, default
symmetry c1  #important for SAPT in psi4, default
}

set PROPERTIES_ORIGIN ["COM"]
properties('MP2/aug-cc-pvtz', properties = ['dipole'])
--------------------------------------------------------------------------

    Molecular point group: c1
  Charge       = 0
  Multiplicity = 1
  Basis Set: AUG-CC-PVTZ
    Blend: AUG-CC-PVTZ
  Basis Set: (AUG-CC-PVTZ AUX)
    Blend: AUG-CC-PVTZ-JKFIT

    Orbital Energies [Eh]
    ---------------------

    Doubly Occupied:

       1A    -20.607305     2A    -20.545478     3A    -11.366741
       4A    -11.290800     5A    -11.238658     6A    -11.227063
       7A    -11.219359     8A    -11.210704     9A     -1.475150
      10A     -1.385771    11A     -1.076687    12A     -1.038216
      13A     -0.931705    14A     -0.888442    15A     -0.819094
      16A     -0.770866    17A     -0.699178    18A     -0.689661
      19A     -0.670825    20A     -0.618173    21A     -0.595147
      22A     -0.585961    23A     -0.556258    24A     -0.549517
      25A     -0.540647    26A     -0.523233    27A     -0.519025
      28A     -0.513835    29A     -0.482368    30A     -0.477877
      31A     -0.466942    32A     -0.415074

  @DF-RHF Final Energy:  -384.07910891013586

   => Energetics <=

    Nuclear Repulsion Energy =            396.2667767191156827
    One-Electron Energy =               -1308.7002519136581213
    Two-Electron Energy =                 528.3543662844065238
    Total Energy =                       -384.0791089101359148
  Basis Set: (AUG-CC-PVTZ AUX)
    Blend: AUG-CC-PVTZ-RI
    Molecular point group: c1

    Geometry (in Angstrom), charge = 0, multiplicity = 1:

       Center              X                  Y                   Z               Mass
    ------------   -----------------  -----------------  -----------------  -----------------
         O           -0.886263852416     0.323480956125    -0.251536982146    15.994914619570
         O            0.269150147584    -1.448103043875     0.573597017854    15.994914619570
         C            1.470511147584     0.426709956125    -0.400953982146    12.000000000000
         C            1.826803147584     1.394415956125     0.732524017854    12.000000000000
         C            2.624837147584    -0.511561043875    -0.727923982146    12.000000000000
         C            0.172440147584    -0.413692643875     0.046227917854    12.000000000000
         C           -2.100927852416    -0.326399043875     0.189722017854    12.000000000000
         C           -3.245288852416     0.571075956125    -0.216956982146    12.000000000000
         H            1.194777147584     1.010892956125    -1.284903982146     1.007825032230
         H            2.697202147584     1.996115956125     0.456661017854     1.007825032230
         H            2.069271147584     0.836479956125     1.641537017854     1.007825032230
         H            0.994316147584     2.069371956125     0.948132017854     1.007825032230
         H            3.503475147584     0.063317956125    -1.034701982146     1.007825032230
         H            2.361558147584    -1.196884043875    -1.537699982146     1.007825032230
         H            2.883227147584    -1.109969043875     0.148436017854     1.007825032230
         H           -2.163137852416    -1.313807043875    -0.274015982146     1.007825032230
         H           -2.052342852416    -0.471058043875     1.273043017854     1.007825032230
         H           -4.196363852416     0.126984956125     0.089540017854     1.007825032230
         H           -3.150917852416     1.550587956125     0.255738017854     1.007825032230
         H           -3.257793852416     0.706211956125    -1.299918982146     1.007825032230

  Basis Set: AUG-CC-PVTZ
    Blend: AUG-CC-PVTZ
  Basis Set: (AUG-CC-PVTZ AUX)
    Blend: AUG-CC-PVTZ-JKFIT
	 Reference Energy          =    -384.0791089101358580 [Eh]
	 Singles Energy            =      -0.0000000000000000 [Eh]
	 Same-Spin Energy          =      -0.3824251780557478 [Eh]
	 Opposite-Spin Energy      =      -1.2839958847200310 [Eh]
	 Correlation Energy        =      -1.6664210627757787 [Eh]
	 Total Energy              =    -385.7455299729116405 [Eh]

	 ================> DF-SCS-MP2 Energies <==================
	-----------------------------------------------------------
	 SCS Same-Spin Scale       =       0.3333333333333333 [-]
	 SCS Opposite-Spin Scale   =       1.2000000000000000 [-]
	 SCS Same-Spin Energy      =      -0.1274750593519159 [Eh]
	 SCS Opposite-Spin Energy  =      -1.5407950616640371 [Eh]
	 SCS Correlation Energy    =      -1.6682701210159530 [Eh]
	 SCS Total Energy          =    -385.7473790311518087 [Eh]
	-----------------------------------------------------------

  Dipole Moment: [D]
     X:    -1.2739      Y:     1.2928      Z:    -0.4907     Total:     1.8801

*** Psi4 exiting successfully. Buy a developer a beer!
