                               Psi4 1.3.2 release

  ==> Input File <==

--------------------------------------------------------------------------
#psi4
#
memory 32 gb

molecule  {
0 1
  O       -0.9370988     0.3743619    -0.2762684
  O        0.2608140    -1.4535000     0.5764690
  C        1.4621750     0.4213130    -0.3980820
  C        1.8184670     1.3890190     0.7353960
  C        2.6165010    -0.5169580    -0.7250520
  C        0.2447430    -0.3668820     0.0213200
  C       -2.1092640    -0.3317960     0.1925940
  C       -3.2007298     0.6155991    -0.2450774
  H        1.1864410     1.0054960    -1.2820320
  H        2.6888660     1.9907190     0.4595330
  H        2.0609350     0.8310830     1.6444090
  H        0.9859800     2.0639750     0.9510040
  H        3.4951390     0.0579210    -1.0318300
  H        2.3532220    -1.2022810    -1.5348280
  H        2.8748910    -1.1153660     0.1513080
  H       -2.1714740    -1.3192040    -0.2711440
  H       -2.0606790    -0.4764550     1.2759150
  H       -4.2047000     0.1215880     0.0924120
  H       -3.1592540     1.5451910     0.2586100
  H       -3.2661300     0.7008150    -1.2970470
units angstrom
no_reorient  #important for SAPT in psi4, default
symmetry c1  #important for SAPT in psi4, default
}

set PROPERTIES_ORIGIN ["COM"]
properties('MP2/aug-cc-pvtz', properties = ['dipole'])
--------------------------------------------------------------------------

    Molecular point group: c1
  Charge       = 0
  Multiplicity = 1
  Basis Set: AUG-CC-PVTZ
    Blend: AUG-CC-PVTZ
  Basis Set: (AUG-CC-PVTZ AUX)
    Blend: AUG-CC-PVTZ-JKFIT

    Orbital Energies [Eh]
    ---------------------

    Doubly Occupied:

       1A    -20.596247     2A    -20.553952     3A    -11.382181
       4A    -11.282447     5A    -11.248422     6A    -11.228830
       7A    -11.219973     8A    -11.219498     9A     -1.433091
      10A     -1.351822    11A     -1.095577    12A     -1.025874
      13A     -0.941247    14A     -0.887897    15A     -0.830600
      16A     -0.753915    17A     -0.700039    18A     -0.674005
      19A     -0.659284    20A     -0.621321    21A     -0.592554
      22A     -0.583162    23A     -0.555999    24A     -0.547177
      25A     -0.527738    26A     -0.518638    27A     -0.514542
      28A     -0.511816    29A     -0.488716    30A     -0.483656
      31A     -0.459002    32A     -0.435231

  @DF-RHF Final Energy:  -384.06839998804043

   => Energetics <=

    Nuclear Repulsion Energy =            394.6936712935793139
    One-Electron Energy =               -1305.6752345550960399
    Two-Electron Energy =                 526.9131632734762434
    Total Energy =                       -384.0683999880404826
  Basis Set: (AUG-CC-PVTZ AUX)
    Blend: AUG-CC-PVTZ-RI
    Molecular point group: c1

    Geometry (in Angstrom), charge = 0, multiplicity = 1:

       Center              X                  Y                   Z               Mass
    ------------   -----------------  -----------------  -----------------  -----------------
         O           -0.936710757852     0.361447137399    -0.269261464317    15.994914619570
         O            0.261202042148    -1.466414762601     0.583475935683    15.994914619570
         C            1.462563042148     0.408398237399    -0.391075064317    12.000000000000
         C            1.818855042148     1.376104237399     0.742402935683    12.000000000000
         C            2.616889042148    -0.529872762601    -0.718045064317    12.000000000000
         C            0.245131042148    -0.379796762601     0.028326935683    12.000000000000
         C           -2.108875957852    -0.344710762601     0.199600935683    12.000000000000
         C           -3.200341757852     0.602684337399    -0.238070464317    12.000000000000
         H            1.186829042148     0.992581237399    -1.275025064317     1.007825032230
         H            2.689254042148     1.977804237399     0.466539935683     1.007825032230
         H            2.061323042148     0.818168237399     1.651415935683     1.007825032230
         H            0.986368042148     2.051060237399     0.958010935683     1.007825032230
         H            3.495527042148     0.045006237399    -1.024823064317     1.007825032230
         H            2.353610042148    -1.215195762601    -1.527821064317     1.007825032230
         H            2.875279042148    -1.128280762601     0.158314935683     1.007825032230
         H           -2.171085957852    -1.332118762601    -0.264137064317     1.007825032230
         H           -2.060290957852    -0.489369762601     1.282921935683     1.007825032230
         H           -4.204311957852     0.108673237399     0.099418935683     1.007825032230
         H           -3.158865957852     1.532276237399     0.265616935683     1.007825032230
         H           -3.265741957852     0.687900237399    -1.290040064317     1.007825032230

  Basis Set: AUG-CC-PVTZ
    Blend: AUG-CC-PVTZ
  Basis Set: (AUG-CC-PVTZ AUX)
    Blend: AUG-CC-PVTZ-JKFIT
	 Reference Energy          =    -384.0683999880404258 [Eh]
	 Singles Energy            =      -0.0000000000000000 [Eh]
	 Same-Spin Energy          =      -0.3853778657007327 [Eh]
	 Opposite-Spin Energy      =      -1.2906986680142940 [Eh]
	 Correlation Energy        =      -1.6760765337150267 [Eh]
	 Total Energy              =    -385.7444765217554732 [Eh]

	 ================> DF-SCS-MP2 Energies <==================
	-----------------------------------------------------------
	 SCS Same-Spin Scale       =       0.3333333333333333 [-]
	 SCS Opposite-Spin Scale   =       1.2000000000000000 [-]
	 SCS Same-Spin Energy      =      -0.1284592885669109 [Eh]
	 SCS Opposite-Spin Energy  =      -1.5488384016171528 [Eh]
	 SCS Correlation Energy    =      -1.6772976901840637 [Eh]
	 SCS Total Energy          =    -385.7456976782244737 [Eh]
	-----------------------------------------------------------

  Dipole Moment: [D]
     X:    -0.2478      Y:     1.3861      Z:    -0.5209     Total:     1.5014

*** Psi4 exiting successfully. Buy a developer a beer!
