                               Psi4 1.3.2 release

  ==> Input File <==

--------------------------------------------------------------------------
#psi4
#
memory 32 gb

molecule  {
0 1
  O       -0.8681103     0.2795661    -0.2295860
  O        0.2608140    -1.4535000     0.5764690
  C        1.4621750     0.4213130    -0.3980820
  C        1.8184670     1.3890190     0.7353960
  C        2.6165010    -0.5169580    -0.7250520
  C        0.2447430    -0.3668820     0.0213200
  C       -2.1092640    -0.3317960     0.1925940
  C       -3.2871545     0.5310236    -0.1927987
  H        1.1864410     1.0054960    -1.2820320
  H        2.6888660     1.9907190     0.4595330
  H        2.0609350     0.8310830     1.6444090
  H        0.9859800     2.0639750     0.9510040
  H        3.4951390     0.0579210    -1.0318300
  H        2.3532220    -1.2022810    -1.5348280
  H        2.8748910    -1.1153660     0.1513080
  H       -2.1714740    -1.3192040    -0.2711440
  H       -2.0606790    -0.4764550     1.2759150
  H       -4.2047000     0.1215880     0.0924120
  H       -3.1592540     1.5451910     0.2586100
  H       -3.2661300     0.7008150    -1.2970470
units angstrom
no_reorient  #important for SAPT in psi4, default
symmetry c1  #important for SAPT in psi4, default
}

set PROPERTIES_ORIGIN ["COM"]
properties('MP2/aug-cc-pvtz', properties = ['dipole'])
--------------------------------------------------------------------------

    Molecular point group: c1
  Charge       = 0
  Multiplicity = 1
  Basis Set: AUG-CC-PVTZ
    Blend: AUG-CC-PVTZ
  Basis Set: (AUG-CC-PVTZ AUX)
    Blend: AUG-CC-PVTZ-JKFIT

    Orbital Energies [Eh]
    ---------------------

    Doubly Occupied:

       1A    -20.601550     2A    -20.530476     3A    -11.367437
       4A    -11.290327     5A    -11.243951     6A    -11.228213
       7A    -11.226263     8A    -11.215738     9A     -1.465311
      10A     -1.344964    11A     -1.093967    12A     -1.040976
      13A     -0.938206    14A     -0.902293    15A     -0.828127
      16A     -0.767437    17A     -0.698592    18A     -0.681918
      19A     -0.663155    20A     -0.618779    21A     -0.590770
      22A     -0.583017    23A     -0.575761    24A     -0.550987
      25A     -0.543023    26A     -0.518635    27A     -0.502736
      28A     -0.499842    29A     -0.488638    30A     -0.479329
      31A     -0.451778    32A     -0.433693

  @DF-RHF Final Energy:  -384.08411412142561

   => Energetics <=

    Nuclear Repulsion Energy =            396.6411161647732229
    One-Electron Energy =               -1309.5186843976975979
    Two-Electron Energy =                 528.7934541114988178
    Total Energy =                       -384.0841141214256140
  Basis Set: (AUG-CC-PVTZ AUX)
    Blend: AUG-CC-PVTZ-RI
    Molecular point group: c1

    Geometry (in Angstrom), charge = 0, multiplicity = 1:

       Center              X                  Y                   Z               Mass
    ------------   -----------------  -----------------  -----------------  -----------------
         O           -0.868293989717     0.288455915314    -0.234415567216    15.994914619570
         O            0.260630310283    -1.444610184686     0.571639432784    15.994914619570
         C            1.461991310283     0.430202815314    -0.402911567216    12.000000000000
         C            1.818283310283     1.397908815314     0.730566432784    12.000000000000
         C            2.616317310283    -0.508068184686    -0.729881567216    12.000000000000
         C            0.244559310283    -0.357992184686     0.016490432784    12.000000000000
         C           -2.109447689717    -0.322906184686     0.187764432784    12.000000000000
         C           -3.287338189717     0.539913415314    -0.197628267216    12.000000000000
         H            1.186257310283     1.014385815314    -1.286861567216     1.007825032230
         H            2.688682310283     1.999608815314     0.454703432784     1.007825032230
         H            2.060751310283     0.839972815314     1.639579432784     1.007825032230
         H            0.985796310283     2.072864815314     0.946174432784     1.007825032230
         H            3.494955310283     0.066810815314    -1.036659567216     1.007825032230
         H            2.353038310283    -1.193391184686    -1.539657567216     1.007825032230
         H            2.874707310283    -1.106476184686     0.146478432784     1.007825032230
         H           -2.171657689717    -1.310314184686    -0.275973567216     1.007825032230
         H           -2.060862689717    -0.467565184686     1.271085432784     1.007825032230
         H           -4.204883689717     0.130477815314     0.087582432784     1.007825032230
         H           -3.159437689717     1.554080815314     0.253780432784     1.007825032230
         H           -3.266313689717     0.709704815314    -1.301876567216     1.007825032230

  Basis Set: AUG-CC-PVTZ
    Blend: AUG-CC-PVTZ
  Basis Set: (AUG-CC-PVTZ AUX)
    Blend: AUG-CC-PVTZ-JKFIT
	 Reference Energy          =    -384.0841141214256140 [Eh]
	 Singles Energy            =      -0.0000000000000000 [Eh]
	 Same-Spin Energy          =      -0.3831523826117724 [Eh]
	 Opposite-Spin Energy      =      -1.2846680011911005 [Eh]
	 Correlation Energy        =      -1.6678203838028729 [Eh]
	 Total Energy              =    -385.7519345052284621 [Eh]

	 ================> DF-SCS-MP2 Energies <==================
	-----------------------------------------------------------
	 SCS Same-Spin Scale       =       0.3333333333333333 [-]
	 SCS Opposite-Spin Scale   =       1.2000000000000000 [-]
	 SCS Same-Spin Energy      =      -0.1277174608705908 [Eh]
	 SCS Opposite-Spin Energy  =      -1.5416016014293206 [Eh]
	 SCS Correlation Energy    =      -1.6693190622999112 [Eh]
	 SCS Total Energy          =    -385.7534331837255195 [Eh]
	-----------------------------------------------------------

  Dipole Moment: [D]
     X:    -0.9809      Y:     1.7405      Z:    -0.6717     Total:     2.1078

*** Psi4 exiting successfully. Buy a developer a beer!
