                               Psi4 1.3.2 release

  ==> Input File <==

--------------------------------------------------------------------------
#psi4
#
memory 32 gb

molecule  {
0 1
  O       -0.8946000     0.3180840    -0.2486650
  O        0.2608140    -1.4535000     0.5764690
  C        1.4621750     0.4213130    -0.3980820
  C        1.8184670     1.3890190     0.7353960
  C        2.6165010    -0.5169580    -0.7250520
  C        0.1607535    -0.3163880     0.0014174
  C       -2.1092640    -0.3317960     0.1925940
  C       -3.2536250     0.5656790    -0.2140850
  H        1.1864410     1.0054960    -1.2820320
  H        2.6888660     1.9907190     0.4595330
  H        2.0609350     0.8310830     1.6444090
  H        0.9859800     2.0639750     0.9510040
  H        3.4951390     0.0579210    -1.0318300
  H        2.3532220    -1.2022810    -1.5348280
  H        2.8748910    -1.1153660     0.1513080
  H       -2.1714740    -1.3192040    -0.2711440
  H       -2.0606790    -0.4764550     1.2759150
  H       -4.2047000     0.1215880     0.0924120
  H       -3.1592540     1.5451910     0.2586100
  H       -3.2661300     0.7008150    -1.2970470
units angstrom
no_reorient  #important for SAPT in psi4, default
symmetry c1  #important for SAPT in psi4, default
}

set PROPERTIES_ORIGIN ["COM"]
properties('MP2/aug-cc-pvtz', properties = ['dipole'])
--------------------------------------------------------------------------

    Molecular point group: c1
  Charge       = 0
  Multiplicity = 1
  Basis Set: AUG-CC-PVTZ
    Blend: AUG-CC-PVTZ
  Basis Set: (AUG-CC-PVTZ AUX)
    Blend: AUG-CC-PVTZ-JKFIT

    Orbital Energies [Eh]
    ---------------------

    Doubly Occupied:

       1A    -20.624254     2A    -20.521260     3A    -11.372549
       4A    -11.299104     5A    -11.243048     6A    -11.232132
       7A    -11.223408     8A    -11.212583     9A     -1.494596
      10A     -1.315752    11A     -1.088343    12A     -1.050078
      13A     -0.934466    14A     -0.906027    15A     -0.829150
      16A     -0.785276    17A     -0.702586    18A     -0.682109
      19A     -0.669892    20A     -0.614340    21A     -0.596302
      22A     -0.579010    23A     -0.562044    24A     -0.553982
      25A     -0.539923    26A     -0.527097    27A     -0.505990
      28A     -0.499405    29A     -0.487372    30A     -0.479206
      31A     -0.444280    32A     -0.420122

  @DF-RHF Final Energy:  -384.07278561982184

   => Energetics <=

    Nuclear Repulsion Energy =            396.1795934369879433
    One-Electron Energy =               -1308.5133894520160993
    Two-Electron Energy =                 528.2610103952063128
    Total Energy =                       -384.0727856198218433
  Basis Set: (AUG-CC-PVTZ AUX)
    Blend: AUG-CC-PVTZ-RI
    Molecular point group: c1

    Geometry (in Angstrom), charge = 0, multiplicity = 1:

       Center              X                  Y                   Z               Mass
    ------------   -----------------  -----------------  -----------------  -----------------
         O           -0.885917498968     0.312864315843    -0.246607867602    15.994914619570
         O            0.269496501032    -1.458719684157     0.578526132398    15.994914619570
         C            1.470857501032     0.416093315843    -0.396024867602    12.000000000000
         C            1.827149501032     1.383799315843     0.737453132398    12.000000000000
         C            2.625183501032    -0.522177684157    -0.722994867602    12.000000000000
         C            0.169436001032    -0.321607684157     0.003474532398    12.000000000000
         C           -2.100581498968    -0.337015684157     0.194651132398    12.000000000000
         C           -3.244942498968     0.560459315843    -0.212027867602    12.000000000000
         H            1.195123501032     1.000276315843    -1.279974867602     1.007825032230
         H            2.697548501032     1.985499315843     0.461590132398     1.007825032230
         H            2.069617501032     0.825863315843     1.646466132398     1.007825032230
         H            0.994662501032     2.058755315843     0.953061132398     1.007825032230
         H            3.503821501032     0.052701315843    -1.029772867602     1.007825032230
         H            2.361904501032    -1.207500684157    -1.532770867602     1.007825032230
         H            2.883573501032    -1.120585684157     0.153365132398     1.007825032230
         H           -2.162791498968    -1.324423684157    -0.269086867602     1.007825032230
         H           -2.051996498968    -0.481674684157     1.277972132398     1.007825032230
         H           -4.196017498968     0.116368315843     0.094469132398     1.007825032230
         H           -3.150571498968     1.539971315843     0.260667132398     1.007825032230
         H           -3.257447498968     0.695595315843    -1.294989867602     1.007825032230

  Basis Set: AUG-CC-PVTZ
    Blend: AUG-CC-PVTZ
  Basis Set: (AUG-CC-PVTZ AUX)
    Blend: AUG-CC-PVTZ-JKFIT
	 Reference Energy          =    -384.0727856198218433 [Eh]
	 Singles Energy            =      -0.0000000000000000 [Eh]
	 Same-Spin Energy          =      -0.3840572987346498 [Eh]
	 Opposite-Spin Energy      =      -1.2868030719208448 [Eh]
	 Correlation Energy        =      -1.6708603706554945 [Eh]
	 Total Energy              =    -385.7436459904773187 [Eh]

	 ================> DF-SCS-MP2 Energies <==================
	-----------------------------------------------------------
	 SCS Same-Spin Scale       =       0.3333333333333333 [-]
	 SCS Opposite-Spin Scale   =       1.2000000000000000 [-]
	 SCS Same-Spin Energy      =      -0.1280190995782166 [Eh]
	 SCS Opposite-Spin Energy  =      -1.5441636863050137 [Eh]
	 SCS Correlation Energy    =      -1.6721827858832303 [Eh]
	 SCS Total Energy          =    -385.7449684057050945 [Eh]
	-----------------------------------------------------------

  Dipole Moment: [D]
     X:    -1.5521      Y:     1.9492      Z:    -0.7652     Total:     2.6066

*** Psi4 exiting successfully. Buy a developer a beer!
