                               Psi4 1.3.2 release

  ==> Input File <==

--------------------------------------------------------------------------
#psi4
#
memory 32 gb

molecule  {
0 1
  O       -0.9068361     0.3581393    -0.2204659
  O        0.2608140    -1.4535000     0.5764690
  C        1.4621750     0.4213130    -0.3980820
  C        1.8184670     1.3890190     0.7353960
  C        2.6165010    -0.5169580    -0.7250520
  C        0.2447430    -0.3668820     0.0213200
  C       -2.1092640    -0.3317960     0.1925940
  C       -3.2536250     0.5656790    -0.2140850
  H        1.1864410     1.0054960    -1.2820320
  H        2.6888660     1.9907190     0.4595330
  H        2.0609350     0.8310830     1.6444090
  H        0.9859800     2.0639750     0.9510040
  H        3.4951390     0.0579210    -1.0318300
  H        2.3532220    -1.2022810    -1.5348280
  H        2.8748910    -1.1153660     0.1513080
  H       -2.2045422    -1.3248982    -0.2530153
  H       -2.0606790    -0.4764550     1.2759150
  H       -4.2047000     0.1215880     0.0924120
  H       -3.1592540     1.5451910     0.2586100
  H       -3.2661300     0.7008150    -1.2970470
units angstrom
no_reorient  #important for SAPT in psi4, default
symmetry c1  #important for SAPT in psi4, default
}

set PROPERTIES_ORIGIN ["COM"]
properties('MP2/aug-cc-pvtz', properties = ['dipole'])
--------------------------------------------------------------------------

    Molecular point group: c1
  Charge       = 0
  Multiplicity = 1
  Basis Set: AUG-CC-PVTZ
    Blend: AUG-CC-PVTZ
  Basis Set: (AUG-CC-PVTZ AUX)
    Blend: AUG-CC-PVTZ-JKFIT

    Orbital Energies [Eh]
    ---------------------

    Doubly Occupied:

       1A    -20.599596     2A    -20.545687     3A    -11.377333
       4A    -11.284621     5A    -11.246905     6A    -11.227713
       7A    -11.221700     8A    -11.218101     9A     -1.443077
      10A     -1.350642    11A     -1.094820    12A     -1.031532
      13A     -0.940033    14A     -0.892244    15A     -0.828665
      16A     -0.759493    17A     -0.699767    18A     -0.673922
      19A     -0.661410    20A     -0.620278    21A     -0.588993
      22A     -0.583967    23A     -0.554542    24A     -0.547981
      25A     -0.544174    26A     -0.518921    27A     -0.511534
      28A     -0.505951    29A     -0.490318    30A     -0.481540
      31A     -0.456130    32A     -0.437242

  @DF-RHF Final Energy:  -384.08246779732940

   => Energetics <=

    Nuclear Repulsion Energy =            395.2388573722818137
    One-Electron Energy =               -1306.7649930488178143
    Two-Electron Energy =                 527.4436678792066004
    Total Energy =                       -384.0824677973294001
  Basis Set: (AUG-CC-PVTZ AUX)
    Blend: AUG-CC-PVTZ-RI
    Molecular point group: c1

    Geometry (in Angstrom), charge = 0, multiplicity = 1:

       Center              X                  Y                   Z               Mass
    ------------   -----------------  -----------------  -----------------  -----------------
         O           -0.904862822284     0.352669672579    -0.224509053635    15.994914619570
         O            0.262787277716    -1.458969627421     0.572425846365    15.994914619570
         C            1.464148277716     0.415843372579    -0.402125153635    12.000000000000
         C            1.820440277716     1.383549372579     0.731352846365    12.000000000000
         C            2.618474277716    -0.522427627421    -0.729095153635    12.000000000000
         C            0.246716277716    -0.372351627421     0.017276846365    12.000000000000
         C           -2.107290722284    -0.337265627421     0.188550846365    12.000000000000
         C           -3.251651722284     0.560209372579    -0.218128153635    12.000000000000
         H            1.188414277716     1.000026372579    -1.286075153635     1.007825032230
         H            2.690839277716     1.985249372579     0.455489846365     1.007825032230
         H            2.062908277716     0.825613372579     1.640365846365     1.007825032230
         H            0.987953277716     2.058505372579     0.946960846365     1.007825032230
         H            3.497112277716     0.052451372579    -1.035873153635     1.007825032230
         H            2.355195277716    -1.207750627421    -1.538871153635     1.007825032230
         H            2.876864277716    -1.120835627421     0.147264846365     1.007825032230
         H           -2.202568922284    -1.330367827421    -0.257058453635     1.007825032230
         H           -2.058705722284    -0.481924627421     1.271871846365     1.007825032230
         H           -4.202726722284     0.116118372579     0.088368846365     1.007825032230
         H           -3.157280722284     1.539721372579     0.254566846365     1.007825032230
         H           -3.264156722284     0.695345372579    -1.301090153635     1.007825032230

  Basis Set: AUG-CC-PVTZ
    Blend: AUG-CC-PVTZ
  Basis Set: (AUG-CC-PVTZ AUX)
    Blend: AUG-CC-PVTZ-JKFIT
	 Reference Energy          =    -384.0824677973294001 [Eh]
	 Singles Energy            =      -0.0000000000000000 [Eh]
	 Same-Spin Energy          =      -0.3843194266866764 [Eh]
	 Opposite-Spin Energy      =      -1.2879198799012639 [Eh]
	 Correlation Energy        =      -1.6722393065879402 [Eh]
	 Total Energy              =    -385.7547071039173261 [Eh]

	 ================> DF-SCS-MP2 Energies <==================
	-----------------------------------------------------------
	 SCS Same-Spin Scale       =       0.3333333333333333 [-]
	 SCS Opposite-Spin Scale   =       1.2000000000000000 [-]
	 SCS Same-Spin Energy      =      -0.1281064755622255 [Eh]
	 SCS Opposite-Spin Energy  =      -1.5455038558815166 [Eh]
	 SCS Correlation Energy    =      -1.6736103314437420 [Eh]
	 SCS Total Energy          =    -385.7560781287731402 [Eh]
	-----------------------------------------------------------

  Dipole Moment: [D]
     X:    -0.5415      Y:     1.4769      Z:    -0.6141     Total:     1.6887

*** Psi4 exiting successfully. Buy a developer a beer!
