                               Psi4 1.3.2 release

  ==> Input File <==

--------------------------------------------------------------------------
#psi4
#
memory 32 gb

molecule  {
0 1
  O       -0.8946000     0.3180840    -0.2486650
  O        0.2608140    -1.4535000     0.5764690
  C        1.4621750     0.4213130    -0.3980820
  C        1.8184670     1.3890190     0.7353960
  C        2.6165010    -0.5169580    -0.7250520
  C        0.2383301    -0.3754573     0.0263672
  C       -2.1024218    -0.3413937     0.1971126
  C       -3.2536250     0.5656790    -0.2140850
  H        1.1864410     1.0054960    -1.2820320
  H        2.6888660     1.9907190     0.4595330
  H        2.0609350     0.8310830     1.6444090
  H        0.9859800     2.0639750     0.9510040
  H        3.4951390     0.0579210    -1.0318300
  H        2.3532220    -1.2022810    -1.5348280
  H        2.8748910    -1.1153660     0.1513080
  H       -2.1714740    -1.3192040    -0.2711440
  H       -2.0606790    -0.4764550     1.2759150
  H       -4.2047000     0.1215880     0.0924120
  H       -3.1592540     1.5451910     0.2586100
  H       -3.2661300     0.7008150    -1.2970470
units angstrom
no_reorient  #important for SAPT in psi4, default
symmetry c1  #important for SAPT in psi4, default
}

set PROPERTIES_ORIGIN ["COM"]
properties('MP2/aug-cc-pvtz', properties = ['dipole'])
--------------------------------------------------------------------------

    Molecular point group: c1
  Charge       = 0
  Multiplicity = 1
  Basis Set: AUG-CC-PVTZ
    Blend: AUG-CC-PVTZ
  Basis Set: (AUG-CC-PVTZ AUX)
    Blend: AUG-CC-PVTZ-JKFIT

    Orbital Energies [Eh]
    ---------------------

    Doubly Occupied:

       1A    -20.599696     2A    -20.541724     3A    -11.372438
       4A    -11.285965     5A    -11.245119     6A    -11.226399
       7A    -11.224130     8A    -11.216618     9A     -1.452444
      10A     -1.354508    11A     -1.092093    12A     -1.032146
      13A     -0.938642    14A     -0.893394    15A     -0.828221
      16A     -0.762288    17A     -0.699225    18A     -0.679430
      19A     -0.662651    20A     -0.619646    21A     -0.590950
      22A     -0.583785    23A     -0.554698    24A     -0.548930
      25A     -0.544045    26A     -0.518088    27A     -0.510171
      28A     -0.507747    29A     -0.488804    30A     -0.481533
      31A     -0.458276    32A     -0.434721

  @DF-RHF Final Energy:  -384.08652563890337

   => Energetics <=

    Nuclear Repulsion Energy =            395.8475892346622800
    One-Electron Energy =               -1307.9711799828176026
    Two-Electron Energy =                 528.0370651092518983
    Total Energy =                       -384.0865256389033675
  Basis Set: (AUG-CC-PVTZ AUX)
    Blend: AUG-CC-PVTZ-RI
    Molecular point group: c1

    Geometry (in Angstrom), charge = 0, multiplicity = 1:

       Center              X                  Y                   Z               Mass
    ------------   -----------------  -----------------  -----------------  -----------------
         O           -0.894644179298     0.319962674955    -0.249654123965    15.994914619570
         O            0.260769820702    -1.451621325045     0.575479876035    15.994914619570
         C            1.462130820702     0.423191674955    -0.399071123965    12.000000000000
         C            1.818422820702     1.390897674955     0.734406876035    12.000000000000
         C            2.616456820702    -0.515079325045    -0.726041123965    12.000000000000
         C            0.238285920702    -0.373578625045     0.025378076035    12.000000000000
         C           -2.102465979298    -0.339515025045     0.196123476035    12.000000000000
         C           -3.253669179298     0.567557674955    -0.215074123965    12.000000000000
         H            1.186396820702     1.007374674955    -1.283021123965     1.007825032230
         H            2.688821820702     1.992597674955     0.458543876035     1.007825032230
         H            2.060890820702     0.832961674955     1.643419876035     1.007825032230
         H            0.985935820702     2.065853674955     0.950014876035     1.007825032230
         H            3.495094820702     0.059799674955    -1.032819123965     1.007825032230
         H            2.353177820702    -1.200402325045    -1.535817123965     1.007825032230
         H            2.874846820702    -1.113487325045     0.150318876035     1.007825032230
         H           -2.171518179298    -1.317325325045    -0.272133123965     1.007825032230
         H           -2.060723179298    -0.474576325045     1.274925876035     1.007825032230
         H           -4.204744179298     0.123466674955     0.091422876035     1.007825032230
         H           -3.159298179298     1.547069674955     0.257620876035     1.007825032230
         H           -3.266174179298     0.702693674955    -1.298036123965     1.007825032230

  Basis Set: AUG-CC-PVTZ
    Blend: AUG-CC-PVTZ
  Basis Set: (AUG-CC-PVTZ AUX)
    Blend: AUG-CC-PVTZ-JKFIT
	 Reference Energy          =    -384.0865256389033675 [Eh]
	 Singles Energy            =      -0.0000000000000000 [Eh]
	 Same-Spin Energy          =      -0.3835463341249095 [Eh]
	 Opposite-Spin Energy      =      -1.2861717372783636 [Eh]
	 Correlation Energy        =      -1.6697180714032731 [Eh]
	 Total Energy              =    -385.7562437103066486 [Eh]

	 ================> DF-SCS-MP2 Energies <==================
	-----------------------------------------------------------
	 SCS Same-Spin Scale       =       0.3333333333333333 [-]
	 SCS Opposite-Spin Scale   =       1.2000000000000000 [-]
	 SCS Same-Spin Energy      =      -0.1278487780416365 [Eh]
	 SCS Opposite-Spin Energy  =      -1.5434060847340363 [Eh]
	 SCS Correlation Energy    =      -1.6712548627756727 [Eh]
	 SCS Total Energy          =    -385.7577805016790649 [Eh]
	-----------------------------------------------------------

  Dipole Moment: [D]
     X:    -0.7161      Y:     1.5289      Z:    -0.5815     Total:     1.7856

*** Psi4 exiting successfully. Buy a developer a beer!
