                               Psi4 1.4a3.dev225

  ==> Input File <==

--------------------------------------------------------------------------
#psi4
#
memory 32 gb

molecule  {
0 1
  O       -0.8844740     0.2512200    -0.2589860
  O        0.2594420    -1.5357810     0.5540110
  C        1.4751410     0.3499910    -0.3991000
  C        1.6489360     1.5420820     0.5503600
  C        2.7076510    -0.5454760    -0.4239080
  C        0.2123942    -0.4657803     0.0290844
  C       -2.1066380    -0.4073920     0.1545600
  C       -3.2437300     0.5134160    -0.2249800
  H        1.2747850     0.7394360    -1.4046030
  H        2.5199720     2.1341380     0.2549160
  H        1.8085970     1.1898350     1.5745190
  H        0.7675450     2.1869880     0.5363060
  H        3.5809030     0.0268420    -0.7502520
  H        2.5706130    -1.3892510    -1.1045820
  H        2.9042310    -0.9491700     0.5720060
  H       -2.1727950    -1.3769310    -0.3467220
  H       -2.0631380    -0.5911830     1.2316620
  H       -4.1987120     0.0656950     0.0643780
  H       -3.1432900     1.4757990     0.2814060
  H       -3.2533220     0.6866720    -1.3031500
units angstrom
no_reorient  #important for SAPT in psi4, default
symmetry c1  #important for SAPT in psi4, default
}

set PROPERTIES_ORIGIN ["COM"]
properties('MP2/aug-cc-pvtz', properties = ['dipole'])
--------------------------------------------------------------------------

    Molecular point group: c1
  Charge       = 0
  Multiplicity = 1
  Basis Set: AUG-CC-PVTZ
    Blend: AUG-CC-PVTZ
  Basis Set: (AUG-CC-PVTZ AUX)
    Blend: AUG-CC-PVTZ-JKFIT

    Orbital Energies [Eh]
    ---------------------

    Doubly Occupied:

       1A    -20.602451     2A    -20.543459     3A    -11.370292
       4A    -11.289043     5A    -11.243938     6A    -11.225870
       7A    -11.223012     8A    -11.213013     9A     -1.461085
      10A     -1.366612    11A     -1.083950    12A     -1.035791
      13A     -0.934715    14A     -0.890097    15A     -0.824473
      16A     -0.765921    17A     -0.696728    18A     -0.682537
      19A     -0.667133    20A     -0.620419    21A     -0.588638
      22A     -0.583372    23A     -0.557129    24A     -0.548963
      25A     -0.542108    26A     -0.520135    27A     -0.513032
      28A     -0.509568    29A     -0.486717    30A     -0.480045
      31A     -0.461291    32A     -0.427897

  @DF-RHF Final Energy:  -384.08574225712022

   => Energetics <=

    Nuclear Repulsion Energy =            395.9734277017390127
    One-Electron Energy =               -1308.1994661863409419
    Two-Electron Energy =                 528.1402962274817128
    Total Energy =                       -384.0857422571202733
  Basis Set: (AUG-CC-PVTZ AUX)
    Blend: AUG-CC-PVTZ-RI
    Molecular point group: c1

    Geometry (in Angstrom), charge = 0, multiplicity = 1:

       Center              X                  Y                   Z               Mass
    ------------   -----------------  -----------------  -----------------  -----------------
         O           -0.875237260796     0.289749334300    -0.263757525838    15.994914619570
         O            0.268678739204    -1.497251665700     0.549239474162    15.994914619570
         C            1.484377739204     0.388520334300    -0.403871525838    12.000000000000
         C            1.658172739204     1.580611334300     0.545588474162    12.000000000000
         C            2.716887739204    -0.506946665700    -0.428679525838    12.000000000000
         C            0.221630939204    -0.427250965700     0.024312874162    12.000000000000
         C           -2.097401260796    -0.368862665700     0.149788474162    12.000000000000
         C           -3.234493260796     0.551945334300    -0.229751525838    12.000000000000
         H            1.284021739204     0.777965334300    -1.409374525838     1.007825032230
         H            2.529208739204     2.172667334300     0.250144474162     1.007825032230
         H            1.817833739204     1.228364334300     1.569747474162     1.007825032230
         H            0.776781739204     2.225517334300     0.531534474162     1.007825032230
         H            3.590139739204     0.065371334300    -0.755023525838     1.007825032230
         H            2.579849739204    -1.350721665700    -1.109353525838     1.007825032230
         H            2.913467739204    -0.910640665700     0.567234474162     1.007825032230
         H           -2.163558260796    -1.338401665700    -0.351493525838     1.007825032230
         H           -2.053901260796    -0.552653665700     1.226890474162     1.007825032230
         H           -4.189475260796     0.104224334300     0.059606474162     1.007825032230
         H           -3.134053260796     1.514328334300     0.276634474162     1.007825032230
         H           -3.244085260796     0.725201334300    -1.307921525838     1.007825032230

  Basis Set: AUG-CC-PVTZ
    Blend: AUG-CC-PVTZ
  Basis Set: (AUG-CC-PVTZ AUX)
    Blend: AUG-CC-PVTZ-JKFIT
	 Reference Energy          =    -384.0857422571202164 [Eh]
	 Singles Energy            =      -0.0000000000000000 [Eh]
	 Same-Spin Energy          =      -0.3829451012726777 [Eh]
	 Opposite-Spin Energy      =      -1.2851192321382112 [Eh]
	 Correlation Energy        =      -1.6680643334108889 [Eh]
	 Total Energy              =    -385.7538065905310987 [Eh]

	 ================> DF-SCS-MP2 Energies <==================
	-----------------------------------------------------------
	 SCS Same-Spin Scale       =       0.3333333333333333 [-]
	 SCS Opposite-Spin Scale   =       1.2000000000000000 [-]
	 SCS Same-Spin Energy      =      -0.1276483670908926 [Eh]
	 SCS Opposite-Spin Energy  =      -1.5421430785658534 [Eh]
	 SCS Correlation Energy    =      -1.6697914456567460 [Eh]
	 SCS Total Energy          =    -385.7555337027769724 [Eh]
	-----------------------------------------------------------

  Dipole Moment: [D]
     X:    -0.9957      Y:     1.4561      Z:    -0.5776     Total:     1.8561

*** Psi4 exiting successfully. Buy a developer a beer!
