                               Psi4 1.3.2 release

  ==> Input File <==

--------------------------------------------------------------------------
#psi4
#
memory 32 gb

molecule  {
0 1
  O       -0.8946000     0.3180840    -0.2486650
  O        0.2608140    -1.4535000     0.5764690
  C        1.4621750     0.4213130    -0.3980820
  C        1.7560338     1.3602421     0.7767501
  C        2.6165010    -0.5169580    -0.7250520
  C        0.2448444    -0.3268203     0.0894554
  C       -2.1092640    -0.3317960     0.1925940
  C       -3.2536250     0.5656790    -0.2140850
  H        1.1864410     1.0054960    -1.2820320
  H        2.6888660     1.9907190     0.4595330
  H        2.0609350     0.8310830     1.6444090
  H        0.9859800     2.0639750     0.9510040
  H        3.4951390     0.0579210    -1.0318300
  H        2.3532220    -1.2022810    -1.5348280
  H        2.8748910    -1.1153660     0.1513080
  H       -2.1714740    -1.3192040    -0.2711440
  H       -2.0606790    -0.4764550     1.2759150
  H       -4.2047000     0.1215880     0.0924120
  H       -3.1592540     1.5451910     0.2586100
  H       -3.2661300     0.7008150    -1.2970470
units angstrom
no_reorient  #important for SAPT in psi4, default
symmetry c1  #important for SAPT in psi4, default
}

set PROPERTIES_ORIGIN ["COM"]
properties('MP2/aug-cc-pvtz', properties = ['dipole'])
--------------------------------------------------------------------------

    Molecular point group: c1
  Charge       = 0
  Multiplicity = 1
  Basis Set: AUG-CC-PVTZ
    Blend: AUG-CC-PVTZ
  Basis Set: (AUG-CC-PVTZ AUX)
    Blend: AUG-CC-PVTZ-JKFIT

    Orbital Energies [Eh]
    ---------------------

    Doubly Occupied:

       1A    -20.600445     2A    -20.537692     3A    -11.373196
       4A    -11.286844     5A    -11.246493     6A    -11.228416
       7A    -11.224256     8A    -11.218527     9A     -1.449971
      10A     -1.344732    11A     -1.096237    12A     -1.035059
      13A     -0.942323    14A     -0.893855    15A     -0.828084
      16A     -0.763153    17A     -0.699677    18A     -0.678085
      19A     -0.660349    20A     -0.624827    21A     -0.592895
      22A     -0.581589    23A     -0.559561    24A     -0.553713
      25A     -0.533576    26A     -0.516044    27A     -0.507369
      28A     -0.504957    29A     -0.496197    30A     -0.482578
      31A     -0.454410    32A     -0.428749

  @DF-RHF Final Energy:  -384.07502665780333

   => Energetics <=

    Nuclear Repulsion Energy =            396.3439380763759914
    One-Electron Energy =               -1308.9502147566881831
    Two-Electron Energy =                 528.5312500225088570
    Total Energy =                       -384.0750266578033916
  Basis Set: (AUG-CC-PVTZ AUX)
    Blend: AUG-CC-PVTZ-RI
    Molecular point group: c1

    Geometry (in Angstrom), charge = 0, multiplicity = 1:

       Center              X                  Y                   Z               Mass
    ------------   -----------------  -----------------  -----------------  -----------------
         O           -0.888156334684     0.316917514353    -0.259983602556    15.994914619570
         O            0.267257665316    -1.454666485647     0.565150397444    15.994914619570
         C            1.468618665316     0.420146514353    -0.409400602556    12.000000000000
         C            1.762477465316     1.359075614353     0.765431497444    12.000000000000
         C            2.622944665316    -0.518124485647    -0.736370602556    12.000000000000
         C            0.251288065316    -0.327986785647     0.078136797444    12.000000000000
         C           -2.102820334684    -0.332962485647     0.181275397444    12.000000000000
         C           -3.247181334684     0.564512514353    -0.225403602556    12.000000000000
         H            1.192884665316     1.004329514353    -1.293350602556     1.007825032230
         H            2.695309665316     1.989552514353     0.448214397444     1.007825032230
         H            2.067378665316     0.829916514353     1.633090397444     1.007825032230
         H            0.992423665316     2.062808514353     0.939685397444     1.007825032230
         H            3.501582665316     0.056754514353    -1.043148602556     1.007825032230
         H            2.359665665316    -1.203447485647    -1.546146602556     1.007825032230
         H            2.881334665316    -1.116532485647     0.139989397444     1.007825032230
         H           -2.165030334684    -1.320370485647    -0.282462602556     1.007825032230
         H           -2.054235334684    -0.477621485647     1.264596397444     1.007825032230
         H           -4.198256334684     0.120421514353     0.081093397444     1.007825032230
         H           -3.152810334684     1.544024514353     0.247291397444     1.007825032230
         H           -3.259686334684     0.699648514353    -1.308365602556     1.007825032230

  Basis Set: AUG-CC-PVTZ
    Blend: AUG-CC-PVTZ
  Basis Set: (AUG-CC-PVTZ AUX)
    Blend: AUG-CC-PVTZ-JKFIT
	 Reference Energy          =    -384.0750266578033347 [Eh]
	 Singles Energy            =      -0.0000000000000000 [Eh]
	 Same-Spin Energy          =      -0.3843958243446298 [Eh]
	 Opposite-Spin Energy      =      -1.2875764770983280 [Eh]
	 Correlation Energy        =      -1.6719723014429577 [Eh]
	 Total Energy              =    -385.7469989592462980 [Eh]

	 ================> DF-SCS-MP2 Energies <==================
	-----------------------------------------------------------
	 SCS Same-Spin Scale       =       0.3333333333333333 [-]
	 SCS Opposite-Spin Scale   =       1.2000000000000000 [-]
	 SCS Same-Spin Energy      =      -0.1281319414482099 [Eh]
	 SCS Opposite-Spin Energy  =      -1.5450917725179936 [Eh]
	 SCS Correlation Energy    =      -1.6732237139662034 [Eh]
	 SCS Total Energy          =    -385.7482503717695295 [Eh]
	-----------------------------------------------------------

  Dipole Moment: [D]
     X:    -0.7271      Y:     1.6347      Z:    -0.5720     Total:     1.8784

*** Psi4 exiting successfully. Buy a developer a beer!
