                               Psi4 1.3.2 release

  ==> Input File <==

--------------------------------------------------------------------------
#psi4
#
memory 32 gb

molecule  {
0 1
  O       -0.9225696     0.3558101    -0.2672064
  O        0.2608140    -1.4535000     0.5764690
  C        1.4621750     0.4213130    -0.3980820
  C        1.8184670     1.3890190     0.7353960
  C        2.6165010    -0.5169580    -0.7250520
  C        0.2447430    -0.3668820     0.0213200
  C       -2.1092640    -0.3317960     0.1925940
  C       -3.2187013     0.5992410    -0.2348758
  H        1.1864410     1.0054960    -1.2820320
  H        2.6888660     1.9907190     0.4595330
  H        2.0609350     0.8310830     1.6444090
  H        0.9859800     2.0639750     0.9510040
  H        3.4951390     0.0579210    -1.0318300
  H        2.3532220    -1.2022810    -1.5348280
  H        2.8748910    -1.1153660     0.1513080
  H       -2.1714740    -1.3192040    -0.2711440
  H       -2.0606790    -0.4764550     1.2759150
  H       -4.2047000     0.1215880     0.0924120
  H       -3.1592540     1.5451910     0.2586100
  H       -3.2661300     0.7008150    -1.2970470
units angstrom
no_reorient  #important for SAPT in psi4, default
symmetry c1  #important for SAPT in psi4, default
}

set PROPERTIES_ORIGIN ["COM"]
properties('MP2/aug-cc-pvtz', properties = ['dipole'])
--------------------------------------------------------------------------

    Molecular point group: c1
  Charge       = 0
  Multiplicity = 1
  Basis Set: AUG-CC-PVTZ
    Blend: AUG-CC-PVTZ
  Basis Set: (AUG-CC-PVTZ AUX)
    Blend: AUG-CC-PVTZ-JKFIT

    Orbital Energies [Eh]
    ---------------------

    Doubly Occupied:

       1A    -20.597297     2A    -20.549473     3A    -11.379360
       4A    -11.283595     5A    -11.247444     6A    -11.228252
       7A    -11.220973     8A    -11.218711     9A     -1.437769
      10A     -1.351289    11A     -1.095085    12A     -1.028695
      13A     -0.940585    14A     -0.889931    15A     -0.829644
      16A     -0.756372    17A     -0.699820    18A     -0.674935
      19A     -0.659592    20A     -0.620775    21A     -0.591880
      22A     -0.583547    23A     -0.554911    24A     -0.546340
      25A     -0.532258    26A     -0.517635    27A     -0.515758
      28A     -0.510976    29A     -0.489398    30A     -0.482755
      31A     -0.458000    32A     -0.436250

  @DF-RHF Final Energy:  -384.07667161384359

   => Energetics <=

    Nuclear Repulsion Energy =            395.0509667296375937
    One-Electron Energy =               -1306.3966671460686939
    Two-Electron Energy =                 527.2690288025875134
    Total Energy =                       -384.0766716138435868
  Basis Set: (AUG-CC-PVTZ AUX)
    Blend: AUG-CC-PVTZ-RI
    Molecular point group: c1

    Geometry (in Angstrom), charge = 0, multiplicity = 1:

       Center              X                  Y                   Z               Mass
    ------------   -----------------  -----------------  -----------------  -----------------
         O           -0.922325723736     0.347142544641    -0.262502673536    15.994914619570
         O            0.261057876264    -1.462167555359     0.581172726464    15.994914619570
         C            1.462418876264     0.412645444641    -0.393378273536    12.000000000000
         C            1.818710876264     1.380351444641     0.740099726464    12.000000000000
         C            2.616744876264    -0.525625555359    -0.720348273536    12.000000000000
         C            0.244986876264    -0.375549555359     0.026023726464    12.000000000000
         C           -2.109020123736    -0.340463555359     0.197297726464    12.000000000000
         C           -3.218457423736     0.590573444641    -0.230172073536    12.000000000000
         H            1.186684876264     0.996828444641    -1.277328273536     1.007825032230
         H            2.689109876264     1.982051444641     0.464236726464     1.007825032230
         H            2.061178876264     0.822415444641     1.649112726464     1.007825032230
         H            0.986223876264     2.055307444641     0.955707726464     1.007825032230
         H            3.495382876264     0.049253444641    -1.027126273536     1.007825032230
         H            2.353465876264    -1.210948555359    -1.530124273536     1.007825032230
         H            2.875134876264    -1.124033555359     0.156011726464     1.007825032230
         H           -2.171230123736    -1.327871555359    -0.266440273536     1.007825032230
         H           -2.060435123736    -0.485122555359     1.280618726464     1.007825032230
         H           -4.204456123736     0.112920444641     0.097115726464     1.007825032230
         H           -3.159010123736     1.536523444641     0.263313726464     1.007825032230
         H           -3.265886123736     0.692147444641    -1.292343273536     1.007825032230

  Basis Set: AUG-CC-PVTZ
    Blend: AUG-CC-PVTZ
  Basis Set: (AUG-CC-PVTZ AUX)
    Blend: AUG-CC-PVTZ-JKFIT
	 Reference Energy          =    -384.0766716138435868 [Eh]
	 Singles Energy            =      -0.0000000000000000 [Eh]
	 Same-Spin Energy          =      -0.3848087366606651 [Eh]
	 Opposite-Spin Energy      =      -1.2891960422945523 [Eh]
	 Correlation Energy        =      -1.6740047789552173 [Eh]
	 Total Energy              =    -385.7506763927988231 [Eh]

	 ================> DF-SCS-MP2 Energies <==================
	-----------------------------------------------------------
	 SCS Same-Spin Scale       =       0.3333333333333333 [-]
	 SCS Opposite-Spin Scale   =       1.2000000000000000 [-]
	 SCS Same-Spin Energy      =      -0.1282695788868883 [Eh]
	 SCS Opposite-Spin Energy  =      -1.5470352507534628 [Eh]
	 SCS Correlation Energy    =      -1.6753048296403512 [Eh]
	 SCS Total Energy          =    -385.7519764434839544 [Eh]
	-----------------------------------------------------------

  Dipole Moment: [D]
     X:    -0.4063      Y:     1.4537      Z:    -0.5491     Total:     1.6062

*** Psi4 exiting successfully. Buy a developer a beer!
