                               Psi4 1.4a3.dev225

  ==> Input File <==

--------------------------------------------------------------------------
#psi4
#
memory 32 gb

molecule  {
0 1
  O       -0.8844740     0.2512200    -0.2589860
  O        0.2594420    -1.5357810     0.5540110
  C        1.4751410     0.3499910    -0.3991000
  C        1.6489360     1.5420820     0.5503600
  C        2.7076510    -0.5454760    -0.4239080
  C        0.2525135    -0.3948120    -0.0066631
  C       -2.1066380    -0.4073920     0.1545600
  C       -3.2437300     0.5134160    -0.2249800
  H        1.2747850     0.7394360    -1.4046030
  H        2.5199720     2.1341380     0.2549160
  H        1.8085970     1.1898350     1.5745190
  H        0.7675450     2.1869880     0.5363060
  H        3.5809030     0.0268420    -0.7502520
  H        2.5706130    -1.3892510    -1.1045820
  H        2.9042310    -0.9491700     0.5720060
  H       -2.1727950    -1.3769310    -0.3467220
  H       -2.0631380    -0.5911830     1.2316620
  H       -4.1987120     0.0656950     0.0643780
  H       -3.1432900     1.4757990     0.2814060
  H       -3.2533220     0.6866720    -1.3031500
units angstrom
no_reorient  #important for SAPT in psi4, default
symmetry c1  #important for SAPT in psi4, default
}

set PROPERTIES_ORIGIN ["COM"]
properties('MP2/aug-cc-pvtz', properties = ['dipole'])
--------------------------------------------------------------------------

    Molecular point group: c1
  Charge       = 0
  Multiplicity = 1
  Basis Set: AUG-CC-PVTZ
    Blend: AUG-CC-PVTZ
  Basis Set: (AUG-CC-PVTZ AUX)
    Blend: AUG-CC-PVTZ-JKFIT

    Orbital Energies [Eh]
    ---------------------

    Doubly Occupied:

       1A    -20.605890     2A    -20.531203     3A    -11.377493
       4A    -11.290532     5A    -11.247735     6A    -11.229063
       7A    -11.226478     8A    -11.216913     9A     -1.452889
      10A     -1.320565    11A     -1.098996    12A     -1.038841
      13A     -0.939729    14A     -0.901803    15A     -0.834315
      16A     -0.766131    17A     -0.696892    18A     -0.678186
      19A     -0.658962    20A     -0.620735    21A     -0.587414
      22A     -0.578712    23A     -0.558556    24A     -0.550407
      25A     -0.544409    26A     -0.517971    27A     -0.506952
      28A     -0.503973    29A     -0.491195    30A     -0.479314
      31A     -0.446597    32A     -0.434974

  @DF-RHF Final Energy:  -384.07827190156797

   => Energetics <=

    Nuclear Repulsion Energy =            395.7220016247389935
    One-Electron Energy =               -1307.7328897169229549
    Two-Electron Energy =                 527.9326161906159314
    Total Energy =                       -384.0782719015679731
  Basis Set: (AUG-CC-PVTZ AUX)
    Blend: AUG-CC-PVTZ-RI
    Molecular point group: c1

    Geometry (in Angstrom), charge = 0, multiplicity = 1:

       Center              X                  Y                   Z               Mass
    ------------   -----------------  -----------------  -----------------  -----------------
         O           -0.879384539674     0.282413081384    -0.260062175926    15.994914619570
         O            0.264531460326    -1.504587918616     0.552934824074    15.994914619570
         C            1.480230460326     0.381184081384    -0.400176175926    12.000000000000
         C            1.654025460326     1.573275081384     0.549283824074    12.000000000000
         C            2.712740460326    -0.514282918616    -0.424984175926    12.000000000000
         C            0.257602960326    -0.363618918616    -0.007739275926    12.000000000000
         C           -2.101548539674    -0.376198918616     0.153483824074    12.000000000000
         C           -3.238640539674     0.544609081384    -0.226056175926    12.000000000000
         H            1.279874460326     0.770629081384    -1.405679175926     1.007825032230
         H            2.525061460326     2.165331081384     0.253839824074     1.007825032230
         H            1.813686460326     1.221028081384     1.573442824074     1.007825032230
         H            0.772634460326     2.218181081384     0.535229824074     1.007825032230
         H            3.585992460326     0.058035081384    -0.751328175926     1.007825032230
         H            2.575702460326    -1.358057918616    -1.105658175926     1.007825032230
         H            2.909320460326    -0.917976918616     0.570929824074     1.007825032230
         H           -2.167705539674    -1.345737918616    -0.347798175926     1.007825032230
         H           -2.058048539674    -0.559989918616     1.230585824074     1.007825032230
         H           -4.193622539674     0.096888081384     0.063301824074     1.007825032230
         H           -3.138200539674     1.506992081384     0.280329824074     1.007825032230
         H           -3.248232539674     0.717865081384    -1.304226175926     1.007825032230

  Basis Set: AUG-CC-PVTZ
    Blend: AUG-CC-PVTZ
  Basis Set: (AUG-CC-PVTZ AUX)
    Blend: AUG-CC-PVTZ-JKFIT
	 Reference Energy          =    -384.0782719015679731 [Eh]
	 Singles Energy            =      -0.0000000000000000 [Eh]
	 Same-Spin Energy          =      -0.3848026885544592 [Eh]
	 Opposite-Spin Energy      =      -1.2884650407432141 [Eh]
	 Correlation Energy        =      -1.6732677292976734 [Eh]
	 Total Energy              =    -385.7515396308656364 [Eh]

	 ================> DF-SCS-MP2 Energies <==================
	-----------------------------------------------------------
	 SCS Same-Spin Scale       =       0.3333333333333333 [-]
	 SCS Opposite-Spin Scale   =       1.2000000000000000 [-]
	 SCS Same-Spin Energy      =      -0.1282675628514864 [Eh]
	 SCS Opposite-Spin Energy  =      -1.5461580488918569 [Eh]
	 SCS Correlation Energy    =      -1.6744256117433434 [Eh]
	 SCS Total Energy          =    -385.7526975133113183 [Eh]
	-----------------------------------------------------------

  Dipole Moment: [D]
     X:    -0.8470      Y:     1.8795      Z:    -0.7442     Total:     2.1917

*** Psi4 exiting successfully. Buy a developer a beer!
