                               Psi4 1.3.2 release

  ==> Input File <==

--------------------------------------------------------------------------
#psi4
#
memory 32 gb

molecule  {
0 1
  O       -0.8946000     0.3180840    -0.2486650
  O        0.2608140    -1.4535000     0.5764690
  C        1.4621750     0.4213130    -0.3980820
  C        1.8184670     1.3890190     0.7353960
  C        2.6165010    -0.5169580    -0.7250520
  C        0.2447430    -0.3668820     0.0213200
  C       -2.1092640    -0.3317960     0.1925940
  C       -3.2536250     0.5656790    -0.2140850
  H        1.1360711     1.1122120    -1.4435082
  H        2.6888660     1.9907190     0.4595330
  H        2.0609350     0.8310830     1.6444090
  H        0.9859800     2.0639750     0.9510040
  H        3.4951390     0.0579210    -1.0318300
  H        2.3532220    -1.2022810    -1.5348280
  H        2.8748910    -1.1153660     0.1513080
  H       -2.1714740    -1.3192040    -0.2711440
  H       -2.0606790    -0.4764550     1.2759150
  H       -4.2047000     0.1215880     0.0924120
  H       -3.1592540     1.5451910     0.2586100
  H       -3.2661300     0.7008150    -1.2970470
units angstrom
no_reorient  #important for SAPT in psi4, default
symmetry c1  #important for SAPT in psi4, default
}

set PROPERTIES_ORIGIN ["COM"]
properties('MP2/aug-cc-pvtz', properties = ['dipole'])
--------------------------------------------------------------------------

    Molecular point group: c1
  Charge       = 0
  Multiplicity = 1
  Basis Set: AUG-CC-PVTZ
    Blend: AUG-CC-PVTZ
  Basis Set: (AUG-CC-PVTZ AUX)
    Blend: AUG-CC-PVTZ-JKFIT

    Orbital Energies [Eh]
    ---------------------

    Doubly Occupied:

       1A    -20.599152     2A    -20.542250     3A    -11.376015
       4A    -11.286355     5A    -11.267954     6A    -11.229281
       7A    -11.223801     8A    -11.219347     9A     -1.450320
      10A     -1.350148    11A     -1.089579    12A     -1.034404
      13A     -0.941074    14A     -0.894624    15A     -0.825412
      16A     -0.757625    17A     -0.686211    18A     -0.677839
      19A     -0.658501    20A     -0.615861    21A     -0.591324
      22A     -0.584105    23A     -0.555849    24A     -0.550289
      25A     -0.545339    26A     -0.519817    27A     -0.509567
      28A     -0.506392    29A     -0.487691    30A     -0.464656
      31A     -0.455100    32A     -0.435172

  @DF-RHF Final Energy:  -384.06574735400329

   => Energetics <=

    Nuclear Repulsion Energy =            394.8939857348124178
    One-Electron Energy =               -1306.0573606741188541
    Two-Electron Energy =                 527.0976275853031439
    Total Energy =                       -384.0657473540032925
  Basis Set: (AUG-CC-PVTZ AUX)
    Blend: AUG-CC-PVTZ-RI
    Molecular point group: c1

    Geometry (in Angstrom), charge = 0, multiplicity = 1:

       Center              X                  Y                   Z               Mass
    ------------   -----------------  -----------------  -----------------  -----------------
         O           -0.894162495549     0.317157569906    -0.247263355186    15.994914619570
         O            0.261251504451    -1.454426430094     0.577870644814    15.994914619570
         C            1.462612504451     0.420386569906    -0.396680355186    12.000000000000
         C            1.818904504451     1.388092569906     0.736797644814    12.000000000000
         C            2.616938504451    -0.517884430094    -0.723650355186    12.000000000000
         C            0.245180504451    -0.367808430094     0.022721644814    12.000000000000
         C           -2.108826495549    -0.332722430094     0.193995644814    12.000000000000
         C           -3.253187495549     0.564752569906    -0.212683355186    12.000000000000
         H            1.136508604451     1.111285569906    -1.442106555186     1.007825032230
         H            2.689303504451     1.989792569906     0.460934644814     1.007825032230
         H            2.061372504451     0.830156569906     1.645810644814     1.007825032230
         H            0.986417504451     2.063048569906     0.952405644814     1.007825032230
         H            3.495576504451     0.056994569906    -1.030428355186     1.007825032230
         H            2.353659504451    -1.203207430094    -1.533426355186     1.007825032230
         H            2.875328504451    -1.116292430094     0.152709644814     1.007825032230
         H           -2.171036495549    -1.320130430094    -0.269742355186     1.007825032230
         H           -2.060241495549    -0.477381430094     1.277316644814     1.007825032230
         H           -4.204262495549     0.120661569906     0.093813644814     1.007825032230
         H           -3.158816495549     1.544264569906     0.260011644814     1.007825032230
         H           -3.265692495549     0.699888569906    -1.295645355186     1.007825032230

  Basis Set: AUG-CC-PVTZ
    Blend: AUG-CC-PVTZ
  Basis Set: (AUG-CC-PVTZ AUX)
    Blend: AUG-CC-PVTZ-JKFIT
	 Reference Energy          =    -384.0657473540032925 [Eh]
	 Singles Energy            =      -0.0000000000000000 [Eh]
	 Same-Spin Energy          =      -0.3840942061635639 [Eh]
	 Opposite-Spin Energy      =      -1.2885302342501901 [Eh]
	 Correlation Energy        =      -1.6726244404137540 [Eh]
	 Total Energy              =    -385.7383717944170485 [Eh]

	 ================> DF-SCS-MP2 Energies <==================
	-----------------------------------------------------------
	 SCS Same-Spin Scale       =       0.3333333333333333 [-]
	 SCS Opposite-Spin Scale   =       1.2000000000000000 [-]
	 SCS Same-Spin Energy      =      -0.1280314020545213 [Eh]
	 SCS Opposite-Spin Energy  =      -1.5462362811002281 [Eh]
	 SCS Correlation Energy    =      -1.6742676831547494 [Eh]
	 SCS Total Energy          =    -385.7400150371580594 [Eh]
	-----------------------------------------------------------

  Dipole Moment: [D]
     X:    -0.6691      Y:     1.5285      Z:    -0.5062     Total:     1.7437

*** Psi4 exiting successfully. Buy a developer a beer!
