                               Psi4 1.3.2 release

  ==> Input File <==

--------------------------------------------------------------------------
#psi4
#
memory 32 gb

molecule  {
0 1
  O       -0.8946000     0.3180840    -0.2486650
  O        0.2608140    -1.4535000     0.5764690
  C        1.4621750     0.4213130    -0.3980820
  C        1.8184670     1.3890190     0.7353960
  C        2.6165010    -0.5169580    -0.7250520
  C        0.2185756    -0.4008637     0.0413818
  C       -2.0813456    -0.3698827     0.2104633
  C       -3.2536250     0.5656790    -0.2140850
  H        1.1864410     1.0054960    -1.2820320
  H        2.6888660     1.9907190     0.4595330
  H        2.0609350     0.8310830     1.6444090
  H        0.9859800     2.0639750     0.9510040
  H        3.4951390     0.0579210    -1.0318300
  H        2.3532220    -1.2022810    -1.5348280
  H        2.8748910    -1.1153660     0.1513080
  H       -2.1714740    -1.3192040    -0.2711440
  H       -2.0606790    -0.4764550     1.2759150
  H       -4.2047000     0.1215880     0.0924120
  H       -3.1592540     1.5451910     0.2586100
  H       -3.2661300     0.7008150    -1.2970470
units angstrom
no_reorient  #important for SAPT in psi4, default
symmetry c1  #important for SAPT in psi4, default
}

set PROPERTIES_ORIGIN ["COM"]
properties('MP2/aug-cc-pvtz', properties = ['dipole'])
--------------------------------------------------------------------------

    Molecular point group: c1
  Charge       = 0
  Multiplicity = 1
  Basis Set: AUG-CC-PVTZ
    Blend: AUG-CC-PVTZ
  Basis Set: (AUG-CC-PVTZ AUX)
    Blend: AUG-CC-PVTZ-JKFIT

    Orbital Energies [Eh]
    ---------------------

    Doubly Occupied:

       1A    -20.600630     2A    -20.546316     3A    -11.369439
       4A    -11.284715     5A    -11.243274     6A    -11.224588
       7A    -11.224025     8A    -11.214881     9A     -1.461663
      10A     -1.370365    11A     -1.085577    12A     -1.025152
      13A     -0.936515    14A     -0.888544    15A     -0.827708
      16A     -0.763415    17A     -0.700524    18A     -0.684753
      19A     -0.667926    20A     -0.619644    21A     -0.592023
      22A     -0.584512    23A     -0.553159    24A     -0.546570
      25A     -0.543080    26A     -0.519763    27A     -0.515172
      28A     -0.505157    29A     -0.486697    30A     -0.481628
      31A     -0.466483    32A     -0.428979

  @DF-RHF Final Energy:  -384.08308828713052

   => Energetics <=

    Nuclear Repulsion Energy =            395.9767896670593927
    One-Electron Energy =               -1308.1939942165711273
    Two-Electron Energy =                 528.1341162623812124
    Total Energy =                       -384.0830882871305221
  Basis Set: (AUG-CC-PVTZ AUX)
    Blend: AUG-CC-PVTZ-RI
    Molecular point group: c1

    Geometry (in Angstrom), charge = 0, multiplicity = 1:

       Center              X                  Y                   Z               Mass
    ------------   -----------------  -----------------  -----------------  -----------------
         O           -0.894780808264     0.325534039711    -0.252586348843    15.994914619570
         O            0.260633191736    -1.446049960289     0.572547651157    15.994914619570
         C            1.461994191736     0.428763039711    -0.402003348843    12.000000000000
         C            1.818286191736     1.396469039711     0.731474651157    12.000000000000
         C            2.616320191736    -0.509507960289    -0.728973348843    12.000000000000
         C            0.218394791736    -0.393413660289     0.037460451157    12.000000000000
         C           -2.081526408264    -0.362432660289     0.206541951157    12.000000000000
         C           -3.253805808264     0.573129039711    -0.218006348843    12.000000000000
         H            1.186260191736     1.012946039711    -1.285953348843     1.007825032230
         H            2.688685191736     1.998169039711     0.455611651157     1.007825032230
         H            2.060754191736     0.838533039711     1.640487651157     1.007825032230
         H            0.985799191736     2.071425039711     0.947082651157     1.007825032230
         H            3.494958191736     0.065371039711    -1.035751348843     1.007825032230
         H            2.353041191736    -1.194830960289    -1.538749348843     1.007825032230
         H            2.874710191736    -1.107915960289     0.147386651157     1.007825032230
         H           -2.171654808264    -1.311753960289    -0.275065348843     1.007825032230
         H           -2.060859808264    -0.469004960289     1.271993651157     1.007825032230
         H           -4.204880808264     0.129038039711     0.088490651157     1.007825032230
         H           -3.159434808264     1.552641039711     0.254688651157     1.007825032230
         H           -3.266310808264     0.708265039711    -1.300968348843     1.007825032230

  Basis Set: AUG-CC-PVTZ
    Blend: AUG-CC-PVTZ
  Basis Set: (AUG-CC-PVTZ AUX)
    Blend: AUG-CC-PVTZ-JKFIT
	 Reference Energy          =    -384.0830882871305221 [Eh]
	 Singles Energy            =      -0.0000000000000000 [Eh]
	 Same-Spin Energy          =      -0.3827996913716349 [Eh]
	 Opposite-Spin Energy      =      -1.2851250503848526 [Eh]
	 Correlation Energy        =      -1.6679247417564875 [Eh]
	 Total Energy              =    -385.7510130288870300 [Eh]

	 ================> DF-SCS-MP2 Energies <==================
	-----------------------------------------------------------
	 SCS Same-Spin Scale       =       0.3333333333333333 [-]
	 SCS Opposite-Spin Scale   =       1.2000000000000000 [-]
	 SCS Same-Spin Energy      =      -0.1275998971238783 [Eh]
	 SCS Opposite-Spin Energy  =      -1.5421500604618230 [Eh]
	 SCS Correlation Energy    =      -1.6697499575857013 [Eh]
	 SCS Total Energy          =    -385.7528382447162016 [Eh]
	-----------------------------------------------------------

  Dipole Moment: [D]
     X:    -0.7583      Y:     1.3319      Z:    -0.4991     Total:     1.6118

*** Psi4 exiting successfully. Buy a developer a beer!
