                               Psi4 1.3.2 release

  ==> Input File <==

--------------------------------------------------------------------------
#psi4
#
memory 32 gb

molecule  {
0 1
  O       -0.8946000     0.3180840    -0.2486650
  O        0.2608140    -1.4535000     0.5764690
  C        1.4621750     0.4213130    -0.3980820
  C        1.8184670     1.3890190     0.7353960
  C        2.6165010    -0.5169580    -0.7250520
  C        0.3287325    -0.4173760     0.0412226
  C       -2.1092640    -0.3317960     0.1925940
  C       -3.2536250     0.5656790    -0.2140850
  H        1.1864410     1.0054960    -1.2820320
  H        2.6888660     1.9907190     0.4595330
  H        2.0609350     0.8310830     1.6444090
  H        0.9859800     2.0639750     0.9510040
  H        3.4951390     0.0579210    -1.0318300
  H        2.3532220    -1.2022810    -1.5348280
  H        2.8748910    -1.1153660     0.1513080
  H       -2.1714740    -1.3192040    -0.2711440
  H       -2.0606790    -0.4764550     1.2759150
  H       -4.2047000     0.1215880     0.0924120
  H       -3.1592540     1.5451910     0.2586100
  H       -3.2661300     0.7008150    -1.2970470
units angstrom
no_reorient  #important for SAPT in psi4, default
symmetry c1  #important for SAPT in psi4, default
}

set PROPERTIES_ORIGIN ["COM"]
properties('MP2/aug-cc-pvtz', properties = ['dipole'])
--------------------------------------------------------------------------

    Molecular point group: c1
  Charge       = 0
  Multiplicity = 1
  Basis Set: AUG-CC-PVTZ
    Blend: AUG-CC-PVTZ
  Basis Set: (AUG-CC-PVTZ AUX)
    Blend: AUG-CC-PVTZ-JKFIT

    Orbital Energies [Eh]
    ---------------------

    Doubly Occupied:

       1A    -20.572890     2A    -20.558134     3A    -11.374587
       4A    -11.274050     5A    -11.249649     6A    -11.231255
       7A    -11.222351     8A    -11.215806     9A     -1.451634
      10A     -1.344936    11A     -1.104155    12A     -1.018666
      13A     -0.944827    14A     -0.890430    15A     -0.823512
      16A     -0.746876    17A     -0.708016    18A     -0.671030
      19A     -0.660165    20A     -0.624208    21A     -0.593889
      22A     -0.580449    23A     -0.554289    24A     -0.548314
      25A     -0.543045    26A     -0.526621    27A     -0.512086
      28A     -0.501503    29A     -0.491726    30A     -0.488456
      31A     -0.445586    32A     -0.436829

  @DF-RHF Final Energy:  -384.07535176510146

   => Energetics <=

    Nuclear Repulsion Energy =            395.6284613212392856
    One-Electron Energy =               -1307.5876890359065783
    Two-Electron Energy =                 527.8838759495658906
    Total Energy =                       -384.0753517651014590
  Basis Set: (AUG-CC-PVTZ AUX)
    Blend: AUG-CC-PVTZ-RI
    Molecular point group: c1

    Geometry (in Angstrom), charge = 0, multiplicity = 1:

       Center              X                  Y                   Z               Mass
    ------------   -----------------  -----------------  -----------------  -----------------
         O           -0.903282103004     0.323303815021    -0.250722676814    15.994914619570
         O            0.252131896996    -1.448280184979     0.574411323186    15.994914619570
         C            1.453492896996     0.426532815021    -0.400139676814    12.000000000000
         C            1.809784896996     1.394238815021     0.733338323186    12.000000000000
         C            2.607818896996    -0.511738184979    -0.727109676814    12.000000000000
         C            0.320050396996    -0.412156184979     0.039164923186    12.000000000000
         C           -2.117946103004    -0.326576184979     0.190536323186    12.000000000000
         C           -3.262307103004     0.570898815021    -0.216142676814    12.000000000000
         H            1.177758896996     1.010715815021    -1.284089676814     1.007825032230
         H            2.680183896996     1.995938815021     0.457475323186     1.007825032230
         H            2.052252896996     0.836302815021     1.642351323186     1.007825032230
         H            0.977297896996     2.069194815021     0.948946323186     1.007825032230
         H            3.486456896996     0.063140815021    -1.033887676814     1.007825032230
         H            2.344539896996    -1.197061184979    -1.536885676814     1.007825032230
         H            2.866208896996    -1.110146184979     0.149250323186     1.007825032230
         H           -2.180156103004    -1.313984184979    -0.273201676814     1.007825032230
         H           -2.069361103004    -0.471235184979     1.273857323186     1.007825032230
         H           -4.213382103004     0.126807815021     0.090354323186     1.007825032230
         H           -3.167936103004     1.550410815021     0.256552323186     1.007825032230
         H           -3.274812103004     0.706034815021    -1.299104676814     1.007825032230

  Basis Set: AUG-CC-PVTZ
    Blend: AUG-CC-PVTZ
  Basis Set: (AUG-CC-PVTZ AUX)
    Blend: AUG-CC-PVTZ-JKFIT
	 Reference Energy          =    -384.0753517651014590 [Eh]
	 Singles Energy            =      -0.0000000000000000 [Eh]
	 Same-Spin Energy          =      -0.3841914322409318 [Eh]
	 Opposite-Spin Energy      =      -1.2874111809601994 [Eh]
	 Correlation Energy        =      -1.6716026132011312 [Eh]
	 Total Energy              =    -385.7469543783025756 [Eh]

	 ================> DF-SCS-MP2 Energies <==================
	-----------------------------------------------------------
	 SCS Same-Spin Scale       =       0.3333333333333333 [-]
	 SCS Opposite-Spin Scale   =       1.2000000000000000 [-]
	 SCS Same-Spin Energy      =      -0.1280638107469773 [Eh]
	 SCS Opposite-Spin Energy  =      -1.5448934171522393 [Eh]
	 SCS Correlation Energy    =      -1.6729572278992166 [Eh]
	 SCS Total Energy          =    -385.7483089930006486 [Eh]
	-----------------------------------------------------------

  Dipole Moment: [D]
     X:     0.1907      Y:     1.2433      Z:    -0.4557     Total:     1.3379

*** Psi4 exiting successfully. Buy a developer a beer!
