                               Psi4 1.3.2 release

  ==> Input File <==

--------------------------------------------------------------------------
#psi4
#
memory 32 gb

molecule  {
0 1
  O       -0.8878375     0.3085269    -0.2439448
  O        0.2608140    -1.4535000     0.5764690
  C        1.4621750     0.4213130    -0.3980820
  C        1.8184670     1.3890190     0.7353960
  C        2.6165010    -0.5169580    -0.7250520
  C        0.2447430    -0.3668820     0.0213200
  C       -2.1092640    -0.3317960     0.1925940
  C       -3.2621397     0.5571160    -0.2088089
  H        1.1864410     1.0054960    -1.2820320
  H        2.6888660     1.9907190     0.4595330
  H        2.0609350     0.8310830     1.6444090
  H        0.9859800     2.0639750     0.9510040
  H        3.4951390     0.0579210    -1.0318300
  H        2.3532220    -1.2022810    -1.5348280
  H        2.8748910    -1.1153660     0.1513080
  H       -2.1714740    -1.3192040    -0.2711440
  H       -2.0606790    -0.4764550     1.2759150
  H       -4.2047000     0.1215880     0.0924120
  H       -3.1592540     1.5451910     0.2586100
  H       -3.2661300     0.7008150    -1.2970470
units angstrom
no_reorient  #important for SAPT in psi4, default
symmetry c1  #important for SAPT in psi4, default
}

set PROPERTIES_ORIGIN ["COM"]
properties('MP2/aug-cc-pvtz', properties = ['dipole'])
--------------------------------------------------------------------------

    Molecular point group: c1
  Charge       = 0
  Multiplicity = 1
  Basis Set: AUG-CC-PVTZ
    Blend: AUG-CC-PVTZ
  Basis Set: (AUG-CC-PVTZ AUX)
    Blend: AUG-CC-PVTZ-JKFIT

    Orbital Energies [Eh]
    ---------------------

    Doubly Occupied:

       1A    -20.599979     2A    -20.537810     3A    -11.372019
       4A    -11.287383     5A    -11.245191     6A    -11.226952
       7A    -11.224921     8A    -11.216824     9A     -1.453457
      10A     -1.348056    11A     -1.094212    12A     -1.036196
      13A     -0.939050    14A     -0.896801    15A     -0.828209
      16A     -0.763263    17A     -0.698935    18A     -0.678806
      19A     -0.661390    20A     -0.619447    21A     -0.590802
      22A     -0.583476    23A     -0.559422    24A     -0.551071
      25A     -0.544078    26A     -0.519174    27A     -0.507822
      28A     -0.504332    29A     -0.489360    30A     -0.480639
      31A     -0.454552    32A     -0.435569

  @DF-RHF Final Energy:  -384.08658024508856

   => Energetics <=

    Nuclear Repulsion Energy =            396.0151820272278655
    One-Electron Energy =               -1308.3051292860595822
    Two-Electron Energy =                 528.2033670137432182
    Total Energy =                       -384.0865802450884985
  Basis Set: (AUG-CC-PVTZ AUX)
    Blend: AUG-CC-PVTZ-RI
    Molecular point group: c1

    Geometry (in Angstrom), charge = 0, multiplicity = 1:

       Center              X                  Y                   Z               Mass
    ------------   -----------------  -----------------  -----------------  -----------------
         O           -0.887888894867     0.310729005281    -0.245140867660    15.994914619570
         O            0.260762605133    -1.451297894719     0.575272932340    15.994914619570
         C            1.462123605133     0.423515105281    -0.399278067660    12.000000000000
         C            1.818415605133     1.391221105281     0.734199932340    12.000000000000
         C            2.616449605133    -0.514755894719    -0.726248067660    12.000000000000
         C            0.244691605133    -0.364679894719     0.020123932340    12.000000000000
         C           -2.109315394867    -0.329593894719     0.191397932340    12.000000000000
         C           -3.262191094867     0.559318105281    -0.210004967660    12.000000000000
         H            1.186389605133     1.007698105281    -1.283228067660     1.007825032230
         H            2.688814605133     1.992921105281     0.458336932340     1.007825032230
         H            2.060883605133     0.833285105281     1.643212932340     1.007825032230
         H            0.985928605133     2.066177105281     0.949807932340     1.007825032230
         H            3.495087605133     0.060123105281    -1.033026067660     1.007825032230
         H            2.353170605133    -1.200078894719    -1.536024067660     1.007825032230
         H            2.874839605133    -1.113163894719     0.150111932340     1.007825032230
         H           -2.171525394867    -1.317001894719    -0.272340067660     1.007825032230
         H           -2.060730394867    -0.474252894719     1.274718932340     1.007825032230
         H           -4.204751394867     0.123790105281     0.091215932340     1.007825032230
         H           -3.159305394867     1.547393105281     0.257413932340     1.007825032230
         H           -3.266181394867     0.703017105281    -1.298243067660     1.007825032230

  Basis Set: AUG-CC-PVTZ
    Blend: AUG-CC-PVTZ
  Basis Set: (AUG-CC-PVTZ AUX)
    Blend: AUG-CC-PVTZ-JKFIT
	 Reference Energy          =    -384.0865802450885553 [Eh]
	 Singles Energy            =      -0.0000000000000000 [Eh]
	 Same-Spin Energy          =      -0.3836598313967082 [Eh]
	 Opposite-Spin Energy      =      -1.2860884751468131 [Eh]
	 Correlation Energy        =      -1.6697483065435212 [Eh]
	 Total Energy              =    -385.7563285516320661 [Eh]

	 ================> DF-SCS-MP2 Energies <==================
	-----------------------------------------------------------
	 SCS Same-Spin Scale       =       0.3333333333333333 [-]
	 SCS Opposite-Spin Scale   =       1.2000000000000000 [-]
	 SCS Same-Spin Energy      =      -0.1278866104655694 [Eh]
	 SCS Opposite-Spin Energy  =      -1.5433061701761757 [Eh]
	 SCS Correlation Energy    =      -1.6711927806417450 [Eh]
	 SCS Total Energy          =    -385.7577730257302733 [Eh]
	-----------------------------------------------------------

  Dipole Moment: [D]
     X:    -0.7757      Y:     1.6301      Z:    -0.6240     Total:     1.9101

*** Psi4 exiting successfully. Buy a developer a beer!
