                               Psi4 1.3.2 release

  ==> Input File <==

--------------------------------------------------------------------------
#psi4
#
memory 32 gb

molecule  {
0 1
  O       -0.8946000     0.3180840    -0.2486650
  O        0.2608140    -1.4535000     0.5764690
  C        1.4621750     0.4213130    -0.3980820
  C        1.8282777     1.3469635     0.7669550
  C        2.6165010    -0.5169580    -0.7250520
  C        0.2447430    -0.3668820     0.0213200
  C       -2.1092640    -0.3317960     0.1925940
  C       -3.2536250     0.5656790    -0.2140850
  H        1.1804726     0.9728247    -1.3009359
  H        2.6888660     1.9907190     0.4595330
  H        2.0609350     0.8310830     1.6444090
  H        0.9859800     2.0639750     0.9510040
  H        3.4951390     0.0579210    -1.0318300
  H        2.3532220    -1.2022810    -1.5348280
  H        2.8748910    -1.1153660     0.1513080
  H       -2.1714740    -1.3192040    -0.2711440
  H       -2.0606790    -0.4764550     1.2759150
  H       -4.2047000     0.1215880     0.0924120
  H       -3.1592540     1.5451910     0.2586100
  H       -3.2661300     0.7008150    -1.2970470
units angstrom
no_reorient  #important for SAPT in psi4, default
symmetry c1  #important for SAPT in psi4, default
}

set PROPERTIES_ORIGIN ["COM"]
properties('MP2/aug-cc-pvtz', properties = ['dipole'])
--------------------------------------------------------------------------

    Molecular point group: c1
  Charge       = 0
  Multiplicity = 1
  Basis Set: AUG-CC-PVTZ
    Blend: AUG-CC-PVTZ
  Basis Set: (AUG-CC-PVTZ AUX)
    Blend: AUG-CC-PVTZ-JKFIT

    Orbital Energies [Eh]
    ---------------------

    Doubly Occupied:

       1A    -20.599289     2A    -20.539665     3A    -11.372864
       4A    -11.286423     5A    -11.246002     6A    -11.228134
       7A    -11.223883     8A    -11.216583     9A     -1.449696
      10A     -1.348606    11A     -1.094935    12A     -1.034633
      13A     -0.939029    14A     -0.895599    15A     -0.828761
      16A     -0.761974    17A     -0.699437    18A     -0.677764
      19A     -0.660577    20A     -0.618826    21A     -0.590999
      22A     -0.582516    23A     -0.559187    24A     -0.553654
      25A     -0.541009    26A     -0.518454    27A     -0.509100
      28A     -0.505232    29A     -0.490291    30A     -0.480255
      31A     -0.455100    32A     -0.434170

  @DF-RHF Final Energy:  -384.08223303303248

   => Energetics <=

    Nuclear Repulsion Energy =            395.9823747626458044
    One-Electron Energy =               -1308.2439251075431912
    Two-Electron Energy =                 528.1793173118649065
    Total Energy =                       -384.0822330330324803
  Basis Set: (AUG-CC-PVTZ AUX)
    Blend: AUG-CC-PVTZ-RI
    Molecular point group: c1

    Geometry (in Angstrom), charge = 0, multiplicity = 1:

       Center              X                  Y                   Z               Mass
    ------------   -----------------  -----------------  -----------------  -----------------
         O           -0.895562152018     0.322715144703    -0.251763520149    15.994914619570
         O            0.259851847982    -1.448868855297     0.573370479851    15.994914619570
         C            1.461212847982     0.425944144703    -0.401180520149    12.000000000000
         C            1.827315547982     1.351594644703     0.763856479851    12.000000000000
         C            2.615538847982    -0.512326855297    -0.728150520149    12.000000000000
         C            0.243780847982    -0.362250855297     0.018221479851    12.000000000000
         C           -2.110226152018    -0.327164855297     0.189495479851    12.000000000000
         C           -3.254587152018     0.570310144703    -0.217183520149    12.000000000000
         H            1.179510447982     0.977455844703    -1.304034420149     1.007825032230
         H            2.687903847982     1.995350144703     0.456434479851     1.007825032230
         H            2.059972847982     0.835714144703     1.641310479851     1.007825032230
         H            0.985017847982     2.068606144703     0.947905479851     1.007825032230
         H            3.494176847982     0.062552144703    -1.034928520149     1.007825032230
         H            2.352259847982    -1.197649855297    -1.537926520149     1.007825032230
         H            2.873928847982    -1.110734855297     0.148209479851     1.007825032230
         H           -2.172436152018    -1.314572855297    -0.274242520149     1.007825032230
         H           -2.061641152018    -0.471823855297     1.272816479851     1.007825032230
         H           -4.205662152018     0.126219144703     0.089313479851     1.007825032230
         H           -3.160216152018     1.549822144703     0.255511479851     1.007825032230
         H           -3.267092152018     0.705446144703    -1.300145520149     1.007825032230

  Basis Set: AUG-CC-PVTZ
    Blend: AUG-CC-PVTZ
  Basis Set: (AUG-CC-PVTZ AUX)
    Blend: AUG-CC-PVTZ-JKFIT
	 Reference Energy          =    -384.0822330330324803 [Eh]
	 Singles Energy            =      -0.0000000000000000 [Eh]
	 Same-Spin Energy          =      -0.3839374209263249 [Eh]
	 Opposite-Spin Energy      =      -1.2868202835075069 [Eh]
	 Correlation Energy        =      -1.6707577044338318 [Eh]
	 Total Energy              =    -385.7529907374662912 [Eh]

	 ================> DF-SCS-MP2 Energies <==================
	-----------------------------------------------------------
	 SCS Same-Spin Scale       =       0.3333333333333333 [-]
	 SCS Opposite-Spin Scale   =       1.2000000000000000 [-]
	 SCS Same-Spin Energy      =      -0.1279791403087750 [Eh]
	 SCS Opposite-Spin Energy  =      -1.5441843402090083 [Eh]
	 SCS Correlation Energy    =      -1.6721634805177832 [Eh]
	 SCS Total Energy          =    -385.7543965135502617 [Eh]
	-----------------------------------------------------------

  Dipole Moment: [D]
     X:    -0.7008      Y:     1.5809      Z:    -0.5987     Total:     1.8300

*** Psi4 exiting successfully. Buy a developer a beer!
