                               Psi4 1.3.2 release

  ==> Input File <==

--------------------------------------------------------------------------
#psi4
#
memory 32 gb

molecule  {
0 1
  O       -0.8946000     0.3180840    -0.2486650
  O        0.2608140    -1.4535000     0.5764690
  C        1.4621750     0.4213130    -0.3980820
  C        1.8184670     1.3890190     0.7353960
  C        2.6165010    -0.5169580    -0.7250520
  C        0.2318308    -0.3839798     0.0313935
  C       -2.0954877    -0.3509412     0.2015972
  C       -3.2536250     0.5656790    -0.2140850
  H        1.1864410     1.0054960    -1.2820320
  H        2.6888660     1.9907190     0.4595330
  H        2.0609350     0.8310830     1.6444090
  H        0.9859800     2.0639750     0.9510040
  H        3.4951390     0.0579210    -1.0318300
  H        2.3532220    -1.2022810    -1.5348280
  H        2.8748910    -1.1153660     0.1513080
  H       -2.1714740    -1.3192040    -0.2711440
  H       -2.0606790    -0.4764550     1.2759150
  H       -4.2047000     0.1215880     0.0924120
  H       -3.1592540     1.5451910     0.2586100
  H       -3.2661300     0.7008150    -1.2970470
units angstrom
no_reorient  #important for SAPT in psi4, default
symmetry c1  #important for SAPT in psi4, default
}

set PROPERTIES_ORIGIN ["COM"]
properties('MP2/aug-cc-pvtz', properties = ['dipole'])
--------------------------------------------------------------------------

    Molecular point group: c1
  Charge       = 0
  Multiplicity = 1
  Basis Set: AUG-CC-PVTZ
    Blend: AUG-CC-PVTZ
  Basis Set: (AUG-CC-PVTZ AUX)
    Blend: AUG-CC-PVTZ-JKFIT

    Orbital Energies [Eh]
    ---------------------

    Doubly Occupied:

       1A    -20.599976     2A    -20.543250     3A    -11.371393
       4A    -11.285479     5A    -11.244562     6A    -11.225605
       7A    -11.224285     8A    -11.216042     9A     -1.455244
      10A     -1.359966    11A     -1.089882    12A     -1.029730
      13A     -0.937938    14A     -0.891673    15A     -0.828065
      16A     -0.762693    17A     -0.699486    18A     -0.681097
      19A     -0.664411    20A     -0.619613    21A     -0.591121
      22A     -0.584017    23A     -0.554079    24A     -0.548092
      25A     -0.543709    26A     -0.517761    27A     -0.510975
      28A     -0.508747    29A     -0.488102    30A     -0.481738
      31A     -0.461117    32A     -0.433124

  @DF-RHF Final Energy:  -384.08624894561933

   => Energetics <=

    Nuclear Repulsion Energy =            395.8857825688242542
    One-Electron Energy =               -1308.0381169594950279
    Two-Electron Energy =                 528.0660854450514989
    Total Energy =                       -384.0862489456193316
  Basis Set: (AUG-CC-PVTZ AUX)
    Blend: AUG-CC-PVTZ-RI
    Molecular point group: c1

    Geometry (in Angstrom), charge = 0, multiplicity = 1:

       Center              X                  Y                   Z               Mass
    ------------   -----------------  -----------------  -----------------  -----------------
         O           -0.894689126165     0.321830636992    -0.250637300508    15.994914619570
         O            0.260724873835    -1.449753363008     0.574496699492    15.994914619570
         C            1.462085873835     0.425059636992    -0.400054300508    12.000000000000
         C            1.818377873835     1.392765636992     0.733423699492    12.000000000000
         C            2.616411873835    -0.513211363008    -0.727024300508    12.000000000000
         C            0.231741673835    -0.380233163008     0.029421199492    12.000000000000
         C           -2.095576826165    -0.347194563008     0.199624899492    12.000000000000
         C           -3.253714126165     0.569425636992    -0.216057300508    12.000000000000
         H            1.186351873835     1.009242636992    -1.284004300508     1.007825032230
         H            2.688776873835     1.994465636992     0.457560699492     1.007825032230
         H            2.060845873835     0.834829636992     1.642436699492     1.007825032230
         H            0.985890873835     2.067721636992     0.949031699492     1.007825032230
         H            3.495049873835     0.061667636992    -1.033802300508     1.007825032230
         H            2.353132873835    -1.198534363008    -1.536800300508     1.007825032230
         H            2.874801873835    -1.111619363008     0.149335699492     1.007825032230
         H           -2.171563126165    -1.315457363008    -0.273116300508     1.007825032230
         H           -2.060768126165    -0.472708363008     1.273942699492     1.007825032230
         H           -4.204789126165     0.125334636992     0.090439699492     1.007825032230
         H           -3.159343126165     1.548937636992     0.256637699492     1.007825032230
         H           -3.266219126165     0.704561636992    -1.299019300508     1.007825032230

  Basis Set: AUG-CC-PVTZ
    Blend: AUG-CC-PVTZ
  Basis Set: (AUG-CC-PVTZ AUX)
    Blend: AUG-CC-PVTZ-JKFIT
	 Reference Energy          =    -384.0862489456193316 [Eh]
	 Singles Energy            =      -0.0000000000000000 [Eh]
	 Same-Spin Energy          =      -0.3832653834277363 [Eh]
	 Opposite-Spin Energy      =      -1.2857649333136059 [Eh]
	 Correlation Energy        =      -1.6690303167413421 [Eh]
	 Total Energy              =    -385.7552792623606592 [Eh]

	 ================> DF-SCS-MP2 Energies <==================
	-----------------------------------------------------------
	 SCS Same-Spin Scale       =       0.3333333333333333 [-]
	 SCS Opposite-Spin Scale   =       1.2000000000000000 [-]
	 SCS Same-Spin Energy      =      -0.1277551278092454 [Eh]
	 SCS Opposite-Spin Energy  =      -1.5429179199763270 [Eh]
	 SCS Correlation Energy    =      -1.6706730477855725 [Eh]
	 SCS Total Energy          =    -385.7569219934048874 [Eh]
	-----------------------------------------------------------

  Dipole Moment: [D]
     X:    -0.7287      Y:     1.4635      Z:    -0.5543     Total:     1.7263

*** Psi4 exiting successfully. Buy a developer a beer!
