                               Psi4 1.3.2 release

  ==> Input File <==

--------------------------------------------------------------------------
#psi4
#
memory 32 gb

molecule  {
0 1
  O       -0.9072427     0.3001513    -0.2397704
  O        0.2608140    -1.4535000     0.5764690
  C        1.4775378     0.4016614    -0.3895912
  C        1.8184670     1.3890190     0.7353960
  C        2.6165010    -0.5169580    -0.7250520
  C        0.2447430    -0.3668820     0.0213200
  C       -2.1092640    -0.3317960     0.1925940
  C       -3.2536250     0.5656790    -0.2140850
  H        1.1864410     1.0054960    -1.2820320
  H        2.6888660     1.9907190     0.4595330
  H        2.0609350     0.8310830     1.6444090
  H        0.9859800     2.0639750     0.9510040
  H        3.4951390     0.0579210    -1.0318300
  H        2.3532220    -1.2022810    -1.5348280
  H        2.8748910    -1.1153660     0.1513080
  H       -2.1714740    -1.3192040    -0.2711440
  H       -2.0606790    -0.4764550     1.2759150
  H       -4.2047000     0.1215880     0.0924120
  H       -3.1592540     1.5451910     0.2586100
  H       -3.2661300     0.7008150    -1.2970470
units angstrom
no_reorient  #important for SAPT in psi4, default
symmetry c1  #important for SAPT in psi4, default
}

set PROPERTIES_ORIGIN ["COM"]
properties('MP2/aug-cc-pvtz', properties = ['dipole'])
--------------------------------------------------------------------------

    Molecular point group: c1
  Charge       = 0
  Multiplicity = 1
  Basis Set: AUG-CC-PVTZ
    Blend: AUG-CC-PVTZ
  Basis Set: (AUG-CC-PVTZ AUX)
    Blend: AUG-CC-PVTZ-JKFIT

    Orbital Energies [Eh]
    ---------------------

    Doubly Occupied:

       1A    -20.598729     2A    -20.539293     3A    -11.374053
       4A    -11.284369     5A    -11.248206     6A    -11.228194
       7A    -11.223227     8A    -11.217471     9A     -1.453362
      10A     -1.350017    11A     -1.096871    12A     -1.035003
      13A     -0.942230    14A     -0.897145    15A     -0.827905
      16A     -0.763281    17A     -0.698746    18A     -0.680146
      19A     -0.661309    20A     -0.621995    21A     -0.591045
      22A     -0.585780    23A     -0.556128    24A     -0.549972
      25A     -0.545304    26A     -0.520689    27A     -0.508402
      28A     -0.504829    29A     -0.493681    30A     -0.476992
      31A     -0.453204    32A     -0.435980

  @DF-RHF Final Energy:  -384.08566496346725

   => Energetics <=

    Nuclear Repulsion Energy =            396.1833194151273574
    One-Electron Energy =               -1308.6108463678910994
    Two-Electron Energy =                 528.3418619892964898
    Total Energy =                       -384.0856649634672522
  Basis Set: (AUG-CC-PVTZ AUX)
    Blend: AUG-CC-PVTZ-RI
    Molecular point group: c1

    Geometry (in Angstrom), charge = 0, multiplicity = 1:

       Center              X                  Y                   Z               Mass
    ------------   -----------------  -----------------  -----------------  -----------------
         O           -0.907088600804     0.304653729433    -0.241873964102    15.994914619570
         O            0.260968099196    -1.448997570567     0.574365435898    15.994914619570
         C            1.477691899196     0.406163829433    -0.391694764102    12.000000000000
         C            1.818621099196     1.393521429433     0.733292435898    12.000000000000
         C            2.616655099196    -0.512455570567    -0.727155564102    12.000000000000
         C            0.244897099196    -0.362379570567     0.019216435898    12.000000000000
         C           -2.109109900804    -0.327293570567     0.190490435898    12.000000000000
         C           -3.253470900804     0.570181429433    -0.216188564102    12.000000000000
         H            1.186595099196     1.009998429433    -1.284135564102     1.007825032230
         H            2.689020099196     1.995221429433     0.457429435898     1.007825032230
         H            2.061089099196     0.835585429433     1.642305435898     1.007825032230
         H            0.986134099196     2.068477429433     0.948900435898     1.007825032230
         H            3.495293099196     0.062423429433    -1.033933564102     1.007825032230
         H            2.353376099196    -1.197778570567    -1.536931564102     1.007825032230
         H            2.875045099196    -1.110863570567     0.149204435898     1.007825032230
         H           -2.171319900804    -1.314701570567    -0.273247564102     1.007825032230
         H           -2.060524900804    -0.471952570567     1.273811435898     1.007825032230
         H           -4.204545900804     0.126090429433     0.090308435898     1.007825032230
         H           -3.159099900804     1.549693429433     0.256506435898     1.007825032230
         H           -3.265975900804     0.705317429433    -1.299150564102     1.007825032230

  Basis Set: AUG-CC-PVTZ
    Blend: AUG-CC-PVTZ
  Basis Set: (AUG-CC-PVTZ AUX)
    Blend: AUG-CC-PVTZ-JKFIT
	 Reference Energy          =    -384.0856649634672522 [Eh]
	 Singles Energy            =      -0.0000000000000000 [Eh]
	 Same-Spin Energy          =      -0.3837741390976402 [Eh]
	 Opposite-Spin Energy      =      -1.2860621435628112 [Eh]
	 Correlation Energy        =      -1.6698362826604514 [Eh]
	 Total Energy              =    -385.7555012461277215 [Eh]

	 ================> DF-SCS-MP2 Energies <==================
	-----------------------------------------------------------
	 SCS Same-Spin Scale       =       0.3333333333333333 [-]
	 SCS Opposite-Spin Scale   =       1.2000000000000000 [-]
	 SCS Same-Spin Energy      =      -0.1279247130325467 [Eh]
	 SCS Opposite-Spin Energy  =      -1.5432745722753733 [Eh]
	 SCS Correlation Energy    =      -1.6711992853079201 [Eh]
	 SCS Total Energy          =    -385.7568642487751731 [Eh]
	-----------------------------------------------------------

  Dipole Moment: [D]
     X:    -0.6066      Y:     1.6281      Z:    -0.6314     Total:     1.8486

*** Psi4 exiting successfully. Buy a developer a beer!
