                               Psi4 1.4a3.dev225

  ==> Input File <==

--------------------------------------------------------------------------
#psi4
#
memory 32 gb

molecule  {
0 1
  O       -0.8844740     0.2512200    -0.2589860
  O        0.2594420    -1.5357810     0.5540110
  C        1.4751410     0.3499910    -0.3991000
  C        1.6489360     1.5420820     0.5503600
  C        2.7076510    -0.5454760    -0.4239080
  C        0.2527860    -0.4396860     0.0153880
  C       -2.1235116    -0.4164850     0.1602696
  C       -3.2437300     0.5134160    -0.2249800
  H        1.2747850     0.7394360    -1.4046030
  H        2.5199720     2.1341380     0.2549160
  H        1.8085970     1.1898350     1.5745190
  H        0.7675450     2.1869880     0.5363060
  H        3.5809030     0.0268420    -0.7502520
  H        2.5706130    -1.3892510    -1.1045820
  H        2.9042310    -0.9491700     0.5720060
  H       -2.1727950    -1.3769310    -0.3467220
  H       -2.0631380    -0.5911830     1.2316620
  H       -4.1987120     0.0656950     0.0643780
  H       -3.1432900     1.4757990     0.2814060
  H       -3.2533220     0.6866720    -1.3031500
units angstrom
no_reorient  #important for SAPT in psi4, default
symmetry c1  #important for SAPT in psi4, default
}

set PROPERTIES_ORIGIN ["COM"]
properties('MP2/aug-cc-pvtz', properties = ['dipole'])
--------------------------------------------------------------------------

    Molecular point group: c1
  Charge       = 0
  Multiplicity = 1
  Basis Set: AUG-CC-PVTZ
    Blend: AUG-CC-PVTZ
  Basis Set: (AUG-CC-PVTZ AUX)
    Blend: AUG-CC-PVTZ-JKFIT

    Orbital Energies [Eh]
    ---------------------

    Doubly Occupied:

       1A    -20.596300     2A    -20.539840     3A    -11.372856
       4A    -11.287646     5A    -11.246102     6A    -11.226309
       7A    -11.225093     8A    -11.215525     9A     -1.443996
      10A     -1.345121    11A     -1.092392    12A     -1.035708
      13A     -0.937784    14A     -0.892540    15A     -0.830274
      16A     -0.758425    17A     -0.695892    18A     -0.675859
      19A     -0.660296    20A     -0.621374    21A     -0.586721
      22A     -0.580479    23A     -0.556276    24A     -0.547720
      25A     -0.543634    26A     -0.520930    27A     -0.508993
      28A     -0.506587    29A     -0.489347    30A     -0.480761
      31A     -0.455739    32A     -0.434969

  @DF-RHF Final Energy:  -384.08494044490175

   => Energetics <=

    Nuclear Repulsion Energy =            395.4322316133198001
    One-Electron Energy =               -1307.2113667558321595
    Two-Electron Energy =                 527.6941946976106692
    Total Energy =                       -384.0849404449016902
  Basis Set: (AUG-CC-PVTZ AUX)
    Blend: AUG-CC-PVTZ-RI
    Molecular point group: c1

    Geometry (in Angstrom), charge = 0, multiplicity = 1:

       Center              X                  Y                   Z               Mass
    ------------   -----------------  -----------------  -----------------  -----------------
         O           -0.877668423207     0.287991847694    -0.262931901090    15.994914619570
         O            0.266247576793    -1.499009152306     0.550065098910    15.994914619570
         C            1.481946576793     0.386762847694    -0.403045901090    12.000000000000
         C            1.655741576793     1.578853847694     0.546414098910    12.000000000000
         C            2.714456576793    -0.508704152306    -0.427853901090    12.000000000000
         C            0.259591576793    -0.402914152306     0.011442098910    12.000000000000
         C           -2.116706023207    -0.379713152306     0.156323698910    12.000000000000
         C           -3.236924423207     0.550187847694    -0.228925901090    12.000000000000
         H            1.281590576793     0.776207847694    -1.408548901090     1.007825032230
         H            2.526777576793     2.170909847694     0.250970098910     1.007825032230
         H            1.815402576793     1.226606847694     1.570573098910     1.007825032230
         H            0.774350576793     2.223759847694     0.532360098910     1.007825032230
         H            3.587708576793     0.063613847694    -0.754197901090     1.007825032230
         H            2.577418576793    -1.352479152306    -1.108527901090     1.007825032230
         H            2.911036576793    -0.912398152306     0.568060098910     1.007825032230
         H           -2.165989423207    -1.340159152306    -0.350667901090     1.007825032230
         H           -2.056332423207    -0.554411152306     1.227716098910     1.007825032230
         H           -4.191906423207     0.102466847694     0.060432098910     1.007825032230
         H           -3.136484423207     1.512570847694     0.277460098910     1.007825032230
         H           -3.246516423207     0.723443847694    -1.307095901090     1.007825032230

  Basis Set: AUG-CC-PVTZ
    Blend: AUG-CC-PVTZ
  Basis Set: (AUG-CC-PVTZ AUX)
    Blend: AUG-CC-PVTZ-JKFIT
	 Reference Energy          =    -384.0849404449017470 [Eh]
	 Singles Energy            =      -0.0000000000000000 [Eh]
	 Same-Spin Energy          =      -0.3838712298840057 [Eh]
	 Opposite-Spin Energy      =      -1.2869863324576620 [Eh]
	 Correlation Energy        =      -1.6708575623416677 [Eh]
	 Total Energy              =    -385.7557980072434134 [Eh]

	 ================> DF-SCS-MP2 Energies <==================
	-----------------------------------------------------------
	 SCS Same-Spin Scale       =       0.3333333333333333 [-]
	 SCS Opposite-Spin Scale   =       1.2000000000000000 [-]
	 SCS Same-Spin Energy      =      -0.1279570766280019 [Eh]
	 SCS Opposite-Spin Energy  =      -1.5443835989491943 [Eh]
	 SCS Correlation Energy    =      -1.6723406755771961 [Eh]
	 SCS Total Energy          =    -385.7572811204789218 [Eh]
	-----------------------------------------------------------

  Dipole Moment: [D]
     X:    -0.8106      Y:     1.5954      Z:    -0.6237     Total:     1.8951

*** Psi4 exiting successfully. Buy a developer a beer!
