                               Psi4 1.3.2 release

  ==> Input File <==

--------------------------------------------------------------------------
#psi4
#
memory 32 gb

molecule  {
0 1
  O       -0.8946000     0.3180840    -0.2486650
  O        0.2608140    -1.4535000     0.5764690
  C        1.4621750     0.4213130    -0.3980820
  C        1.8184670     1.3890190     0.7353960
  C        2.6165010    -0.5169580    -0.7250520
  C        0.2872909    -0.3970321     0.0807171
  C       -2.1092640    -0.3317960     0.1925940
  C       -3.2536250     0.5656790    -0.2140850
  H        1.2397863     1.0264451    -1.2829690
  H        2.6888660     1.9907190     0.4595330
  H        2.0609350     0.8310830     1.6444090
  H        0.9859800     2.0639750     0.9510040
  H        3.4951390     0.0579210    -1.0318300
  H        2.3532220    -1.2022810    -1.5348280
  H        2.8748910    -1.1153660     0.1513080
  H       -2.1714740    -1.3192040    -0.2711440
  H       -2.0606790    -0.4764550     1.2759150
  H       -4.2047000     0.1215880     0.0924120
  H       -3.1592540     1.5451910     0.2586100
  H       -3.2661300     0.7008150    -1.2970470
units angstrom
no_reorient  #important for SAPT in psi4, default
symmetry c1  #important for SAPT in psi4, default
}

set PROPERTIES_ORIGIN ["COM"]
properties('MP2/aug-cc-pvtz', properties = ['dipole'])
--------------------------------------------------------------------------

    Molecular point group: c1
  Charge       = 0
  Multiplicity = 1
  Basis Set: AUG-CC-PVTZ
    Blend: AUG-CC-PVTZ
  Basis Set: (AUG-CC-PVTZ AUX)
    Blend: AUG-CC-PVTZ-JKFIT

    Orbital Energies [Eh]
    ---------------------

    Doubly Occupied:

       1A    -20.582507     2A    -20.554849     3A    -11.372856
       4A    -11.278510     5A    -11.247194     6A    -11.227570
       7A    -11.219001     8A    -11.218804     9A     -1.455040
      10A     -1.357538    11A     -1.096258    12A     -1.024213
      13A     -0.941348    14A     -0.886619    15A     -0.823437
      16A     -0.752533    17A     -0.708047    18A     -0.673850
      19A     -0.665510    20A     -0.621043    21A     -0.593684
      22A     -0.582697    23A     -0.553880    24A     -0.547902
      25A     -0.543756    26A     -0.526020    27A     -0.512900
      28A     -0.505008    29A     -0.488493    30A     -0.484369
      31A     -0.452039    32A     -0.436199

  @DF-RHF Final Energy:  -384.07993179078818

   => Energetics <=

    Nuclear Repulsion Energy =            395.7679541243709878
    One-Electron Energy =               -1307.8284237029427004
    Two-Electron Energy =                 527.9805377877834189
    Total Energy =                       -384.0799317907882369
  Basis Set: (AUG-CC-PVTZ AUX)
    Blend: AUG-CC-PVTZ-RI
    Molecular point group: c1

    Geometry (in Angstrom), charge = 0, multiplicity = 1:

       Center              X                  Y                   Z               Mass
    ------------   -----------------  -----------------  -----------------  -----------------
         O           -0.899461270638     0.321018914042    -0.254797232907    15.994914619570
         O            0.255952729362    -1.450565085958     0.570336767093    15.994914619570
         C            1.457313729362     0.424247914042    -0.404214232907    12.000000000000
         C            1.813605729362     1.391953914042     0.729263767093    12.000000000000
         C            2.611639729362    -0.514023085958    -0.731184232907    12.000000000000
         C            0.282429629362    -0.394097185958     0.074584867093    12.000000000000
         C           -2.114125270638    -0.328861085958     0.186461767093    12.000000000000
         C           -3.258486270638     0.568613914042    -0.220217232907    12.000000000000
         H            1.234925029362     1.029380014042    -1.289101232907     1.007825032230
         H            2.684004729362     1.993653914042     0.453400767093     1.007825032230
         H            2.056073729362     0.834017914042     1.638276767093     1.007825032230
         H            0.981118729362     2.066909914042     0.944871767093     1.007825032230
         H            3.490277729362     0.060855914042    -1.037962232907     1.007825032230
         H            2.348360729362    -1.199346085958    -1.540960232907     1.007825032230
         H            2.870029729362    -1.112431085958     0.145175767093     1.007825032230
         H           -2.176335270638    -1.316269085958    -0.277276232907     1.007825032230
         H           -2.065540270638    -0.473520085958     1.269782767093     1.007825032230
         H           -4.209561270638     0.124522914042     0.086279767093     1.007825032230
         H           -3.164115270638     1.548125914042     0.252477767093     1.007825032230
         H           -3.270991270638     0.703749914042    -1.303179232907     1.007825032230

  Basis Set: AUG-CC-PVTZ
    Blend: AUG-CC-PVTZ
  Basis Set: (AUG-CC-PVTZ AUX)
    Blend: AUG-CC-PVTZ-JKFIT
	 Reference Energy          =    -384.0799317907881800 [Eh]
	 Singles Energy            =      -0.0000000000000000 [Eh]
	 Same-Spin Energy          =      -0.3835492278898137 [Eh]
	 Opposite-Spin Energy      =      -1.2862049702179403 [Eh]
	 Correlation Energy        =      -1.6697541981077539 [Eh]
	 Total Energy              =    -385.7496859888959193 [Eh]

	 ================> DF-SCS-MP2 Energies <==================
	-----------------------------------------------------------
	 SCS Same-Spin Scale       =       0.3333333333333333 [-]
	 SCS Opposite-Spin Scale   =       1.2000000000000000 [-]
	 SCS Same-Spin Energy      =      -0.1278497426299379 [Eh]
	 SCS Opposite-Spin Energy  =      -1.5434459642615284 [Eh]
	 SCS Correlation Energy    =      -1.6712957068914662 [Eh]
	 SCS Total Energy          =    -385.7512274976796220 [Eh]
	-----------------------------------------------------------

  Dipole Moment: [D]
     X:    -0.1906      Y:     1.2885      Z:    -0.4423     Total:     1.3756

*** Psi4 exiting successfully. Buy a developer a beer!
