                               Psi4 1.3.2 release

  ==> Input File <==

--------------------------------------------------------------------------
#psi4
#
memory 32 gb

molecule  {
0 1
  O       -0.8946000     0.3180840    -0.2486650
  O        0.2608140    -1.4535000     0.5764690
  C        1.4621750     0.4213130    -0.3980820
  C        1.8082222     1.4298955     0.7024560
  C        2.6165010    -0.5169580    -0.7250520
  C        0.2447430    -0.3668820     0.0213200
  C       -2.1092640    -0.3317960     0.1925940
  C       -3.2536250     0.5656790    -0.2140850
  H        1.1927453     1.0374555    -1.2620511
  H        2.6888660     1.9907190     0.4595330
  H        2.0609350     0.8310830     1.6444090
  H        0.9859800     2.0639750     0.9510040
  H        3.4951390     0.0579210    -1.0318300
  H        2.3532220    -1.2022810    -1.5348280
  H        2.8748910    -1.1153660     0.1513080
  H       -2.1714740    -1.3192040    -0.2711440
  H       -2.0606790    -0.4764550     1.2759150
  H       -4.2047000     0.1215880     0.0924120
  H       -3.1592540     1.5451910     0.2586100
  H       -3.2661300     0.7008150    -1.2970470
units angstrom
no_reorient  #important for SAPT in psi4, default
symmetry c1  #important for SAPT in psi4, default
}

set PROPERTIES_ORIGIN ["COM"]
properties('MP2/aug-cc-pvtz', properties = ['dipole'])
--------------------------------------------------------------------------

    Molecular point group: c1
  Charge       = 0
  Multiplicity = 1
  Basis Set: AUG-CC-PVTZ
    Blend: AUG-CC-PVTZ
  Basis Set: (AUG-CC-PVTZ AUX)
    Blend: AUG-CC-PVTZ-JKFIT

    Orbital Energies [Eh]
    ---------------------

    Doubly Occupied:

       1A    -20.599669     2A    -20.540786     3A    -11.374286
       4A    -11.286651     5A    -11.245715     6A    -11.227371
       7A    -11.224092     8A    -11.217938     9A     -1.450158
      10A     -1.349275    11A     -1.094190    12A     -1.034752
      13A     -0.940357    14A     -0.895147    15A     -0.828319
      16A     -0.762022    17A     -0.699155    18A     -0.678157
      19A     -0.661783    20A     -0.620207    21A     -0.595098
      22A     -0.583882    23A     -0.556371    24A     -0.552465
      25A     -0.537200    26A     -0.519888    27A     -0.509952
      28A     -0.507181    29A     -0.491576    30A     -0.473695
      31A     -0.455423    32A     -0.437560

  @DF-RHF Final Energy:  -384.08253275598901

   => Energetics <=

    Nuclear Repulsion Energy =            395.6620731664305595
    One-Electron Energy =               -1307.5885725885666488
    Two-Electron Energy =                 527.8439666661471392
    Total Energy =                       -384.0825327559889502
  Basis Set: (AUG-CC-PVTZ AUX)
    Blend: AUG-CC-PVTZ-RI
    Molecular point group: c1

    Geometry (in Angstrom), charge = 0, multiplicity = 1:

       Center              X                  Y                   Z               Mass
    ------------   -----------------  -----------------  -----------------  -----------------
         O           -0.893595491691     0.313581043468    -0.245433615627    15.994914619570
         O            0.261818508309    -1.458002956532     0.579700384373    15.994914619570
         C            1.463179508309     0.416810043468    -0.394850615627    12.000000000000
         C            1.809226708309     1.425392543468     0.705687384373    12.000000000000
         C            2.617505508309    -0.521460956532    -0.721820615627    12.000000000000
         C            0.245747508309    -0.371384956532     0.024551384373    12.000000000000
         C           -2.108259491691    -0.336298956532     0.195825384373    12.000000000000
         C           -3.252620491691     0.561176043468    -0.210853615627    12.000000000000
         H            1.193749808309     1.032952543468    -1.258819715627     1.007825032230
         H            2.689870508309     1.986216043468     0.462764384373     1.007825032230
         H            2.061939508309     0.826580043468     1.647640384373     1.007825032230
         H            0.986984508309     2.059472043468     0.954235384373     1.007825032230
         H            3.496143508309     0.053418043468    -1.028598615627     1.007825032230
         H            2.354226508309    -1.206783956532    -1.531596615627     1.007825032230
         H            2.875895508309    -1.119868956532     0.154539384373     1.007825032230
         H           -2.170469491691    -1.323706956532    -0.267912615627     1.007825032230
         H           -2.059674491691    -0.480957956532     1.279146384373     1.007825032230
         H           -4.203695491691     0.117085043468     0.095643384373     1.007825032230
         H           -3.158249491691     1.540688043468     0.261841384373     1.007825032230
         H           -3.265125491691     0.696312043468    -1.293815615627     1.007825032230

  Basis Set: AUG-CC-PVTZ
    Blend: AUG-CC-PVTZ
  Basis Set: (AUG-CC-PVTZ AUX)
    Blend: AUG-CC-PVTZ-JKFIT
	 Reference Energy          =    -384.0825327559890070 [Eh]
	 Singles Energy            =      -0.0000000000000000 [Eh]
	 Same-Spin Energy          =      -0.3839212468306953 [Eh]
	 Opposite-Spin Energy      =      -1.2868109794752123 [Eh]
	 Correlation Energy        =      -1.6707322263059075 [Eh]
	 Total Energy              =    -385.7532649822949224 [Eh]

	 ================> DF-SCS-MP2 Energies <==================
	-----------------------------------------------------------
	 SCS Same-Spin Scale       =       0.3333333333333333 [-]
	 SCS Opposite-Spin Scale   =       1.2000000000000000 [-]
	 SCS Same-Spin Energy      =      -0.1279737489435651 [Eh]
	 SCS Opposite-Spin Energy  =      -1.5441731753702548 [Eh]
	 SCS Correlation Energy    =      -1.6721469243138198 [Eh]
	 SCS Total Energy          =    -385.7546796803028428 [Eh]
	-----------------------------------------------------------

  Dipole Moment: [D]
     X:    -0.7119      Y:     1.6056      Z:    -0.6298     Total:     1.8658

*** Psi4 exiting successfully. Buy a developer a beer!
