                               Psi4 1.4a3.dev225

  ==> Input File <==

--------------------------------------------------------------------------
#psi4
#
memory 32 gb

molecule  {
0 1
  O       -0.8844740     0.2512200    -0.2589860
  O        0.2594420    -1.5357810     0.5540110
  C        1.4751410     0.3499910    -0.3991000
  C        1.6489360     1.5420820     0.5503600
  C        2.7076510    -0.5454760    -0.4239080
  C        0.2526770    -0.4217364     0.0065675
  C       -2.1066380    -0.4073920     0.1545600
  C       -3.2437300     0.5134160    -0.2249800
  H        1.2747850     0.7394360    -1.4046030
  H        2.5199720     2.1341380     0.2549160
  H        1.8085970     1.1898350     1.5745190
  H        0.7675450     2.1869880     0.5363060
  H        3.5809030     0.0268420    -0.7502520
  H        2.5706130    -1.3892510    -1.1045820
  H        2.9042310    -0.9491700     0.5720060
  H       -2.1727950    -1.3769310    -0.3467220
  H       -2.0631380    -0.5911830     1.2316620
  H       -4.1987120     0.0656950     0.0643780
  H       -3.1432900     1.4757990     0.2814060
  H       -3.2533220     0.6866720    -1.3031500
units angstrom
no_reorient  #important for SAPT in psi4, default
symmetry c1  #important for SAPT in psi4, default
}

set PROPERTIES_ORIGIN ["COM"]
properties('MP2/aug-cc-pvtz', properties = ['dipole'])
--------------------------------------------------------------------------

    Molecular point group: c1
  Charge       = 0
  Multiplicity = 1
  Basis Set: AUG-CC-PVTZ
    Blend: AUG-CC-PVTZ
  Basis Set: (AUG-CC-PVTZ AUX)
    Blend: AUG-CC-PVTZ-JKFIT

    Orbital Energies [Eh]
    ---------------------

    Doubly Occupied:

       1A    -20.601545     2A    -20.537240     3A    -11.375603
       4A    -11.288407     5A    -11.247269     6A    -11.227775
       7A    -11.225224     8A    -11.216431     9A     -1.449258
      10A     -1.337839    11A     -1.095591    12A     -1.035822
      13A     -0.938941    14A     -0.897334    15A     -0.831123
      16A     -0.763133    17A     -0.696888    18A     -0.677287
      19A     -0.660542    20A     -0.621406    21A     -0.586495
      22A     -0.581027    23A     -0.557366    24A     -0.549314
      25A     -0.544216    26A     -0.517844    27A     -0.508432
      28A     -0.504735    29A     -0.490647    30A     -0.480026
      31A     -0.452738    32A     -0.436426

  @DF-RHF Final Energy:  -384.08355473643104

   => Energetics <=

    Nuclear Repulsion Energy =            395.7341781207808253
    One-Electron Energy =               -1307.7676216093511812
    Two-Electron Energy =                 527.9498887521393726
    Total Energy =                       -384.0835547364309832
  Basis Set: (AUG-CC-PVTZ AUX)
    Blend: AUG-CC-PVTZ-RI
    Molecular point group: c1

    Geometry (in Angstrom), charge = 0, multiplicity = 1:

       Center              X                  Y                   Z               Mass
    ------------   -----------------  -----------------  -----------------  -----------------
         O           -0.879401441268     0.285196355156    -0.261429871472    15.994914619570
         O            0.264514558732    -1.501804644844     0.551567128528    15.994914619570
         C            1.480213558732     0.383967355156    -0.401543871472    12.000000000000
         C            1.654008558732     1.576058355156     0.547916128528    12.000000000000
         C            2.712723558732    -0.511499644844    -0.426351871472    12.000000000000
         C            0.257749558732    -0.387760044844     0.004123628528    12.000000000000
         C           -2.101565441268    -0.373415644844     0.152116128528    12.000000000000
         C           -3.238657441268     0.547392355156    -0.227423871472    12.000000000000
         H            1.279857558732     0.773412355156    -1.407046871472     1.007825032230
         H            2.525044558732     2.168114355156     0.252472128528     1.007825032230
         H            1.813669558732     1.223811355156     1.572075128528     1.007825032230
         H            0.772617558732     2.220964355156     0.533862128528     1.007825032230
         H            3.585975558732     0.060818355156    -0.752695871472     1.007825032230
         H            2.575685558732    -1.355274644844    -1.107025871472     1.007825032230
         H            2.909303558732    -0.915193644844     0.569562128528     1.007825032230
         H           -2.167722441268    -1.342954644844    -0.349165871472     1.007825032230
         H           -2.058065441268    -0.557206644844     1.229218128528     1.007825032230
         H           -4.193639441268     0.099671355156     0.061934128528     1.007825032230
         H           -3.138217441268     1.509775355156     0.278962128528     1.007825032230
         H           -3.248249441268     0.720648355156    -1.305593871472     1.007825032230

  Basis Set: AUG-CC-PVTZ
    Blend: AUG-CC-PVTZ
  Basis Set: (AUG-CC-PVTZ AUX)
    Blend: AUG-CC-PVTZ-JKFIT
	 Reference Energy          =    -384.0835547364310401 [Eh]
	 Singles Energy            =      -0.0000000000000000 [Eh]
	 Same-Spin Energy          =      -0.3841978336749581 [Eh]
	 Opposite-Spin Energy      =      -1.2874100356276235 [Eh]
	 Correlation Energy        =      -1.6716078693025815 [Eh]
	 Total Energy              =    -385.7551626057336307 [Eh]

	 ================> DF-SCS-MP2 Energies <==================
	-----------------------------------------------------------
	 SCS Same-Spin Scale       =       0.3333333333333333 [-]
	 SCS Opposite-Spin Scale   =       1.2000000000000000 [-]
	 SCS Same-Spin Energy      =      -0.1280659445583194 [Eh]
	 SCS Opposite-Spin Energy  =      -1.5448920427531481 [Eh]
	 SCS Correlation Energy    =      -1.6729579873114675 [Eh]
	 SCS Total Energy          =    -385.7565127237425031 [Eh]
	-----------------------------------------------------------

  Dipole Moment: [D]
     X:    -0.7727      Y:     1.7176      Z:    -0.6782     Total:     2.0018

*** Psi4 exiting successfully. Buy a developer a beer!
