                               Psi4 1.3.2 release

  ==> Input File <==

--------------------------------------------------------------------------
#psi4
#
memory 32 gb

molecule  {
0 1
  O       -0.9314718     0.2636819    -0.2217452
  O        0.2608140    -1.4535000     0.5764690
  C        1.5071323     0.3616621    -0.3722367
  C        1.8184670     1.3890190     0.7353960
  C        2.6165010    -0.5169580    -0.7250520
  C        0.2447430    -0.3668820     0.0213200
  C       -2.1092640    -0.3317960     0.1925940
  C       -3.2536250     0.5656790    -0.2140850
  H        1.1864410     1.0054960    -1.2820320
  H        2.6888660     1.9907190     0.4595330
  H        2.0609350     0.8310830     1.6444090
  H        0.9859800     2.0639750     0.9510040
  H        3.4951390     0.0579210    -1.0318300
  H        2.3532220    -1.2022810    -1.5348280
  H        2.8748910    -1.1153660     0.1513080
  H       -2.1714740    -1.3192040    -0.2711440
  H       -2.0606790    -0.4764550     1.2759150
  H       -4.2047000     0.1215880     0.0924120
  H       -3.1592540     1.5451910     0.2586100
  H       -3.2661300     0.7008150    -1.2970470
units angstrom
no_reorient  #important for SAPT in psi4, default
symmetry c1  #important for SAPT in psi4, default
}

set PROPERTIES_ORIGIN ["COM"]
properties('MP2/aug-cc-pvtz', properties = ['dipole'])
--------------------------------------------------------------------------

    Molecular point group: c1
  Charge       = 0
  Multiplicity = 1
  Basis Set: AUG-CC-PVTZ
    Blend: AUG-CC-PVTZ
  Basis Set: (AUG-CC-PVTZ AUX)
    Blend: AUG-CC-PVTZ-JKFIT

    Orbital Energies [Eh]
    ---------------------

    Doubly Occupied:

       1A    -20.597048     2A    -20.537579     3A    -11.375599
       4A    -11.280237     5A    -11.253938     6A    -11.230513
       7A    -11.221749     8A    -11.217962     9A     -1.461207
      10A     -1.352589    11A     -1.102461    12A     -1.035976
      13A     -0.948055    14A     -0.901360    15A     -0.827680
      16A     -0.766636    17A     -0.698029    18A     -0.685071
      19A     -0.662600    20A     -0.626723    21A     -0.592036
      22A     -0.590728    23A     -0.557628    24A     -0.550523
      25A     -0.546882    26A     -0.526745    27A     -0.511390
      28A     -0.501378    29A     -0.495556    30A     -0.466327
      31A     -0.448234    32A     -0.434840

  @DF-RHF Final Energy:  -384.07722778943730

   => Energetics <=

    Nuclear Repulsion Energy =            396.9602188496829740
    One-Electron Energy =               -1310.0643317764452149
    Two-Electron Energy =                 529.0268851373249390
    Total Energy =                       -384.0772277894373019
  Basis Set: (AUG-CC-PVTZ AUX)
    Blend: AUG-CC-PVTZ-RI
    Molecular point group: c1

    Geometry (in Angstrom), charge = 0, multiplicity = 1:

       Center              X                  Y                   Z               Mass
    ------------   -----------------  -----------------  -----------------  -----------------
         O           -0.931038519683     0.277344239635    -0.228126413835    15.994914619570
         O            0.261247280317    -1.439837660365     0.570087786165    15.994914619570
         C            1.507565580317     0.375324439635    -0.378617913835    12.000000000000
         C            1.818900280317     1.402681339635     0.729014786165    12.000000000000
         C            2.616934280317    -0.503295660365    -0.731433213835    12.000000000000
         C            0.245176280317    -0.353219660365     0.014938786165    12.000000000000
         C           -2.108830719683    -0.318133660365     0.186212786165    12.000000000000
         C           -3.253191719683     0.579341339635    -0.220466213835    12.000000000000
         H            1.186874280317     1.019158339635    -1.288413213835     1.007825032230
         H            2.689299280317     2.004381339635     0.453151786165     1.007825032230
         H            2.061368280317     0.844745339635     1.638027786165     1.007825032230
         H            0.986413280317     2.077637339635     0.944622786165     1.007825032230
         H            3.495572280317     0.071583339635    -1.038211213835     1.007825032230
         H            2.353655280317    -1.188618660365    -1.541209213835     1.007825032230
         H            2.875324280317    -1.101703660365     0.144926786165     1.007825032230
         H           -2.171040719683    -1.305541660365    -0.277525213835     1.007825032230
         H           -2.060245719683    -0.462792660365     1.269533786165     1.007825032230
         H           -4.204266719683     0.135250339635     0.086030786165     1.007825032230
         H           -3.158820719683     1.558853339635     0.252228786165     1.007825032230
         H           -3.265696719683     0.714477339635    -1.303428213835     1.007825032230

  Basis Set: AUG-CC-PVTZ
    Blend: AUG-CC-PVTZ
  Basis Set: (AUG-CC-PVTZ AUX)
    Blend: AUG-CC-PVTZ-JKFIT
	 Reference Energy          =    -384.0772277894373019 [Eh]
	 Singles Energy            =      -0.0000000000000000 [Eh]
	 Same-Spin Energy          =      -0.3838679881170648 [Eh]
	 Opposite-Spin Energy      =      -1.2854640883567618 [Eh]
	 Correlation Energy        =      -1.6693320764738266 [Eh]
	 Total Energy              =    -385.7465598659111379 [Eh]

	 ================> DF-SCS-MP2 Energies <==================
	-----------------------------------------------------------
	 SCS Same-Spin Scale       =       0.3333333333333333 [-]
	 SCS Opposite-Spin Scale   =       1.2000000000000000 [-]
	 SCS Same-Spin Energy      =      -0.1279559960390216 [Eh]
	 SCS Opposite-Spin Energy  =      -1.5425569060281141 [Eh]
	 SCS Correlation Energy    =      -1.6705129020671357 [Eh]
	 SCS Total Energy          =    -385.7477406915044185 [Eh]
	-----------------------------------------------------------

  Dipole Moment: [D]
     X:    -0.4033      Y:     1.6975      Z:    -0.6752     Total:     1.8708

*** Psi4 exiting successfully. Buy a developer a beer!
