                               Psi4 1.3.2 release

  ==> Input File <==

--------------------------------------------------------------------------
#psi4
#
memory 32 gb

molecule  {
0 1
  O       -0.8946000     0.3180840    -0.2486650
  O        0.2608140    -1.4535000     0.5764690
  C        1.4621750     0.4213130    -0.3980820
  C        1.8234274     1.3681355     0.7513506
  C        2.6165010    -0.5169580    -0.7250520
  C        0.2447430    -0.3668820     0.0213200
  C       -2.1092640    -0.3317960     0.1925940
  C       -3.2536250     0.5656790    -0.2140850
  H        1.1834144     0.9892469    -1.2916200
  H        2.6888660     1.9907190     0.4595330
  H        2.0609350     0.8310830     1.6444090
  H        0.9859800     2.0639750     0.9510040
  H        3.4951390     0.0579210    -1.0318300
  H        2.3532220    -1.2022810    -1.5348280
  H        2.8748910    -1.1153660     0.1513080
  H       -2.1714740    -1.3192040    -0.2711440
  H       -2.0606790    -0.4764550     1.2759150
  H       -4.2047000     0.1215880     0.0924120
  H       -3.1592540     1.5451910     0.2586100
  H       -3.2661300     0.7008150    -1.2970470
units angstrom
no_reorient  #important for SAPT in psi4, default
symmetry c1  #important for SAPT in psi4, default
}

set PROPERTIES_ORIGIN ["COM"]
properties('MP2/aug-cc-pvtz', properties = ['dipole'])
--------------------------------------------------------------------------

    Molecular point group: c1
  Charge       = 0
  Multiplicity = 1
  Basis Set: AUG-CC-PVTZ
    Blend: AUG-CC-PVTZ
  Basis Set: (AUG-CC-PVTZ AUX)
    Blend: AUG-CC-PVTZ-JKFIT

    Orbital Energies [Eh]
    ---------------------

    Doubly Occupied:

       1A    -20.599357     2A    -20.539924     3A    -11.373177
       4A    -11.286464     5A    -11.245751     6A    -11.227530
       7A    -11.223924     8A    -11.216871     9A     -1.449783
      10A     -1.348748    11A     -1.094585    12A     -1.034628
      13A     -0.939089    14A     -0.895358    15A     -0.828522
      16A     -0.761872    17A     -0.699243    18A     -0.677794
      19A     -0.660679    20A     -0.619315    21A     -0.590298
      22A     -0.583206    23A     -0.556083    24A     -0.552080
      25A     -0.543624    26A     -0.518877    27A     -0.509300
      28A     -0.505377    29A     -0.489421    30A     -0.481750
      31A     -0.455246    32A     -0.435107

  @DF-RHF Final Energy:  -384.08502882158507

   => Energetics <=

    Nuclear Repulsion Energy =            395.8962038736010527
    One-Electron Energy =               -1308.0764929962199403
    Two-Electron Energy =                 528.0952603010338180
    Total Energy =                       -384.0850288215850696
  Basis Set: (AUG-CC-PVTZ AUX)
    Blend: AUG-CC-PVTZ-RI
    Molecular point group: c1

    Geometry (in Angstrom), charge = 0, multiplicity = 1:

       Center              X                  Y                   Z               Mass
    ------------   -----------------  -----------------  -----------------  -----------------
         O           -0.895086299110     0.320383942000    -0.250231315737    15.994914619570
         O            0.260327700890    -1.451200058000     0.574902684263    15.994914619570
         C            1.461688700890     0.423612942000    -0.399648315737    12.000000000000
         C            1.822941100890     1.370435442000     0.749784284263    12.000000000000
         C            2.616014700890    -0.514658058000    -0.726618315737    12.000000000000
         C            0.244256700890    -0.364582058000     0.019753684263    12.000000000000
         C           -2.109750299110    -0.329496058000     0.191027684263    12.000000000000
         C           -3.254111299110     0.567978942000    -0.215651315737    12.000000000000
         H            1.182928100890     0.991546842000    -1.293186315737     1.007825032230
         H            2.688379700890     1.993018942000     0.457966684263     1.007825032230
         H            2.060448700890     0.833382942000     1.642842684263     1.007825032230
         H            0.985493700890     2.066274942000     0.949437684263     1.007825032230
         H            3.494652700890     0.060220942000    -1.033396315737     1.007825032230
         H            2.352735700890    -1.199981058000    -1.536394315737     1.007825032230
         H            2.874404700890    -1.113066058000     0.149741684263     1.007825032230
         H           -2.171960299110    -1.316904058000    -0.272710315737     1.007825032230
         H           -2.061165299110    -0.474155058000     1.274348684263     1.007825032230
         H           -4.205186299110     0.123887942000     0.090845684263     1.007825032230
         H           -3.159740299110     1.547490942000     0.257043684263     1.007825032230
         H           -3.266616299110     0.703114942000    -1.298613315737     1.007825032230

  Basis Set: AUG-CC-PVTZ
    Blend: AUG-CC-PVTZ
  Basis Set: (AUG-CC-PVTZ AUX)
    Blend: AUG-CC-PVTZ-JKFIT
	 Reference Energy          =    -384.0850288215850696 [Eh]
	 Singles Energy            =      -0.0000000000000000 [Eh]
	 Same-Spin Energy          =      -0.3838804810030230 [Eh]
	 Opposite-Spin Energy      =      -1.2866820302790560 [Eh]
	 Correlation Energy        =      -1.6705625112820790 [Eh]
	 Total Energy              =    -385.7555913328671409 [Eh]

	 ================> DF-SCS-MP2 Energies <==================
	-----------------------------------------------------------
	 SCS Same-Spin Scale       =       0.3333333333333333 [-]
	 SCS Opposite-Spin Scale   =       1.2000000000000000 [-]
	 SCS Same-Spin Energy      =      -0.1279601603343410 [Eh]
	 SCS Opposite-Spin Energy  =      -1.5440184363348672 [Eh]
	 SCS Correlation Energy    =      -1.6719785966692082 [Eh]
	 SCS Total Energy          =    -385.7570074182542612 [Eh]
	-----------------------------------------------------------

  Dipole Moment: [D]
     X:    -0.7023      Y:     1.5877      Z:    -0.6022     Total:     1.8376

*** Psi4 exiting successfully. Buy a developer a beer!
