                               Psi4 1.3.2 release

  ==> Input File <==

--------------------------------------------------------------------------
#psi4
#
memory 32 gb

molecule  {
0 1
  O       -0.8946000     0.3180840    -0.2486650
  O        0.2608140    -1.4535000     0.5764690
  C        1.4621750     0.4213130    -0.3980820
  C        1.8287822     1.3935593     0.7281984
  C        2.6165010    -0.5169580    -0.7250520
  C        0.2450507    -0.3733518     0.0098473
  C       -2.1092640    -0.3317960     0.1925940
  C       -3.2536250     0.5656790    -0.2140850
  H        1.1864410     1.0054960    -1.2820320
  H        2.6888660     1.9907190     0.4595330
  H        2.0609350     0.8310830     1.6444090
  H        0.9859800     2.0639750     0.9510040
  H        3.4951390     0.0579210    -1.0318300
  H        2.3532220    -1.2022810    -1.5348280
  H        2.8748910    -1.1153660     0.1513080
  H       -2.1714740    -1.3192040    -0.2711440
  H       -2.0606790    -0.4764550     1.2759150
  H       -4.2047000     0.1215880     0.0924120
  H       -3.1592540     1.5451910     0.2586100
  H       -3.2661300     0.7008150    -1.2970470
units angstrom
no_reorient  #important for SAPT in psi4, default
symmetry c1  #important for SAPT in psi4, default
}

set PROPERTIES_ORIGIN ["COM"]
properties('MP2/aug-cc-pvtz', properties = ['dipole'])
--------------------------------------------------------------------------

    Molecular point group: c1
  Charge       = 0
  Multiplicity = 1
  Basis Set: AUG-CC-PVTZ
    Blend: AUG-CC-PVTZ
  Basis Set: (AUG-CC-PVTZ AUX)
    Blend: AUG-CC-PVTZ-JKFIT

    Orbital Energies [Eh]
    ---------------------

    Doubly Occupied:

       1A    -20.599256     2A    -20.540754     3A    -11.373855
       4A    -11.286430     5A    -11.245650     6A    -11.227275
       7A    -11.223904     8A    -11.217022     9A     -1.449643
      10A     -1.349226    11A     -1.094185    12A     -1.034530
      13A     -0.939051    14A     -0.895462    15A     -0.828482
      16A     -0.761593    17A     -0.699012    18A     -0.677779
      19A     -0.660870    20A     -0.619355    21A     -0.590935
      22A     -0.583828    23A     -0.555542    24A     -0.549762
      25A     -0.545259    26A     -0.519564    27A     -0.509733
      28A     -0.505609    29A     -0.488093    30A     -0.480447
      31A     -0.455339    32A     -0.436849

  @DF-RHF Final Energy:  -384.08552882410140

   => Energetics <=

    Nuclear Repulsion Energy =            395.7110730112274268
    One-Electron Energy =               -1307.7046144817759341
    Two-Electron Energy =                 527.9080126464471050
    Total Energy =                       -384.0855288241014023
  Basis Set: (AUG-CC-PVTZ AUX)
    Blend: AUG-CC-PVTZ-RI
    Molecular point group: c1

    Geometry (in Angstrom), charge = 0, multiplicity = 1:

       Center              X                  Y                   Z               Mass
    ------------   -----------------  -----------------  -----------------  -----------------
         O           -0.895697929039     0.318283524909    -0.246735254963    15.994914619570
         O            0.259716070961    -1.453300475091     0.578398745037    15.994914619570
         C            1.461077070961     0.421512524909    -0.396152254963    12.000000000000
         C            1.827684270961     1.393758824909     0.730128145037    12.000000000000
         C            2.615403070961    -0.516758475091    -0.723122254963    12.000000000000
         C            0.243952770961    -0.373152275091     0.011777045037    12.000000000000
         C           -2.110361929039    -0.331596475091     0.194523745037    12.000000000000
         C           -3.254722929039     0.565878524909    -0.212155254963    12.000000000000
         H            1.185343070961     1.005695524909    -1.280102254963     1.007825032230
         H            2.687768070961     1.990918524909     0.461462745037     1.007825032230
         H            2.059837070961     0.831282524909     1.646338745037     1.007825032230
         H            0.984882070961     2.064174524909     0.952933745037     1.007825032230
         H            3.494041070961     0.058120524909    -1.029900254963     1.007825032230
         H            2.352124070961    -1.202081475091    -1.532898254963     1.007825032230
         H            2.873793070961    -1.115166475091     0.153237745037     1.007825032230
         H           -2.172571929039    -1.319004475091    -0.269214254963     1.007825032230
         H           -2.061776929039    -0.476255475091     1.277844745037     1.007825032230
         H           -4.205797929039     0.121787524909     0.094341745037     1.007825032230
         H           -3.160351929039     1.545390524909     0.260539745037     1.007825032230
         H           -3.267227929039     0.701014524909    -1.295117254963     1.007825032230

  Basis Set: AUG-CC-PVTZ
    Blend: AUG-CC-PVTZ
  Basis Set: (AUG-CC-PVTZ AUX)
    Blend: AUG-CC-PVTZ-JKFIT
	 Reference Energy          =    -384.0855288241014023 [Eh]
	 Singles Energy            =      -0.0000000000000000 [Eh]
	 Same-Spin Energy          =      -0.3838600231336138 [Eh]
	 Opposite-Spin Energy      =      -1.2866936018420283 [Eh]
	 Correlation Energy        =      -1.6705536249756421 [Eh]
	 Total Energy              =    -385.7560824490770415 [Eh]

	 ================> DF-SCS-MP2 Energies <==================
	-----------------------------------------------------------
	 SCS Same-Spin Scale       =       0.3333333333333333 [-]
	 SCS Opposite-Spin Scale   =       1.2000000000000000 [-]
	 SCS Same-Spin Energy      =      -0.1279533410445379 [Eh]
	 SCS Opposite-Spin Energy  =      -1.5440323222104340 [Eh]
	 SCS Correlation Energy    =      -1.6719856632549719 [Eh]
	 SCS Total Energy          =    -385.7575144873563886 [Eh]
	-----------------------------------------------------------

  Dipole Moment: [D]
     X:    -0.6996      Y:     1.5849      Z:    -0.6154     Total:     1.8385

*** Psi4 exiting successfully. Buy a developer a beer!
