                               Psi4 1.3.2 release

  ==> Input File <==

--------------------------------------------------------------------------
#psi4
#
memory 32 gb

molecule  {
0 1
  O       -0.8946000     0.3180840    -0.2486650
  O        0.2395174    -1.4534669     0.5767417
  C        1.4464108     0.4401995    -0.4075204
  C        1.8184670     1.3890190     0.7353960
  C        2.6165010    -0.5169580    -0.7250520
  C        0.2447430    -0.3668820     0.0213200
  C       -2.1092640    -0.3317960     0.1925940
  C       -3.2536250     0.5656790    -0.2140850
  H        1.1864410     1.0054960    -1.2820320
  H        2.6888660     1.9907190     0.4595330
  H        2.0609350     0.8310830     1.6444090
  H        0.9859800     2.0639750     0.9510040
  H        3.4951390     0.0579210    -1.0318300
  H        2.3532220    -1.2022810    -1.5348280
  H        2.8748910    -1.1153660     0.1513080
  H       -2.1714740    -1.3192040    -0.2711440
  H       -2.0606790    -0.4764550     1.2759150
  H       -4.2047000     0.1215880     0.0924120
  H       -3.1592540     1.5451910     0.2586100
  H       -3.2661300     0.7008150    -1.2970470
units angstrom
no_reorient  #important for SAPT in psi4, default
symmetry c1  #important for SAPT in psi4, default
}

set PROPERTIES_ORIGIN ["COM"]
properties('MP2/aug-cc-pvtz', properties = ['dipole'])
--------------------------------------------------------------------------

    Molecular point group: c1
  Charge       = 0
  Multiplicity = 1
  Basis Set: AUG-CC-PVTZ
    Blend: AUG-CC-PVTZ
  Basis Set: (AUG-CC-PVTZ AUX)
    Blend: AUG-CC-PVTZ-JKFIT

    Orbital Energies [Eh]
    ---------------------

    Doubly Occupied:

       1A    -20.597591     2A    -20.540457     3A    -11.373665
       4A    -11.285351     5A    -11.245927     6A    -11.227711
       7A    -11.223244     8A    -11.218545     9A     -1.449993
      10A     -1.347517    11A     -1.093909    12A     -1.033547
      13A     -0.937931    14A     -0.895524    15A     -0.828504
      16A     -0.762290    17A     -0.701085    18A     -0.677198
      19A     -0.661138    20A     -0.618422    21A     -0.590596
      22A     -0.582913    23A     -0.554721    24A     -0.549998
      25A     -0.544290    26A     -0.518963    27A     -0.509183
      28A     -0.505376    29A     -0.490632    30A     -0.480537
      31A     -0.454597    32A     -0.437116

  @DF-RHF Final Energy:  -384.08514275749189

   => Energetics <=

    Nuclear Repulsion Energy =            395.7654506054923900
    One-Electron Energy =               -1307.8242464797363027
    Two-Electron Energy =                 527.9736531167520752
    Total Energy =                       -384.0851427574918944
  Basis Set: (AUG-CC-PVTZ AUX)
    Blend: AUG-CC-PVTZ-RI
    Molecular point group: c1

    Geometry (in Angstrom), charge = 0, multiplicity = 1:

       Center              X                  Y                   Z               Mass
    ------------   -----------------  -----------------  -----------------  -----------------
         O           -0.890035787576     0.316127138028    -0.247727164971    15.994914619570
         O            0.244081612424    -1.455423761972     0.577679535029    15.994914619570
         C            1.450975012424     0.438242638028    -0.406582564971    12.000000000000
         C            1.823031212424     1.387062138028     0.736333835029    12.000000000000
         C            2.621065212424    -0.518914861972    -0.724114164971    12.000000000000
         C            0.249307212424    -0.368838861972     0.022257835029    12.000000000000
         C           -2.104699787576    -0.333752861972     0.193531835029    12.000000000000
         C           -3.249060787576     0.563722138028    -0.213147164971    12.000000000000
         H            1.191005212424     1.003539138028    -1.281094164971     1.007825032230
         H            2.693430212424     1.988762138028     0.460470835029     1.007825032230
         H            2.065499212424     0.829126138028     1.645346835029     1.007825032230
         H            0.990544212424     2.062018138028     0.951941835029     1.007825032230
         H            3.499703212424     0.055964138028    -1.030892164971     1.007825032230
         H            2.357786212424    -1.204237861972    -1.533890164971     1.007825032230
         H            2.879455212424    -1.117322861972     0.152245835029     1.007825032230
         H           -2.166909787576    -1.321160861972    -0.270206164971     1.007825032230
         H           -2.056114787576    -0.478411861972     1.276852835029     1.007825032230
         H           -4.200135787576     0.119631138028     0.093349835029     1.007825032230
         H           -3.154689787576     1.543234138028     0.259547835029     1.007825032230
         H           -3.261565787576     0.698858138028    -1.296109164971     1.007825032230

  Basis Set: AUG-CC-PVTZ
    Blend: AUG-CC-PVTZ
  Basis Set: (AUG-CC-PVTZ AUX)
    Blend: AUG-CC-PVTZ-JKFIT
	 Reference Energy          =    -384.0851427574918944 [Eh]
	 Singles Energy            =      -0.0000000000000000 [Eh]
	 Same-Spin Energy          =      -0.3838108087362682 [Eh]
	 Opposite-Spin Energy      =      -1.2866155436071001 [Eh]
	 Correlation Energy        =      -1.6704263523433682 [Eh]
	 Total Energy              =    -385.7555691098352781 [Eh]

	 ================> DF-SCS-MP2 Energies <==================
	-----------------------------------------------------------
	 SCS Same-Spin Scale       =       0.3333333333333333 [-]
	 SCS Opposite-Spin Scale   =       1.2000000000000000 [-]
	 SCS Same-Spin Energy      =      -0.1279369362454227 [Eh]
	 SCS Opposite-Spin Energy  =      -1.5439386523285201 [Eh]
	 SCS Correlation Energy    =      -1.6718755885739429 [Eh]
	 SCS Total Energy          =    -385.7570183460658200 [Eh]
	-----------------------------------------------------------

  Dipole Moment: [D]
     X:    -0.6360      Y:     1.6072      Z:    -0.6128     Total:     1.8339

*** Psi4 exiting successfully. Buy a developer a beer!
