                               Psi4 1.4a3.dev225

  ==> Input File <==

--------------------------------------------------------------------------
#psi4
#
memory 32 gb

molecule  {
0 1
  O       -0.8844740     0.2512200    -0.2589860
  O        0.2594420    -1.5357810     0.5540110
  C        1.4751410     0.3499910    -0.3991000
  C        1.6489360     1.5420820     0.5503600
  C        2.7076510    -0.5454760    -0.4239080
  C        0.2527860    -0.4396860     0.0153880
  C       -2.1066380    -0.4073920     0.1545600
  C       -3.2437300     0.5134160    -0.2249800
  H        1.2839191     0.7216814    -1.3587626
  H        2.5199720     2.1341380     0.2549160
  H        1.8085970     1.1898350     1.5745190
  H        0.7675450     2.1869880     0.5363060
  H        3.5809030     0.0268420    -0.7502520
  H        2.5706130    -1.3892510    -1.1045820
  H        2.9042310    -0.9491700     0.5720060
  H       -2.1727950    -1.3769310    -0.3467220
  H       -2.0631380    -0.5911830     1.2316620
  H       -4.1987120     0.0656950     0.0643780
  H       -3.1432900     1.4757990     0.2814060
  H       -3.2533220     0.6866720    -1.3031500
units angstrom
no_reorient  #important for SAPT in psi4, default
symmetry c1  #important for SAPT in psi4, default
}

set PROPERTIES_ORIGIN ["COM"]
properties('MP2/aug-cc-pvtz', properties = ['dipole'])
--------------------------------------------------------------------------

    Molecular point group: c1
  Charge       = 0
  Multiplicity = 1
  Basis Set: AUG-CC-PVTZ
    Blend: AUG-CC-PVTZ
  Basis Set: (AUG-CC-PVTZ AUX)
    Blend: AUG-CC-PVTZ-JKFIT

    Orbital Energies [Eh]
    ---------------------

    Doubly Occupied:

       1A    -20.598687     2A    -20.540868     3A    -11.373799
       4A    -11.287043     5A    -11.240864     6A    -11.226543
       7A    -11.224417     8A    -11.215723     9A     -1.448484
      10A     -1.348111    11A     -1.095551    12A     -1.033975
      13A     -0.938116    14A     -0.894683    15A     -0.830659
      16A     -0.763371    17A     -0.701517    18A     -0.676947
      19A     -0.662666    20A     -0.622567    21A     -0.586405
      22A     -0.581940    23A     -0.556625    24A     -0.548519
      25A     -0.543963    26A     -0.518588    27A     -0.509186
      28A     -0.506109    29A     -0.492168    30A     -0.482639
      31A     -0.455350    32A     -0.436360

  @DF-RHF Final Energy:  -384.08474776460838

   => Energetics <=

    Nuclear Repulsion Energy =            396.0143802412312652
    One-Electron Energy =               -1308.3133733676554584
    Two-Electron Energy =                 528.2142453618157560
    Total Energy =                       -384.0847477646084371
  Basis Set: (AUG-CC-PVTZ AUX)
    Blend: AUG-CC-PVTZ-RI
    Molecular point group: c1

    Geometry (in Angstrom), charge = 0, multiplicity = 1:

       Center              X                  Y                   Z               Mass
    ------------   -----------------  -----------------  -----------------  -----------------
         O           -0.879492010159     0.287206014313    -0.262739659701    15.994914619570
         O            0.264423989841    -1.499794985687     0.550257340299    15.994914619570
         C            1.480122989841     0.385977014313    -0.402853659701    12.000000000000
         C            1.653917989841     1.578068014313     0.546606340299    12.000000000000
         C            2.712632989841    -0.509489985687    -0.427661659701    12.000000000000
         C            0.257767989841    -0.403699985687     0.011634340299    12.000000000000
         C           -2.101656010159    -0.371405985687     0.150806340299    12.000000000000
         C           -3.238748010159     0.549402014313    -0.228733659701    12.000000000000
         H            1.288901089841     0.757667414313    -1.362516259701     1.007825032230
         H            2.524953989841     2.170124014313     0.251162340299     1.007825032230
         H            1.813578989841     1.225821014313     1.570765340299     1.007825032230
         H            0.772526989841     2.222974014313     0.532552340299     1.007825032230
         H            3.585884989841     0.062828014313    -0.754005659701     1.007825032230
         H            2.575594989841    -1.353264985687    -1.108335659701     1.007825032230
         H            2.909212989841    -0.913183985687     0.568252340299     1.007825032230
         H           -2.167813010159    -1.340944985687    -0.350475659701     1.007825032230
         H           -2.058156010159    -0.555196985687     1.227908340299     1.007825032230
         H           -4.193730010159     0.101681014313     0.060624340299     1.007825032230
         H           -3.138308010159     1.511785014313     0.277652340299     1.007825032230
         H           -3.248340010159     0.722658014313    -1.306903659701     1.007825032230

  Basis Set: AUG-CC-PVTZ
    Blend: AUG-CC-PVTZ
  Basis Set: (AUG-CC-PVTZ AUX)
    Blend: AUG-CC-PVTZ-JKFIT
	 Reference Energy          =    -384.0847477646083803 [Eh]
	 Singles Energy            =      -0.0000000000000000 [Eh]
	 Same-Spin Energy          =      -0.3837807710759729 [Eh]
	 Opposite-Spin Energy      =      -1.2864304909098920 [Eh]
	 Correlation Energy        =      -1.6702112619858649 [Eh]
	 Total Energy              =    -385.7549590265942356 [Eh]

	 ================> DF-SCS-MP2 Energies <==================
	-----------------------------------------------------------
	 SCS Same-Spin Scale       =       0.3333333333333333 [-]
	 SCS Opposite-Spin Scale   =       1.2000000000000000 [-]
	 SCS Same-Spin Energy      =      -0.1279269236919909 [Eh]
	 SCS Opposite-Spin Energy  =      -1.5437165890918705 [Eh]
	 SCS Correlation Energy    =      -1.6716435127838614 [Eh]
	 SCS Total Energy          =    -385.7563912773922539 [Eh]
	-----------------------------------------------------------

  Dipole Moment: [D]
     X:    -0.7293      Y:     1.6124      Z:    -0.6504     Total:     1.8854

*** Psi4 exiting successfully. Buy a developer a beer!
