                               Psi4 1.3.2 release

  ==> Input File <==

--------------------------------------------------------------------------
#psi4
#
memory 32 gb

molecule  {
0 1
  O       -0.8946000     0.3180840    -0.2486650
  O        0.2608140    -1.4535000     0.5764690
  C        1.4621750     0.4213130    -0.3980820
  C        1.8184670     1.3890190     0.7353960
  C        2.6165010    -0.5169580    -0.7250520
  C        0.2516056    -0.3720594     0.0313038
  C       -2.1092640    -0.3317960     0.1925940
  C       -3.2536250     0.5656790    -0.2140850
  H        1.1952833     1.0091003    -1.2823566
  H        2.6888660     1.9907190     0.4595330
  H        2.0609350     0.8310830     1.6444090
  H        0.9859800     2.0639750     0.9510040
  H        3.4951390     0.0579210    -1.0318300
  H        2.3532220    -1.2022810    -1.5348280
  H        2.8748910    -1.1153660     0.1513080
  H       -2.1714740    -1.3192040    -0.2711440
  H       -2.0606790    -0.4764550     1.2759150
  H       -4.2047000     0.1215880     0.0924120
  H       -3.1592540     1.5451910     0.2586100
  H       -3.2661300     0.7008150    -1.2970470
units angstrom
no_reorient  #important for SAPT in psi4, default
symmetry c1  #important for SAPT in psi4, default
}

set PROPERTIES_ORIGIN ["COM"]
properties('MP2/aug-cc-pvtz', properties = ['dipole'])
--------------------------------------------------------------------------

    Molecular point group: c1
  Charge       = 0
  Multiplicity = 1
  Basis Set: AUG-CC-PVTZ
    Blend: AUG-CC-PVTZ
  Basis Set: (AUG-CC-PVTZ AUX)
    Blend: AUG-CC-PVTZ-JKFIT

    Orbital Energies [Eh]
    ---------------------

    Doubly Occupied:

       1A    -20.596723     2A    -20.542659     3A    -11.373373
       4A    -11.285198     5A    -11.245781     6A    -11.227225
       7A    -11.223131     8A    -11.217461     9A     -1.448383
      10A     -1.352584    11A     -1.094559    12A     -1.032914
      13A     -0.939642    14A     -0.893686    15A     -0.827553
      16A     -0.759938    17A     -0.700628    18A     -0.676540
      19A     -0.661703    20A     -0.620005    21A     -0.591001
      22A     -0.583804    23A     -0.554859    24A     -0.549345
      25A     -0.544506    26A     -0.520170    27A     -0.509286
      28A     -0.506507    29A     -0.489142    30A     -0.481647
      31A     -0.455651    32A     -0.436676

  @DF-RHF Final Energy:  -384.08606961064737

   => Energetics <=

    Nuclear Repulsion Energy =            395.8043762298545403
    One-Electron Energy =               -1307.8963256257156900
    Two-Electron Energy =                 528.0058797852136649
    Total Energy =                       -384.0860696106474279
  Basis Set: (AUG-CC-PVTZ AUX)
    Blend: AUG-CC-PVTZ-RI
    Molecular point group: c1

    Geometry (in Angstrom), charge = 0, multiplicity = 1:

       Center              X                  Y                   Z               Mass
    ------------   -----------------  -----------------  -----------------  -----------------
         O           -0.895385980854     0.318587980118    -0.249694516016    15.994914619570
         O            0.260028019146    -1.452996019882     0.575439483984    15.994914619570
         C            1.461389019146     0.421816980118    -0.399111516016    12.000000000000
         C            1.817681019146     1.389522980118     0.734366483984    12.000000000000
         C            2.615715019146    -0.516454019882    -0.726081516016    12.000000000000
         C            0.250819619146    -0.371555419882     0.030274283984    12.000000000000
         C           -2.110049980854    -0.331292019882     0.191564483984    12.000000000000
         C           -3.254410980854     0.566182980118    -0.215114516016    12.000000000000
         H            1.194497319146     1.009604280118    -1.283386116016     1.007825032230
         H            2.688080019146     1.991222980118     0.458503483984     1.007825032230
         H            2.060149019146     0.831586980118     1.643379483984     1.007825032230
         H            0.985194019146     2.064478980118     0.949974483984     1.007825032230
         H            3.494353019146     0.058424980118    -1.032859516016     1.007825032230
         H            2.352436019146    -1.201777019882    -1.535857516016     1.007825032230
         H            2.874105019146    -1.114862019882     0.150278483984     1.007825032230
         H           -2.172259980854    -1.318700019882    -0.272173516016     1.007825032230
         H           -2.061464980854    -0.475951019882     1.274885483984     1.007825032230
         H           -4.205485980854     0.122091980118     0.091382483984     1.007825032230
         H           -3.160039980854     1.545694980118     0.257580483984     1.007825032230
         H           -3.266915980854     0.701318980118    -1.298076516016     1.007825032230

  Basis Set: AUG-CC-PVTZ
    Blend: AUG-CC-PVTZ
  Basis Set: (AUG-CC-PVTZ AUX)
    Blend: AUG-CC-PVTZ-JKFIT
	 Reference Energy          =    -384.0860696106473711 [Eh]
	 Singles Energy            =      -0.0000000000000000 [Eh]
	 Same-Spin Energy          =      -0.3837754526653241 [Eh]
	 Opposite-Spin Energy      =      -1.2865003319459780 [Eh]
	 Correlation Energy        =      -1.6702757846113021 [Eh]
	 Total Energy              =    -385.7563453952586769 [Eh]

	 ================> DF-SCS-MP2 Energies <==================
	-----------------------------------------------------------
	 SCS Same-Spin Scale       =       0.3333333333333333 [-]
	 SCS Opposite-Spin Scale   =       1.2000000000000000 [-]
	 SCS Same-Spin Energy      =      -0.1279251508884414 [Eh]
	 SCS Opposite-Spin Energy  =      -1.5438003983351736 [Eh]
	 SCS Correlation Energy    =      -1.6717255492236149 [Eh]
	 SCS Total Energy          =    -385.7577951598709660 [Eh]
	-----------------------------------------------------------

  Dipole Moment: [D]
     X:    -0.6224      Y:     1.5432      Z:    -0.5821     Total:     1.7629

*** Psi4 exiting successfully. Buy a developer a beer!
