                               Psi4 1.4a3.dev225

  ==> Input File <==

--------------------------------------------------------------------------
#psi4
#
memory 32 gb

molecule  {
0 1
  O       -0.8844740     0.2512200    -0.2589860
  O        0.2594420    -1.5357810     0.5540110
  C        1.4751410     0.3499910    -0.3991000
  C        1.6489360     1.5420820     0.5503600
  C        2.7076510    -0.5454760    -0.4239080
  C        0.2527860    -0.4396860     0.0153880
  C       -2.1066380    -0.4073920     0.1545600
  C       -3.2437300     0.5134160    -0.2249800
  H        1.2711313     0.7465378    -1.4229392
  H        2.5199720     2.1341380     0.2549160
  H        1.8085970     1.1898350     1.5745190
  H        0.7675450     2.1869880     0.5363060
  H        3.5809030     0.0268420    -0.7502520
  H        2.5706130    -1.3892510    -1.1045820
  H        2.9042310    -0.9491700     0.5720060
  H       -2.1727950    -1.3769310    -0.3467220
  H       -2.0631380    -0.5911830     1.2316620
  H       -4.1987120     0.0656950     0.0643780
  H       -3.1432900     1.4757990     0.2814060
  H       -3.2533220     0.6866720    -1.3031500
units angstrom
no_reorient  #important for SAPT in psi4, default
symmetry c1  #important for SAPT in psi4, default
}

set PROPERTIES_ORIGIN ["COM"]
properties('MP2/aug-cc-pvtz', properties = ['dipole'])
--------------------------------------------------------------------------

    Molecular point group: c1
  Charge       = 0
  Multiplicity = 1
  Basis Set: AUG-CC-PVTZ
    Blend: AUG-CC-PVTZ
  Basis Set: (AUG-CC-PVTZ AUX)
    Blend: AUG-CC-PVTZ-JKFIT

    Orbital Energies [Eh]
    ---------------------

    Doubly Occupied:

       1A    -20.598514     2A    -20.541343     3A    -11.374416
       4A    -11.286966     5A    -11.249319     6A    -11.227101
       7A    -11.224355     8A    -11.216296     9A     -1.448515
      10A     -1.348374    11A     -1.092594    12A     -1.033768
      13A     -0.938559    14A     -0.894158    15A     -0.828571
      16A     -0.760550    17A     -0.695858    18A     -0.676861
      19A     -0.661831    20A     -0.621484    21A     -0.586411
      22A     -0.581978    23A     -0.556684    24A     -0.548624
      25A     -0.544187    26A     -0.518512    27A     -0.509152
      28A     -0.505965    29A     -0.489419    30A     -0.479978
      31A     -0.455311    32A     -0.436348

  @DF-RHF Final Energy:  -384.08502924723950

   => Energetics <=

    Nuclear Repulsion Energy =            395.6524558818605897
    One-Electron Energy =               -1307.6109659077567358
    Two-Electron Energy =                 527.8734807786566989
    Total Energy =                       -384.0850292472395040
  Basis Set: (AUG-CC-PVTZ AUX)
    Blend: AUG-CC-PVTZ-RI
    Molecular point group: c1

    Geometry (in Angstrom), charge = 0, multiplicity = 1:

       Center              X                  Y                   Z               Mass
    ------------   -----------------  -----------------  -----------------  -----------------
         O           -0.879380988011     0.286990214027    -0.262182486149    15.994914619570
         O            0.264535011989    -1.500010785973     0.550814513851    15.994914619570
         C            1.480234011989     0.385761214027    -0.402296486149    12.000000000000
         C            1.654029011989     1.577852214027     0.547163513851    12.000000000000
         C            2.712744011989    -0.509705785973    -0.427104486149    12.000000000000
         C            0.257879011989    -0.403915785973     0.012191513851    12.000000000000
         C           -2.101544988011    -0.371621785973     0.151363513851    12.000000000000
         C           -3.238636988011     0.549186214027    -0.228176486149    12.000000000000
         H            1.276224311989     0.782308014027    -1.426135686149     1.007825032230
         H            2.525065011989     2.169908214027     0.251719513851     1.007825032230
         H            1.813690011989     1.225605214027     1.571322513851     1.007825032230
         H            0.772638011989     2.222758214027     0.533109513851     1.007825032230
         H            3.585996011989     0.062612214027    -0.753448486149     1.007825032230
         H            2.575706011989    -1.353480785973    -1.107778486149     1.007825032230
         H            2.909324011989    -0.913399785973     0.568809513851     1.007825032230
         H           -2.167701988011    -1.341160785973    -0.349918486149     1.007825032230
         H           -2.058044988011    -0.555412785973     1.228465513851     1.007825032230
         H           -4.193618988011     0.101465214027     0.061181513851     1.007825032230
         H           -3.138196988011     1.511569214027     0.278209513851     1.007825032230
         H           -3.248228988011     0.722442214027    -1.306346486149     1.007825032230

  Basis Set: AUG-CC-PVTZ
    Blend: AUG-CC-PVTZ
  Basis Set: (AUG-CC-PVTZ AUX)
    Blend: AUG-CC-PVTZ-JKFIT
	 Reference Energy          =    -384.0850292472395040 [Eh]
	 Singles Energy            =      -0.0000000000000000 [Eh]
	 Same-Spin Energy          =      -0.3838318881720861 [Eh]
	 Opposite-Spin Energy      =      -1.2868893437007922 [Eh]
	 Correlation Energy        =      -1.6707212318728784 [Eh]
	 Total Energy              =    -385.7557504791124074 [Eh]

	 ================> DF-SCS-MP2 Energies <==================
	-----------------------------------------------------------
	 SCS Same-Spin Scale       =       0.3333333333333333 [-]
	 SCS Opposite-Spin Scale   =       1.2000000000000000 [-]
	 SCS Same-Spin Energy      =      -0.1279439627240287 [Eh]
	 SCS Opposite-Spin Energy  =      -1.5442672124409507 [Eh]
	 SCS Correlation Energy    =      -1.6722111751649793 [Eh]
	 SCS Total Energy          =    -385.7572404224044931 [Eh]
	-----------------------------------------------------------

  Dipole Moment: [D]
     X:    -0.7187      Y:     1.6037      Z:    -0.6244     Total:     1.8650

*** Psi4 exiting successfully. Buy a developer a beer!
