                               Psi4 1.3.2 release

  ==> Input File <==

--------------------------------------------------------------------------
#psi4
#
memory 32 gb

molecule  {
0 1
  O       -0.8946000     0.3180840    -0.2486650
  O        0.2608140    -1.4535000     0.5764690
  C        1.4621750     0.4213130    -0.3980820
  C        1.7769429     1.3701244     0.7633178
  C        2.6165010    -0.5169580    -0.7250520
  C        0.2444396    -0.3404076     0.0668829
  C       -2.1092640    -0.3317960     0.1925940
  C       -3.2536250     0.5656790    -0.2140850
  H        1.1864410     1.0054960    -1.2820320
  H        2.6888660     1.9907190     0.4595330
  H        2.0609350     0.8310830     1.6444090
  H        0.9859800     2.0639750     0.9510040
  H        3.4951390     0.0579210    -1.0318300
  H        2.3532220    -1.2022810    -1.5348280
  H        2.8748910    -1.1153660     0.1513080
  H       -2.1714740    -1.3192040    -0.2711440
  H       -2.0606790    -0.4764550     1.2759150
  H       -4.2047000     0.1215880     0.0924120
  H       -3.1592540     1.5451910     0.2586100
  H       -3.2661300     0.7008150    -1.2970470
units angstrom
no_reorient  #important for SAPT in psi4, default
symmetry c1  #important for SAPT in psi4, default
}

set PROPERTIES_ORIGIN ["COM"]
properties('MP2/aug-cc-pvtz', properties = ['dipole'])
--------------------------------------------------------------------------

    Molecular point group: c1
  Charge       = 0
  Multiplicity = 1
  Basis Set: AUG-CC-PVTZ
    Blend: AUG-CC-PVTZ
  Basis Set: (AUG-CC-PVTZ AUX)
    Blend: AUG-CC-PVTZ-JKFIT

    Orbital Energies [Eh]
    ---------------------

    Doubly Occupied:

       1A    -20.600139     2A    -20.538373     3A    -11.372979
       4A    -11.286773     5A    -11.246013     6A    -11.227676
       7A    -11.224188     8A    -11.218026     9A     -1.450210
      10A     -1.346554    11A     -1.095421    12A     -1.034978
      13A     -0.941118    14A     -0.894274    15A     -0.828112
      16A     -0.762768    17A     -0.699490    18A     -0.678088
      19A     -0.660689    20A     -0.622646    21A     -0.591949
      22A     -0.582317    23A     -0.557337    24A     -0.553165
      25A     -0.536426    26A     -0.517261    27A     -0.507863
      28A     -0.506020    29A     -0.494308    30A     -0.482592
      31A     -0.454932    32A     -0.431587

  @DF-RHF Final Energy:  -384.08110582418186

   => Energetics <=

    Nuclear Repulsion Energy =            396.1845760882023342
    One-Electron Energy =               -1308.6428191167633486
    Two-Electron Energy =                 528.3771372043790961
    Total Energy =                       -384.0811058241819183
  Basis Set: (AUG-CC-PVTZ AUX)
    Blend: AUG-CC-PVTZ-RI
    Molecular point group: c1

    Geometry (in Angstrom), charge = 0, multiplicity = 1:

       Center              X                  Y                   Z               Mass
    ------------   -----------------  -----------------  -----------------  -----------------
         O           -0.890275939221     0.317300513764    -0.256261654602    15.994914619570
         O            0.265138060779    -1.454283486236     0.568872345398    15.994914619570
         C            1.466499060779     0.420529513764    -0.405678654602    12.000000000000
         C            1.781266960779     1.369340913764     0.755721145398    12.000000000000
         C            2.620825060779    -0.517741486236    -0.732648654602    12.000000000000
         C            0.248763660779    -0.341191086236     0.059286245398    12.000000000000
         C           -2.104939939221    -0.332579486236     0.184997345398    12.000000000000
         C           -3.249300939221     0.564895513764    -0.221681654602    12.000000000000
         H            1.190765060779     1.004712513764    -1.289628654602     1.007825032230
         H            2.693190060779     1.989935513764     0.451936345398     1.007825032230
         H            2.065259060779     0.830299513764     1.636812345398     1.007825032230
         H            0.990304060779     2.063191513764     0.943407345398     1.007825032230
         H            3.499463060779     0.057137513764    -1.039426654602     1.007825032230
         H            2.357546060779    -1.203064486236    -1.542424654602     1.007825032230
         H            2.879215060779    -1.116149486236     0.143711345398     1.007825032230
         H           -2.167149939221    -1.319987486236    -0.278740654602     1.007825032230
         H           -2.056354939221    -0.477238486236     1.268318345398     1.007825032230
         H           -4.200375939221     0.120804513764     0.084815345398     1.007825032230
         H           -3.154929939221     1.544407513764     0.251013345398     1.007825032230
         H           -3.261805939221     0.700031513764    -1.304643654602     1.007825032230

  Basis Set: AUG-CC-PVTZ
    Blend: AUG-CC-PVTZ
  Basis Set: (AUG-CC-PVTZ AUX)
    Blend: AUG-CC-PVTZ-JKFIT
	 Reference Energy          =    -384.0811058241818614 [Eh]
	 Singles Energy            =      -0.0000000000000000 [Eh]
	 Same-Spin Energy          =      -0.3841120009880539 [Eh]
	 Opposite-Spin Energy      =      -1.2870176178206907 [Eh]
	 Correlation Energy        =      -1.6711296188087446 [Eh]
	 Total Energy              =    -385.7522354429905818 [Eh]

	 ================> DF-SCS-MP2 Energies <==================
	-----------------------------------------------------------
	 SCS Same-Spin Scale       =       0.3333333333333333 [-]
	 SCS Opposite-Spin Scale   =       1.2000000000000000 [-]
	 SCS Same-Spin Energy      =      -0.1280373336626846 [Eh]
	 SCS Opposite-Spin Energy  =      -1.5444211413848288 [Eh]
	 SCS Correlation Energy    =      -1.6724584750475133 [Eh]
	 SCS Total Energy          =    -385.7535642992293674 [Eh]
	-----------------------------------------------------------

  Dipole Moment: [D]
     X:    -0.7215      Y:     1.6237      Z:    -0.5833     Total:     1.8701

*** Psi4 exiting successfully. Buy a developer a beer!
