                               Psi4 1.3.2 release

  ==> Input File <==

--------------------------------------------------------------------------
#psi4
#
memory 32 gb

molecule  {
0 1
  O       -0.9194277     0.2829356    -0.2289129
  O        0.2183036    -1.4521175     0.5787715
  C        1.4621750     0.4213130    -0.3980820
  C        1.8184670     1.3890190     0.7353960
  C        2.6165010    -0.5169580    -0.7250520
  C        0.2447430    -0.3668820     0.0213200
  C       -2.1092640    -0.3317960     0.1925940
  C       -3.2536250     0.5656790    -0.2140850
  H        1.1864410     1.0054960    -1.2820320
  H        2.6888660     1.9907190     0.4595330
  H        2.0609350     0.8310830     1.6444090
  H        0.9859800     2.0639750     0.9510040
  H        3.4951390     0.0579210    -1.0318300
  H        2.3532220    -1.2022810    -1.5348280
  H        2.8748910    -1.1153660     0.1513080
  H       -2.1714740    -1.3192040    -0.2711440
  H       -2.0606790    -0.4764550     1.2759150
  H       -4.2047000     0.1215880     0.0924120
  H       -3.1592540     1.5451910     0.2586100
  H       -3.2661300     0.7008150    -1.2970470
units angstrom
no_reorient  #important for SAPT in psi4, default
symmetry c1  #important for SAPT in psi4, default
}

set PROPERTIES_ORIGIN ["COM"]
properties('MP2/aug-cc-pvtz', properties = ['dipole'])
--------------------------------------------------------------------------

    Molecular point group: c1
  Charge       = 0
  Multiplicity = 1
  Basis Set: AUG-CC-PVTZ
    Blend: AUG-CC-PVTZ
  Basis Set: (AUG-CC-PVTZ AUX)
    Blend: AUG-CC-PVTZ-JKFIT

    Orbital Energies [Eh]
    ---------------------

    Doubly Occupied:

       1A    -20.594070     2A    -20.538826     3A    -11.374781
       4A    -11.279934     5A    -11.251032     6A    -11.229873
       7A    -11.221027     8A    -11.220525     9A     -1.457142
      10A     -1.348280    11A     -1.098341    12A     -1.033159
      13A     -0.942267    14A     -0.899667    15A     -0.827934
      16A     -0.764588    17A     -0.702310    18A     -0.681180
      19A     -0.661807    20A     -0.621887    21A     -0.590682
      22A     -0.586420    23A     -0.555475    24A     -0.550271
      25A     -0.545721    26A     -0.521479    27A     -0.506593
      28A     -0.500821    29A     -0.492936    30A     -0.482524
      31A     -0.449149    32A     -0.438328

  @DF-RHF Final Energy:  -384.08580392466808

   => Energetics <=

    Nuclear Repulsion Energy =            396.4826860806136324
    One-Electron Energy =               -1309.1989242642880527
    Two-Electron Energy =                 528.6304342590063925
    Total Energy =                       -384.0858039246680846
  Basis Set: (AUG-CC-PVTZ AUX)
    Blend: AUG-CC-PVTZ-RI
    Molecular point group: c1

    Geometry (in Angstrom), charge = 0, multiplicity = 1:

       Center              X                  Y                   Z               Mass
    ------------   -----------------  -----------------  -----------------  -----------------
         O           -0.910149136450     0.287588192442    -0.231952025672    15.994914619570
         O            0.227582163550    -1.447464907558     0.575732374328    15.994914619570
         C            1.471453563550     0.425965592442    -0.401121125672    12.000000000000
         C            1.827745563550     1.393671592442     0.732356874328    12.000000000000
         C            2.625779563550    -0.512305407558    -0.728091125672    12.000000000000
         C            0.254021563550    -0.362229407558     0.018280874328    12.000000000000
         C           -2.099985436450    -0.327143407558     0.189554874328    12.000000000000
         C           -3.244346436450     0.570331592442    -0.217124125672    12.000000000000
         H            1.195719563550     1.010148592442    -1.285071125672     1.007825032230
         H            2.698144563550     1.995371592442     0.456493874328     1.007825032230
         H            2.070213563550     0.835735592442     1.641369874328     1.007825032230
         H            0.995258563550     2.068627592442     0.947964874328     1.007825032230
         H            3.504417563550     0.062573592442    -1.034869125672     1.007825032230
         H            2.362500563550    -1.197628407558    -1.537867125672     1.007825032230
         H            2.884169563550    -1.110713407558     0.148268874328     1.007825032230
         H           -2.162195436450    -1.314551407558    -0.274183125672     1.007825032230
         H           -2.051400436450    -0.471802407558     1.272875874328     1.007825032230
         H           -4.195421436450     0.126240592442     0.089372874328     1.007825032230
         H           -3.149975436450     1.549843592442     0.255570874328     1.007825032230
         H           -3.256851436450     0.705467592442    -1.300086125672     1.007825032230

  Basis Set: AUG-CC-PVTZ
    Blend: AUG-CC-PVTZ
  Basis Set: (AUG-CC-PVTZ AUX)
    Blend: AUG-CC-PVTZ-JKFIT
	 Reference Energy          =    -384.0858039246680846 [Eh]
	 Singles Energy            =      -0.0000000000000000 [Eh]
	 Same-Spin Energy          =      -0.3835488323873286 [Eh]
	 Opposite-Spin Energy      =      -1.2853244568894691 [Eh]
	 Correlation Energy        =      -1.6688732892767977 [Eh]
	 Total Energy              =    -385.7546772139448876 [Eh]

	 ================> DF-SCS-MP2 Energies <==================
	-----------------------------------------------------------
	 SCS Same-Spin Scale       =       0.3333333333333333 [-]
	 SCS Opposite-Spin Scale   =       1.2000000000000000 [-]
	 SCS Same-Spin Energy      =      -0.1278496107957762 [Eh]
	 SCS Opposite-Spin Energy  =      -1.5423893482673627 [Eh]
	 SCS Correlation Energy    =      -1.6702389590631390 [Eh]
	 SCS Total Energy          =    -385.7560428837311974 [Eh]
	-----------------------------------------------------------

  Dipole Moment: [D]
     X:    -0.3721      Y:     1.6894      Z:    -0.6703     Total:     1.8552

*** Psi4 exiting successfully. Buy a developer a beer!
