                               Psi4 1.3.2 release

  ==> Input File <==

--------------------------------------------------------------------------
#psi4
#
memory 32 gb

molecule  {
0 1
  O       -0.8946000     0.3180840    -0.2486650
  O        0.2608140    -1.4535000     0.5764690
  C        1.4621750     0.4213130    -0.3980820
  C        1.8184670     1.3890190     0.7353960
  C        2.6165010    -0.5169580    -0.7250520
  C        0.2447430    -0.3668820     0.0213200
  C       -2.1092640    -0.3317960     0.1925940
  C       -3.2536250     0.5656790    -0.2140850
  H        1.2368109     0.8987800    -1.1205558
  H        2.6888660     1.9907190     0.4595330
  H        2.0609350     0.8310830     1.6444090
  H        0.9859800     2.0639750     0.9510040
  H        3.4951390     0.0579210    -1.0318300
  H        2.3532220    -1.2022810    -1.5348280
  H        2.8748910    -1.1153660     0.1513080
  H       -2.1714740    -1.3192040    -0.2711440
  H       -2.0606790    -0.4764550     1.2759150
  H       -4.2047000     0.1215880     0.0924120
  H       -3.1592540     1.5451910     0.2586100
  H       -3.2661300     0.7008150    -1.2970470
units angstrom
no_reorient  #important for SAPT in psi4, default
symmetry c1  #important for SAPT in psi4, default
}

set PROPERTIES_ORIGIN ["COM"]
properties('MP2/aug-cc-pvtz', properties = ['dipole'])
--------------------------------------------------------------------------

    Molecular point group: c1
  Charge       = 0
  Multiplicity = 1
  Basis Set: AUG-CC-PVTZ
    Blend: AUG-CC-PVTZ
  Basis Set: (AUG-CC-PVTZ AUX)
    Blend: AUG-CC-PVTZ-JKFIT

    Orbital Energies [Eh]
    ---------------------

    Doubly Occupied:

       1A    -20.599998     2A    -20.538995     3A    -11.372111
       4A    -11.286835     5A    -11.226080     6A    -11.224173
       7A    -11.221211     8A    -11.216034     9A     -1.449932
      10A     -1.348252    11A     -1.106558    12A     -1.035370
      13A     -0.938463    14A     -0.897908    15A     -0.837365
      16A     -0.772694    17A     -0.716530    18A     -0.678134
      19A     -0.662899    20A     -0.622139    21A     -0.591005
      22A     -0.583518    23A     -0.555516    24A     -0.549646
      25A     -0.544052    26A     -0.520237    27A     -0.510843
      28A     -0.505813    29A     -0.501179    30A     -0.482745
      31A     -0.455316    32A     -0.435859

  @DF-RHF Final Energy:  -384.05266446305143

   => Energetics <=

    Nuclear Repulsion Energy =            396.9519066321805667
    One-Electron Energy =               -1310.0343219749599939
    Two-Electron Energy =                 529.0297508797279988
    Total Energy =                       -384.0526644630514284
  Basis Set: (AUG-CC-PVTZ AUX)
    Blend: AUG-CC-PVTZ-RI
    Molecular point group: c1

    Geometry (in Angstrom), charge = 0, multiplicity = 1:

       Center              X                  Y                   Z               Mass
    ------------   -----------------  -----------------  -----------------  -----------------
         O           -0.895037106423     0.319010560958    -0.250067189229    15.994914619570
         O            0.260376893577    -1.452573439042     0.575066810771    15.994914619570
         C            1.461737893577     0.422239560958    -0.399484189229    12.000000000000
         C            1.818029893577     1.389945560958     0.733993810771    12.000000000000
         C            2.616063893577    -0.516031439042    -0.726454189229    12.000000000000
         C            0.244305893577    -0.365955439042     0.019917810771    12.000000000000
         C           -2.109701106423    -0.330869439042     0.191191810771    12.000000000000
         C           -3.254062106423     0.566605560958    -0.215487189229    12.000000000000
         H            1.236373793577     0.899706560958    -1.121957989229     1.007825032230
         H            2.688428893577     1.991645560958     0.458130810771     1.007825032230
         H            2.060497893577     0.832009560958     1.643006810771     1.007825032230
         H            0.985542893577     2.064901560958     0.949601810771     1.007825032230
         H            3.494701893577     0.058847560958    -1.033232189229     1.007825032230
         H            2.352784893577    -1.201354439042    -1.536230189229     1.007825032230
         H            2.874453893577    -1.114439439042     0.149905810771     1.007825032230
         H           -2.171911106423    -1.318277439042    -0.272546189229     1.007825032230
         H           -2.061116106423    -0.475528439042     1.274512810771     1.007825032230
         H           -4.205137106423     0.122514560958     0.091009810771     1.007825032230
         H           -3.159691106423     1.546117560958     0.257207810771     1.007825032230
         H           -3.266567106423     0.701741560958    -1.298449189229     1.007825032230

  Basis Set: AUG-CC-PVTZ
    Blend: AUG-CC-PVTZ
  Basis Set: (AUG-CC-PVTZ AUX)
    Blend: AUG-CC-PVTZ-JKFIT
	 Reference Energy          =    -384.0526644630514284 [Eh]
	 Singles Energy            =      -0.0000000000000000 [Eh]
	 Same-Spin Energy          =      -0.3837870700439867 [Eh]
	 Opposite-Spin Energy      =      -1.2859036401872332 [Eh]
	 Correlation Energy        =      -1.6696907102312200 [Eh]
	 Total Energy              =    -385.7223551732826650 [Eh]

	 ================> DF-SCS-MP2 Energies <==================
	-----------------------------------------------------------
	 SCS Same-Spin Scale       =       0.3333333333333333 [-]
	 SCS Opposite-Spin Scale   =       1.2000000000000000 [-]
	 SCS Same-Spin Energy      =      -0.1279290233479956 [Eh]
	 SCS Opposite-Spin Energy  =      -1.5430843682246798 [Eh]
	 SCS Correlation Energy    =      -1.6710133915726753 [Eh]
	 SCS Total Energy          =    -385.7236778546240998 [Eh]
	-----------------------------------------------------------

  Dipole Moment: [D]
     X:    -0.7295      Y:     1.6202      Z:    -0.6497     Total:     1.8919

*** Psi4 exiting successfully. Buy a developer a beer!
