                               Psi4 1.3.2 release

  ==> Input File <==

--------------------------------------------------------------------------
#psi4
#
memory 32 gb

molecule  {
0 1
  O       -0.8946000     0.3180840    -0.2486650
  O        0.2608140    -1.4535000     0.5764690
  C        1.4621750     0.4213130    -0.3980820
  C        1.8133981     1.4096078     0.7190962
  C        2.6165010    -0.5169580    -0.7250520
  C        0.2447430    -0.3668820     0.0213200
  C       -2.1092640    -0.3317960     0.1925940
  C       -3.2536250     0.5656790    -0.2140850
  H        1.1895516     1.0215672    -1.2721747
  H        2.6888660     1.9907190     0.4595330
  H        2.0609350     0.8310830     1.6444090
  H        0.9859800     2.0639750     0.9510040
  H        3.4951390     0.0579210    -1.0318300
  H        2.3532220    -1.2022810    -1.5348280
  H        2.8748910    -1.1153660     0.1513080
  H       -2.1714740    -1.3192040    -0.2711440
  H       -2.0606790    -0.4764550     1.2759150
  H       -4.2047000     0.1215880     0.0924120
  H       -3.1592540     1.5451910     0.2586100
  H       -3.2661300     0.7008150    -1.2970470
units angstrom
no_reorient  #important for SAPT in psi4, default
symmetry c1  #important for SAPT in psi4, default
}

set PROPERTIES_ORIGIN ["COM"]
properties('MP2/aug-cc-pvtz', properties = ['dipole'])
--------------------------------------------------------------------------

    Molecular point group: c1
  Charge       = 0
  Multiplicity = 1
  Basis Set: AUG-CC-PVTZ
    Blend: AUG-CC-PVTZ
  Basis Set: (AUG-CC-PVTZ AUX)
    Blend: AUG-CC-PVTZ-JKFIT

    Orbital Energies [Eh]
    ---------------------

    Doubly Occupied:

       1A    -20.599548     2A    -20.540485     3A    -11.373889
       4A    -11.286579     5A    -11.245611     6A    -11.227141
       7A    -11.224029     8A    -11.217550     9A     -1.450015
      10A     -1.349083    11A     -1.094211    12A     -1.034688
      13A     -0.939772    14A     -0.895140    15A     -0.828309
      16A     -0.761899    17A     -0.699083    18A     -0.677997
      19A     -0.661283    20A     -0.619993    21A     -0.592644
      22A     -0.583776    23A     -0.555681    24A     -0.550822
      25A     -0.541136    26A     -0.519598    27A     -0.509666
      28A     -0.506395    29A     -0.490477    30A     -0.478105
      31A     -0.455427    32A     -0.436809

  @DF-RHF Final Energy:  -384.08505831922207

   => Energetics <=

    Nuclear Repulsion Energy =            395.7364292137113466
    One-Electron Energy =               -1307.7492908276833532
    Two-Electron Energy =                 527.9278032947499923
    Total Energy =                       -384.0850583192220711
  Basis Set: (AUG-CC-PVTZ AUX)
    Blend: AUG-CC-PVTZ-RI
    Molecular point group: c1

    Geometry (in Angstrom), charge = 0, multiplicity = 1:

       Center              X                  Y                   Z               Mass
    ------------   -----------------  -----------------  -----------------  -----------------
         O           -0.894102816097     0.315816197588    -0.247065882122    15.994914619570
         O            0.261311183903    -1.455767802412     0.578068117878    15.994914619570
         C            1.462672183903     0.419045197588    -0.396482882122    12.000000000000
         C            1.813895283903     1.407339997588     0.720695317878    12.000000000000
         C            2.616998183903    -0.519225802412    -0.723452882122    12.000000000000
         C            0.245240183903    -0.369149802412     0.022919117878    12.000000000000
         C           -2.108766816097    -0.334063802412     0.194193117878    12.000000000000
         C           -3.253127816097     0.563411197588    -0.212485882122    12.000000000000
         H            1.190048783903     1.019299397588    -1.270575582122     1.007825032230
         H            2.689363183903     1.988451197588     0.461132117878     1.007825032230
         H            2.061432183903     0.828815197588     1.646008117878     1.007825032230
         H            0.986477183903     2.061707197588     0.952603117878     1.007825032230
         H            3.495636183903     0.055653197588    -1.030230882122     1.007825032230
         H            2.353719183903    -1.204548802412    -1.533228882122     1.007825032230
         H            2.875388183903    -1.117633802412     0.152907117878     1.007825032230
         H           -2.170976816097    -1.321471802412    -0.269544882122     1.007825032230
         H           -2.060181816097    -0.478722802412     1.277514117878     1.007825032230
         H           -4.204202816097     0.119320197588     0.094011117878     1.007825032230
         H           -3.158756816097     1.542923197588     0.260209117878     1.007825032230
         H           -3.265632816097     0.698547197588    -1.295447882122     1.007825032230

  Basis Set: AUG-CC-PVTZ
    Blend: AUG-CC-PVTZ
  Basis Set: (AUG-CC-PVTZ AUX)
    Blend: AUG-CC-PVTZ-JKFIT
	 Reference Energy          =    -384.0850583192220711 [Eh]
	 Singles Energy            =      -0.0000000000000000 [Eh]
	 Same-Spin Energy          =      -0.3838726378100227 [Eh]
	 Opposite-Spin Energy      =      -1.2866794428153807 [Eh]
	 Correlation Energy        =      -1.6705520806254035 [Eh]
	 Total Energy              =    -385.7556103998474555 [Eh]

	 ================> DF-SCS-MP2 Energies <==================
	-----------------------------------------------------------
	 SCS Same-Spin Scale       =       0.3333333333333333 [-]
	 SCS Opposite-Spin Scale   =       1.2000000000000000 [-]
	 SCS Same-Spin Energy      =      -0.1279575459366742 [Eh]
	 SCS Opposite-Spin Energy  =      -1.5440153313784568 [Eh]
	 SCS Correlation Energy    =      -1.6719728773151310 [Eh]
	 SCS Total Energy          =    -385.7570311965371843 [Eh]
	-----------------------------------------------------------

  Dipole Moment: [D]
     X:    -0.7079      Y:     1.6000      Z:    -0.6178     Total:     1.8554

*** Psi4 exiting successfully. Buy a developer a beer!
