                               Psi4 1.3.2 release

  ==> Input File <==

--------------------------------------------------------------------------
#psi4
#
memory 32 gb

molecule  {
0 1
  O       -0.8917717     0.3079445    -0.2556321
  O        0.2608140    -1.4535000     0.5764690
  C        1.4621750     0.4213130    -0.3980820
  C        1.8184670     1.3890190     0.7353960
  C        2.6165010    -0.5169580    -0.7250520
  C        0.2447430    -0.3668820     0.0213200
  C       -2.1092640    -0.3317960     0.1925940
  C       -3.2536250     0.5656790    -0.2140850
  H        1.1864410     1.0054960    -1.2820320
  H        2.6888660     1.9907190     0.4595330
  H        2.0609350     0.8310830     1.6444090
  H        0.9859800     2.0639750     0.9510040
  H        3.4951390     0.0579210    -1.0318300
  H        2.3532220    -1.2022810    -1.5348280
  H        2.8748910    -1.1153660     0.1513080
  H       -2.1631935    -1.3175922    -0.2755887
  H       -2.0606790    -0.4764550     1.2759150
  H       -4.2047000     0.1215880     0.0924120
  H       -3.1592540     1.5451910     0.2586100
  H       -3.2661300     0.7008150    -1.2970470
units angstrom
no_reorient  #important for SAPT in psi4, default
symmetry c1  #important for SAPT in psi4, default
}

set PROPERTIES_ORIGIN ["COM"]
properties('MP2/aug-cc-pvtz', properties = ['dipole'])
--------------------------------------------------------------------------

    Molecular point group: c1
  Charge       = 0
  Multiplicity = 1
  Basis Set: AUG-CC-PVTZ
    Blend: AUG-CC-PVTZ
  Basis Set: (AUG-CC-PVTZ AUX)
    Blend: AUG-CC-PVTZ-JKFIT

    Orbital Energies [Eh]
    ---------------------

    Doubly Occupied:

       1A    -20.599352     2A    -20.538850     3A    -11.372589
       4A    -11.286977     5A    -11.245330     6A    -11.227084
       7A    -11.224525     8A    -11.216983     9A     -1.451655
      10A     -1.348390    11A     -1.094245    12A     -1.035396
      13A     -0.939187    14A     -0.895988    15A     -0.828302
      16A     -0.762391    17A     -0.698962    18A     -0.678830
      19A     -0.660803    20A     -0.619551    21A     -0.591490
      22A     -0.583488    23A     -0.555740    24A     -0.550275
      25A     -0.544346    26A     -0.519497    27A     -0.509043
      28A     -0.505483    29A     -0.489241    30A     -0.480983
      31A     -0.455026    32A     -0.435607

  @DF-RHF Final Energy:  -384.08638485752846

   => Energetics <=

    Nuclear Repulsion Energy =            395.9535362224634696
    One-Electron Energy =               -1308.1886225701459807
    Two-Electron Energy =                 528.1487014901539396
    Total Energy =                       -384.0863848575285147
  Basis Set: (AUG-CC-PVTZ AUX)
    Blend: AUG-CC-PVTZ-RI
    Molecular point group: c1

    Geometry (in Angstrom), charge = 0, multiplicity = 1:

       Center              X                  Y                   Z               Mass
    ------------   -----------------  -----------------  -----------------  -----------------
         O           -0.892233096356     0.309327670755    -0.254633802900    15.994914619570
         O            0.260352603644    -1.452116829245     0.577467297100    15.994914619570
         C            1.461713603644     0.422696170755    -0.397083702900    12.000000000000
         C            1.818005603644     1.390402170755     0.736394297100    12.000000000000
         C            2.616039603644    -0.515574829245    -0.724053702900    12.000000000000
         C            0.244281603644    -0.365498829245     0.022318297100    12.000000000000
         C           -2.109725396356    -0.330412829245     0.193592297100    12.000000000000
         C           -3.254086396356     0.567062170755    -0.213086702900    12.000000000000
         H            1.185979603644     1.006879170755    -1.281033702900     1.007825032230
         H            2.688404603644     1.992102170755     0.460531297100     1.007825032230
         H            2.060473603644     0.832466170755     1.645407297100     1.007825032230
         H            0.985518603644     2.065358170755     0.952002297100     1.007825032230
         H            3.494677603644     0.059304170755    -1.030831702900     1.007825032230
         H            2.352760603644    -1.200897829245    -1.533829702900     1.007825032230
         H            2.874429603644    -1.113982829245     0.152306297100     1.007825032230
         H           -2.163654896356    -1.316209029245    -0.274590402900     1.007825032230
         H           -2.061140396356    -0.475071829245     1.276913297100     1.007825032230
         H           -4.205161396356     0.122971170755     0.093410297100     1.007825032230
         H           -3.159715396356     1.546574170755     0.259608297100     1.007825032230
         H           -3.266591396356     0.702198170755    -1.296048702900     1.007825032230

  Basis Set: AUG-CC-PVTZ
    Blend: AUG-CC-PVTZ
  Basis Set: (AUG-CC-PVTZ AUX)
    Blend: AUG-CC-PVTZ-JKFIT
	 Reference Energy          =    -384.0863848575284578 [Eh]
	 Singles Energy            =      -0.0000000000000000 [Eh]
	 Same-Spin Energy          =      -0.3837594916191766 [Eh]
	 Opposite-Spin Energy      =      -1.2863495282174591 [Eh]
	 Correlation Energy        =      -1.6701090198366355 [Eh]
	 Total Energy              =    -385.7564938773650738 [Eh]

	 ================> DF-SCS-MP2 Energies <==================
	-----------------------------------------------------------
	 SCS Same-Spin Scale       =       0.3333333333333333 [-]
	 SCS Opposite-Spin Scale   =       1.2000000000000000 [-]
	 SCS Same-Spin Energy      =      -0.1279198305397255 [Eh]
	 SCS Opposite-Spin Energy  =      -1.5436194338609508 [Eh]
	 SCS Correlation Energy    =      -1.6715392644006764 [Eh]
	 SCS Total Energy          =    -385.7579241219291362 [Eh]
	-----------------------------------------------------------

  Dipole Moment: [D]
     X:    -0.7429      Y:     1.6233      Z:    -0.6074     Total:     1.8857

*** Psi4 exiting successfully. Buy a developer a beer!
