                               Psi4 1.3.2 release

  ==> Input File <==

--------------------------------------------------------------------------
#psi4
#
memory 32 gb

molecule  {
0 1
  O       -0.8946000     0.3180840    -0.2486650
  O        0.2608140    -1.4535000     0.5764690
  C        1.4621750     0.4213130    -0.3980820
  C        1.8184670     1.3890190     0.7353960
  C        2.6165010    -0.5169580    -0.7250520
  C        0.2434261    -0.2778385    -0.0241720
  C       -2.1092640    -0.3317960     0.1925940
  C       -3.2536250     0.5656790    -0.2140850
  H        1.1864410     1.0054960    -1.2820320
  H        2.6888660     1.9907190     0.4595330
  H        2.0609350     0.8310830     1.6444090
  H        0.9859800     2.0639750     0.9510040
  H        3.4951390     0.0579210    -1.0318300
  H        2.3532220    -1.2022810    -1.5348280
  H        2.8748910    -1.1153660     0.1513080
  H       -2.1714740    -1.3192040    -0.2711440
  H       -2.0606790    -0.4764550     1.2759150
  H       -4.2047000     0.1215880     0.0924120
  H       -3.1592540     1.5451910     0.2586100
  H       -3.2661300     0.7008150    -1.2970470
units angstrom
no_reorient  #important for SAPT in psi4, default
symmetry c1  #important for SAPT in psi4, default
}

set PROPERTIES_ORIGIN ["COM"]
properties('MP2/aug-cc-pvtz', properties = ['dipole'])
--------------------------------------------------------------------------

    Molecular point group: c1
  Charge       = 0
  Multiplicity = 1
  Basis Set: AUG-CC-PVTZ
    Blend: AUG-CC-PVTZ
  Basis Set: (AUG-CC-PVTZ AUX)
    Blend: AUG-CC-PVTZ-JKFIT

    Orbital Energies [Eh]
    ---------------------

    Doubly Occupied:

       1A    -20.613972     2A    -20.519662     3A    -11.379443
       4A    -11.293669     5A    -11.247083     6A    -11.231238
       7A    -11.228164     8A    -11.218943     9A     -1.464385
      10A     -1.290905    11A     -1.105179    12A     -1.044935
      13A     -0.941778    14A     -0.910125    15A     -0.839490
      16A     -0.772202    17A     -0.698194    18A     -0.682769
      19A     -0.657716    20A     -0.617546    21A     -0.594263
      22A     -0.574444    23A     -0.559516    24A     -0.553220
      25A     -0.545233    26A     -0.520502    27A     -0.504478
      28A     -0.503036    29A     -0.490695    30A     -0.480912
      31A     -0.432015    32A     -0.428530

  @DF-RHF Final Energy:  -384.06466738744092

   => Energetics <=

    Nuclear Repulsion Energy =            395.7668372514581847
    One-Electron Energy =               -1307.7745318069196401
    Two-Electron Energy =                 527.9430271680205351
    Total Energy =                       -384.0646673874409771
  Basis Set: (AUG-CC-PVTZ AUX)
    Blend: AUG-CC-PVTZ-RI
    Molecular point group: c1

    Geometry (in Angstrom), charge = 0, multiplicity = 1:

       Center              X                  Y                   Z               Mass
    ------------   -----------------  -----------------  -----------------  -----------------
         O           -0.894463668213     0.308879312936    -0.243962597666    15.994914619570
         O            0.260950331787    -1.462704687064     0.581171402334    15.994914619570
         C            1.462311331787     0.412108312936    -0.393379597666    12.000000000000
         C            1.818603331787     1.379814312936     0.740098402334    12.000000000000
         C            2.616637331787    -0.526162687064    -0.720349597666    12.000000000000
         C            0.243562431787    -0.287043187064    -0.019469597666    12.000000000000
         C           -2.109127668213    -0.341000687064     0.197296402334    12.000000000000
         C           -3.253488668213     0.556474312936    -0.209382597666    12.000000000000
         H            1.186577331787     0.996291312936    -1.277329597666     1.007825032230
         H            2.689002331787     1.981514312936     0.464235402334     1.007825032230
         H            2.061071331787     0.821878312936     1.649111402334     1.007825032230
         H            0.986116331787     2.054770312936     0.955706402334     1.007825032230
         H            3.495275331787     0.048716312936    -1.027127597666     1.007825032230
         H            2.353358331787    -1.211485687064    -1.530125597666     1.007825032230
         H            2.875027331787    -1.124570687064     0.156010402334     1.007825032230
         H           -2.171337668213    -1.328408687064    -0.266441597666     1.007825032230
         H           -2.060542668213    -0.485659687064     1.280617402334     1.007825032230
         H           -4.204563668213     0.112383312936     0.097114402334     1.007825032230
         H           -3.159117668213     1.535986312936     0.263312402334     1.007825032230
         H           -3.265993668213     0.691610312936    -1.292344597666     1.007825032230

  Basis Set: AUG-CC-PVTZ
    Blend: AUG-CC-PVTZ
  Basis Set: (AUG-CC-PVTZ AUX)
    Blend: AUG-CC-PVTZ-JKFIT
	 Reference Energy          =    -384.0646673874409203 [Eh]
	 Singles Energy            =      -0.0000000000000000 [Eh]
	 Same-Spin Energy          =      -0.3858883864926235 [Eh]
	 Opposite-Spin Energy      =      -1.2902053667750519 [Eh]
	 Correlation Energy        =      -1.6760937532676754 [Eh]
	 Total Energy              =    -385.7407611407085710 [Eh]

	 ================> DF-SCS-MP2 Energies <==================
	-----------------------------------------------------------
	 SCS Same-Spin Scale       =       0.3333333333333333 [-]
	 SCS Opposite-Spin Scale   =       1.2000000000000000 [-]
	 SCS Same-Spin Energy      =      -0.1286294621642078 [Eh]
	 SCS Opposite-Spin Energy  =      -1.5482464401300622 [Eh]
	 SCS Correlation Energy    =      -1.6768759022942701 [Eh]
	 SCS Total Energy          =    -385.7415432897352048 [Eh]
	-----------------------------------------------------------

  Dipole Moment: [D]
     X:    -0.9558      Y:     2.1183      Z:    -0.8228     Total:     2.4654

*** Psi4 exiting successfully. Buy a developer a beer!
