                               Psi4 1.3.2 release

  ==> Input File <==

--------------------------------------------------------------------------
#psi4
#
memory 32 gb

molecule  {
0 1
  O       -0.8946000     0.3180840    -0.2486650
  O        0.2608140    -1.4535000     0.5764690
  C        1.4621750     0.4213130    -0.3980820
  C        1.8184670     1.3890190     0.7353960
  C        2.6165010    -0.5169580    -0.7250520
  C        0.2473769    -0.5449690     0.1123040
  C       -2.1092640    -0.3317960     0.1925940
  C       -3.2536250     0.5656790    -0.2140850
  H        1.1864410     1.0054960    -1.2820320
  H        2.6888660     1.9907190     0.4595330
  H        2.0609350     0.8310830     1.6444090
  H        0.9859800     2.0639750     0.9510040
  H        3.4951390     0.0579210    -1.0318300
  H        2.3532220    -1.2022810    -1.5348280
  H        2.8748910    -1.1153660     0.1513080
  H       -2.1714740    -1.3192040    -0.2711440
  H       -2.0606790    -0.4764550     1.2759150
  H       -4.2047000     0.1215880     0.0924120
  H       -3.1592540     1.5451910     0.2586100
  H       -3.2661300     0.7008150    -1.2970470
units angstrom
no_reorient  #important for SAPT in psi4, default
symmetry c1  #important for SAPT in psi4, default
}

set PROPERTIES_ORIGIN ["COM"]
properties('MP2/aug-cc-pvtz', properties = ['dipole'])
--------------------------------------------------------------------------

    Molecular point group: c1
  Charge       = 0
  Multiplicity = 1
  Basis Set: AUG-CC-PVTZ
    Blend: AUG-CC-PVTZ
  Basis Set: (AUG-CC-PVTZ AUX)
    Blend: AUG-CC-PVTZ-JKFIT

    Orbital Energies [Eh]
    ---------------------

    Doubly Occupied:

       1A    -20.579437     2A    -20.563775     3A    -11.356273
       4A    -11.271842     5A    -11.241324     6A    -11.219984
       7A    -11.214587     8A    -11.214409     9A     -1.566425
      10A     -1.353101    11A     -1.074818    12A     -1.014449
      13A     -0.934828    14A     -0.863165    15A     -0.810446
      16A     -0.761780    17A     -0.734680    18A     -0.696951
      19A     -0.685156    20A     -0.629971    21A     -0.611199
      22A     -0.580296    23A     -0.559405    24A     -0.547955
      25A     -0.539928    26A     -0.535433    27A     -0.522547
      28A     -0.503200    29A     -0.483620    30A     -0.480568
      31A     -0.445596    32A     -0.398143

  @DF-RHF Final Energy:  -384.00387509845837

   => Energetics <=

    Nuclear Repulsion Energy =            396.7222149284978059
    One-Electron Energy =               -1309.4615903825981604
    Two-Electron Energy =                 528.7355003556419888
    Total Energy =                       -384.0038750984583658
  Basis Set: (AUG-CC-PVTZ AUX)
    Blend: AUG-CC-PVTZ-RI
    Molecular point group: c1

    Geometry (in Angstrom), charge = 0, multiplicity = 1:

       Center              X                  Y                   Z               Mass
    ------------   -----------------  -----------------  -----------------  -----------------
         O           -0.894872076869     0.336493570423    -0.258070621291    15.994914619570
         O            0.260541923131    -1.435090429577     0.567063378709    15.994914619570
         C            1.461902923131     0.439722570423    -0.407487621291    12.000000000000
         C            1.818194923131     1.407428570423     0.725990378709    12.000000000000
         C            2.616228923131    -0.498548429577    -0.734457621291    12.000000000000
         C            0.247104823131    -0.526559429577     0.102898378709    12.000000000000
         C           -2.109536076869    -0.313386429577     0.183188378709    12.000000000000
         C           -3.253897076869     0.584088570423    -0.223490621291    12.000000000000
         H            1.186168923131     1.023905570423    -1.291437621291     1.007825032230
         H            2.688593923131     2.009128570423     0.450127378709     1.007825032230
         H            2.060662923131     0.849492570423     1.635003378709     1.007825032230
         H            0.985707923131     2.082384570423     0.941598378709     1.007825032230
         H            3.494866923131     0.076330570423    -1.041235621291     1.007825032230
         H            2.352949923131    -1.183871429577    -1.544233621291     1.007825032230
         H            2.874618923131    -1.096956429577     0.141902378709     1.007825032230
         H           -2.171746076869    -1.300794429577    -0.280549621291     1.007825032230
         H           -2.060951076869    -0.458045429577     1.266509378709     1.007825032230
         H           -4.204972076869     0.139997570423     0.083006378709     1.007825032230
         H           -3.159526076869     1.563600570423     0.249204378709     1.007825032230
         H           -3.266402076869     0.719224570423    -1.306452621291     1.007825032230

  Basis Set: AUG-CC-PVTZ
    Blend: AUG-CC-PVTZ
  Basis Set: (AUG-CC-PVTZ AUX)
    Blend: AUG-CC-PVTZ-JKFIT
	 Reference Energy          =    -384.0038750984583658 [Eh]
	 Singles Energy            =      -0.0000000000000000 [Eh]
	 Same-Spin Energy          =      -0.3811470482709897 [Eh]
	 Opposite-Spin Energy      =      -1.2818918080726922 [Eh]
	 Correlation Energy        =      -1.6630388563436820 [Eh]
	 Total Energy              =    -385.6669139548020553 [Eh]

	 ================> DF-SCS-MP2 Energies <==================
	-----------------------------------------------------------
	 SCS Same-Spin Scale       =       0.3333333333333333 [-]
	 SCS Opposite-Spin Scale   =       1.2000000000000000 [-]
	 SCS Same-Spin Energy      =      -0.1270490160903299 [Eh]
	 SCS Opposite-Spin Energy  =      -1.5382701696872305 [Eh]
	 SCS Correlation Energy    =      -1.6653191857775604 [Eh]
	 SCS Total Energy          =    -385.6691942842359140 [Eh]
	-----------------------------------------------------------

  Dipole Moment: [D]
     X:    -0.1261      Y:     0.3468      Z:    -0.0792     Total:     0.3775

*** Psi4 exiting successfully. Buy a developer a beer!
