                               Psi4 1.3.2 release

  ==> Input File <==

--------------------------------------------------------------------------
#psi4
#
memory 32 gb

molecule  {
0 1
  O       -0.8946000     0.3180840    -0.2486650
  O        0.2608140    -1.4535000     0.5764690
  C        1.4621750     0.4213130    -0.3980820
  C        1.8184670     1.3890190     0.7353960
  C        2.6165010    -0.5169580    -0.7250520
  C        0.2447430    -0.3668820     0.0213200
  C       -2.0252934    -0.2868693     0.1620894
  C       -3.2536250     0.5656790    -0.2140850
  H        1.1864410     1.0054960    -1.2820320
  H        2.6888660     1.9907190     0.4595330
  H        2.0609350     0.8310830     1.6444090
  H        0.9859800     2.0639750     0.9510040
  H        3.4951390     0.0579210    -1.0318300
  H        2.3532220    -1.2022810    -1.5348280
  H        2.8748910    -1.1153660     0.1513080
  H       -2.1714740    -1.3192040    -0.2711440
  H       -2.0606790    -0.4764550     1.2759150
  H       -4.2047000     0.1215880     0.0924120
  H       -3.1592540     1.5451910     0.2586100
  H       -3.2661300     0.7008150    -1.2970470
units angstrom
no_reorient  #important for SAPT in psi4, default
symmetry c1  #important for SAPT in psi4, default
}

set PROPERTIES_ORIGIN ["COM"]
properties('MP2/aug-cc-pvtz', properties = ['dipole'])
--------------------------------------------------------------------------

    Molecular point group: c1
  Charge       = 0
  Multiplicity = 1
  Basis Set: AUG-CC-PVTZ
    Blend: AUG-CC-PVTZ
  Basis Set: (AUG-CC-PVTZ AUX)
    Blend: AUG-CC-PVTZ-JKFIT

    Orbital Energies [Eh]
    ---------------------

    Doubly Occupied:

       1A    -20.609820     2A    -20.547247     3A    -11.380349
       4A    -11.285684     5A    -11.249717     6A    -11.230188
       7A    -11.221038     8A    -11.220081     9A     -1.478112
      10A     -1.364405    11A     -1.099461    12A     -1.026316
      13A     -0.942409    14A     -0.905951    15A     -0.823230
      16A     -0.776066    17A     -0.706609    18A     -0.687324
      19A     -0.671145    20A     -0.623103    21A     -0.595643
      22A     -0.587508    23A     -0.556446    24A     -0.552866
      25A     -0.546981    26A     -0.524291    27A     -0.505876
      28A     -0.493632    29A     -0.487856    30A     -0.481702
      31A     -0.445423    32A     -0.442851

  @DF-RHF Final Energy:  -384.07763923641988

   => Energetics <=

    Nuclear Repulsion Energy =            397.4958472519783754
    One-Electron Energy =               -1311.0083106909642083
    Two-Electron Energy =                 529.4348242025658919
    Total Energy =                       -384.0776392364199410
  Basis Set: (AUG-CC-PVTZ AUX)
    Blend: AUG-CC-PVTZ-RI
    Molecular point group: c1

    Geometry (in Angstrom), charge = 0, multiplicity = 1:

       Center              X                  Y                   Z               Mass
    ------------   -----------------  -----------------  -----------------  -----------------
         O           -0.903280149242     0.313439828020    -0.245511900058    15.994914619570
         O            0.252133850758    -1.458144171980     0.579622099942    15.994914619570
         C            1.453494850758     0.416668828020    -0.394928900058    12.000000000000
         C            1.809786850758     1.384374828020     0.738549099942    12.000000000000
         C            2.607820850758    -0.521602171980    -0.721898900058    12.000000000000
         C            0.236062850758    -0.371526171980     0.024473099942    12.000000000000
         C           -2.033973549242    -0.291513471980     0.165242499942    12.000000000000
         C           -3.262305149242     0.561034828020    -0.210931900058    12.000000000000
         H            1.177760850758     1.000851828020    -1.278878900058     1.007825032230
         H            2.680185850758     1.986074828020     0.462686099942     1.007825032230
         H            2.052254850758     0.826438828020     1.647562099942     1.007825032230
         H            0.977299850758     2.059330828020     0.954157099942     1.007825032230
         H            3.486458850758     0.053276828020    -1.028676900058     1.007825032230
         H            2.344541850758    -1.206925171980    -1.531674900058     1.007825032230
         H            2.866210850758    -1.120010171980     0.154461099942     1.007825032230
         H           -2.180154149242    -1.323848171980    -0.267990900058     1.007825032230
         H           -2.069359149242    -0.481099171980     1.279068099942     1.007825032230
         H           -4.213380149242     0.116943828020     0.095565099942     1.007825032230
         H           -3.167934149242     1.540546828020     0.261763099942     1.007825032230
         H           -3.274810149242     0.696170828020    -1.293893900058     1.007825032230

  Basis Set: AUG-CC-PVTZ
    Blend: AUG-CC-PVTZ
  Basis Set: (AUG-CC-PVTZ AUX)
    Blend: AUG-CC-PVTZ-JKFIT
	 Reference Energy          =    -384.0776392364198841 [Eh]
	 Singles Energy            =      -0.0000000000000000 [Eh]
	 Same-Spin Energy          =      -0.3839645099843327 [Eh]
	 Opposite-Spin Energy      =      -1.2860303734488117 [Eh]
	 Correlation Energy        =      -1.6699948834331444 [Eh]
	 Total Energy              =    -385.7476341198530463 [Eh]

	 ================> DF-SCS-MP2 Energies <==================
	-----------------------------------------------------------
	 SCS Same-Spin Scale       =       0.3333333333333333 [-]
	 SCS Opposite-Spin Scale   =       1.2000000000000000 [-]
	 SCS Same-Spin Energy      =      -0.1279881699947776 [Eh]
	 SCS Opposite-Spin Energy  =      -1.5432364481385739 [Eh]
	 SCS Correlation Energy    =      -1.6712246181333514 [Eh]
	 SCS Total Energy          =    -385.7488638545532353 [Eh]
	-----------------------------------------------------------

  Dipole Moment: [D]
     X:    -0.2488      Y:     1.6574      Z:    -0.6676     Total:     1.8040

*** Psi4 exiting successfully. Buy a developer a beer!
