                               Psi4 1.3.2 release

  ==> Input File <==

--------------------------------------------------------------------------
#psi4
#
memory 32 gb

molecule  {
0 1
  O       -0.8946000     0.3180840    -0.2486650
  O        0.2821057    -1.4532021     0.5760272
  C        1.4775684     0.4021864    -0.3885158
  C        1.8184670     1.3890190     0.7353960
  C        2.6165010    -0.5169580    -0.7250520
  C        0.2447430    -0.3668820     0.0213200
  C       -2.1092640    -0.3317960     0.1925940
  C       -3.2536250     0.5656790    -0.2140850
  H        1.1864410     1.0054960    -1.2820320
  H        2.6888660     1.9907190     0.4595330
  H        2.0609350     0.8310830     1.6444090
  H        0.9859800     2.0639750     0.9510040
  H        3.4951390     0.0579210    -1.0318300
  H        2.3532220    -1.2022810    -1.5348280
  H        2.8748910    -1.1153660     0.1513080
  H       -2.1714740    -1.3192040    -0.2711440
  H       -2.0606790    -0.4764550     1.2759150
  H       -4.2047000     0.1215880     0.0924120
  H       -3.1592540     1.5451910     0.2586100
  H       -3.2661300     0.7008150    -1.2970470
units angstrom
no_reorient  #important for SAPT in psi4, default
symmetry c1  #important for SAPT in psi4, default
}

set PROPERTIES_ORIGIN ["COM"]
properties('MP2/aug-cc-pvtz', properties = ['dipole'])
--------------------------------------------------------------------------

    Molecular point group: c1
  Charge       = 0
  Multiplicity = 1
  Basis Set: AUG-CC-PVTZ
    Blend: AUG-CC-PVTZ
  Basis Set: (AUG-CC-PVTZ AUX)
    Blend: AUG-CC-PVTZ-JKFIT

    Orbital Energies [Eh]
    ---------------------

    Doubly Occupied:

       1A    -20.601298     2A    -20.539948     3A    -11.373474
       4A    -11.287681     5A    -11.245489     6A    -11.226785
       7A    -11.224700     8A    -11.215834     9A     -1.449869
      10A     -1.350336    11A     -1.094907    12A     -1.035769
      13A     -0.940799    14A     -0.894928    15A     -0.828319
      16A     -0.761616    17A     -0.697226    18A     -0.678569
      19A     -0.660793    20A     -0.620985    21A     -0.591371
      22A     -0.584338    23A     -0.556346    24A     -0.549544
      25A     -0.544493    26A     -0.519904    27A     -0.510432
      28A     -0.506219    29A     -0.492561    30A     -0.475769
      31A     -0.456124    32A     -0.434485

  @DF-RHF Final Energy:  -384.08481459916896

   => Energetics <=

    Nuclear Repulsion Energy =            395.8757965770418537
    One-Electron Energy =               -1308.0193909774886833
    Two-Electron Energy =                 528.0587798012777512
    Total Energy =                       -384.0848145991690217
  Basis Set: (AUG-CC-PVTZ AUX)
    Blend: AUG-CC-PVTZ-RI
    Molecular point group: c1

    Geometry (in Angstrom), charge = 0, multiplicity = 1:

       Center              X                  Y                   Z               Mass
    ------------   -----------------  -----------------  -----------------  -----------------
         O           -0.899124808283     0.320020205110    -0.249593290691    15.994914619570
         O            0.277580891717    -1.451265894890     0.575098909309    15.994914619570
         C            1.473043591717     0.404122605110    -0.389444090691    12.000000000000
         C            1.813942191717     1.390955205110     0.734467709309    12.000000000000
         C            2.611976191717    -0.515021794890    -0.725980290691    12.000000000000
         C            0.240218191717    -0.364945794890     0.020391709309    12.000000000000
         C           -2.113788808283    -0.329859794890     0.191665709309    12.000000000000
         C           -3.258149808283     0.567615205110    -0.215013290691    12.000000000000
         H            1.181916191717     1.007432205110    -1.282960290691     1.007825032230
         H            2.684341191717     1.992655205110     0.458604709309     1.007825032230
         H            2.056410191717     0.833019205110     1.643480709309     1.007825032230
         H            0.981455191717     2.065911205110     0.950075709309     1.007825032230
         H            3.490614191717     0.059857205110    -1.032758290691     1.007825032230
         H            2.348697191717    -1.200344794890    -1.535756290691     1.007825032230
         H            2.870366191717    -1.113429794890     0.150379709309     1.007825032230
         H           -2.175998808283    -1.317267794890    -0.272072290691     1.007825032230
         H           -2.065203808283    -0.474518794890     1.274986709309     1.007825032230
         H           -4.209224808283     0.123524205110     0.091483709309     1.007825032230
         H           -3.163778808283     1.547127205110     0.257681709309     1.007825032230
         H           -3.270654808283     0.702751205110    -1.297975290691     1.007825032230

  Basis Set: AUG-CC-PVTZ
    Blend: AUG-CC-PVTZ
  Basis Set: (AUG-CC-PVTZ AUX)
    Blend: AUG-CC-PVTZ-JKFIT
	 Reference Energy          =    -384.0848145991689648 [Eh]
	 Singles Energy            =      -0.0000000000000000 [Eh]
	 Same-Spin Energy          =      -0.3839664604199223 [Eh]
	 Opposite-Spin Energy      =      -1.2867882077405062 [Eh]
	 Correlation Energy        =      -1.6707546681604284 [Eh]
	 Total Energy              =    -385.7555692673294061 [Eh]

	 ================> DF-SCS-MP2 Energies <==================
	-----------------------------------------------------------
	 SCS Same-Spin Scale       =       0.3333333333333333 [-]
	 SCS Opposite-Spin Scale   =       1.2000000000000000 [-]
	 SCS Same-Spin Energy      =      -0.1279888201399741 [Eh]
	 SCS Opposite-Spin Energy  =      -1.5441458492886073 [Eh]
	 SCS Correlation Energy    =      -1.6721346694285815 [Eh]
	 SCS Total Energy          =    -385.7569492685975661 [Eh]
	-----------------------------------------------------------

  Dipole Moment: [D]
     X:    -0.7732      Y:     1.5786      Z:    -0.6022     Total:     1.8581

*** Psi4 exiting successfully. Buy a developer a beer!
