                               Psi4 1.3.2 release

  ==> Input File <==

--------------------------------------------------------------------------
#psi4
#
memory 32 gb

molecule  {
0 1
  O       -0.8946000     0.3180840    -0.2486650
  O        0.2608140    -1.4535000     0.5764690
  C        1.4621750     0.4213130    -0.3980820
  C        1.8184670     1.3890190     0.7353960
  C        2.6165010    -0.5169580    -0.7250520
  C        0.2447430    -0.3668820     0.0213200
  C       -2.1092640    -0.3317960     0.1925940
  C       -3.2536250     0.5656790    -0.2140850
  H        1.2116260     0.9521380    -1.2012939
  H        2.6888660     1.9907190     0.4595330
  H        2.0609350     0.8310830     1.6444090
  H        0.9859800     2.0639750     0.9510040
  H        3.4951390     0.0579210    -1.0318300
  H        2.3532220    -1.2022810    -1.5348280
  H        2.8748910    -1.1153660     0.1513080
  H       -2.1714740    -1.3192040    -0.2711440
  H       -2.0606790    -0.4764550     1.2759150
  H       -4.2047000     0.1215880     0.0924120
  H       -3.1592540     1.5451910     0.2586100
  H       -3.2661300     0.7008150    -1.2970470
units angstrom
no_reorient  #important for SAPT in psi4, default
symmetry c1  #important for SAPT in psi4, default
}

set PROPERTIES_ORIGIN ["COM"]
properties('MP2/aug-cc-pvtz', properties = ['dipole'])
--------------------------------------------------------------------------

    Molecular point group: c1
  Charge       = 0
  Multiplicity = 1
  Basis Set: AUG-CC-PVTZ
    Blend: AUG-CC-PVTZ
  Basis Set: (AUG-CC-PVTZ AUX)
    Blend: AUG-CC-PVTZ-JKFIT

    Orbital Energies [Eh]
    ---------------------

    Doubly Occupied:

       1A    -20.599699     2A    -20.539491     3A    -11.372669
       4A    -11.286663     5A    -11.233426     6A    -11.226503
       7A    -11.224072     8A    -11.216494     9A     -1.449860
      10A     -1.348509    11A     -1.099268    12A     -1.034954
      13A     -0.938808    14A     -0.896191    15A     -0.831801
      16A     -0.766308    17A     -0.708021    18A     -0.677985
      19A     -0.662006    20A     -0.621114    21A     -0.590919
      22A     -0.583518    23A     -0.555450    24A     -0.549661
      25A     -0.544150    26A     -0.519470    27A     -0.509855
      28A     -0.505674    29A     -0.495718    30A     -0.482603
      31A     -0.455320    32A     -0.435889

  @DF-RHF Final Energy:  -384.08015710855489

   => Energetics <=

    Nuclear Repulsion Energy =            396.3487902536441538
    One-Electron Energy =               -1308.9337556902660253
    Two-Electron Energy =                 528.5048083280669289
    Total Energy =                       -384.0801571085548858
  Basis Set: (AUG-CC-PVTZ AUX)
    Blend: AUG-CC-PVTZ-RI
    Molecular point group: c1

    Geometry (in Angstrom), charge = 0, multiplicity = 1:

       Center              X                  Y                   Z               Mass
    ------------   -----------------  -----------------  -----------------  -----------------
         O           -0.894818454138     0.318547313195    -0.249366230718    15.994914619570
         O            0.260595545862    -1.453036686805     0.575767769282    15.994914619570
         C            1.461956545862     0.421776313195    -0.398783230718    12.000000000000
         C            1.818248545862     1.389482313195     0.734694769282    12.000000000000
         C            2.616282545862    -0.516494686805    -0.725753230718    12.000000000000
         C            0.244524545862    -0.366418686805     0.020618769282    12.000000000000
         C           -2.109482454138    -0.331332686805     0.191892769282    12.000000000000
         C           -3.253843454138     0.566142313195    -0.214786230718    12.000000000000
         H            1.211407545862     0.952601313195    -1.201995130718     1.007825032230
         H            2.688647545862     1.991182313195     0.458831769282     1.007825032230
         H            2.060716545862     0.831546313195     1.643707769282     1.007825032230
         H            0.985761545862     2.064438313195     0.950302769282     1.007825032230
         H            3.494920545862     0.058384313195    -1.032531230718     1.007825032230
         H            2.353003545862    -1.201817686805    -1.535529230718     1.007825032230
         H            2.874672545862    -1.114902686805     0.150606769282     1.007825032230
         H           -2.171692454138    -1.318740686805    -0.271845230718     1.007825032230
         H           -2.060897454138    -0.475991686805     1.275213769282     1.007825032230
         H           -4.204918454138     0.122051313195     0.091710769282     1.007825032230
         H           -3.159472454138     1.545654313195     0.257908769282     1.007825032230
         H           -3.266348454138     0.701278313195    -1.297748230718     1.007825032230

  Basis Set: AUG-CC-PVTZ
    Blend: AUG-CC-PVTZ
  Basis Set: (AUG-CC-PVTZ AUX)
    Blend: AUG-CC-PVTZ-JKFIT
	 Reference Energy          =    -384.0801571085548858 [Eh]
	 Singles Energy            =      -0.0000000000000000 [Eh]
	 Same-Spin Energy          =      -0.3837880794730967 [Eh]
	 Opposite-Spin Energy      =      -1.2860627987134561 [Eh]
	 Correlation Energy        =      -1.6698508781865526 [Eh]
	 Total Energy              =    -385.7500079867414229 [Eh]

	 ================> DF-SCS-MP2 Energies <==================
	-----------------------------------------------------------
	 SCS Same-Spin Scale       =       0.3333333333333333 [-]
	 SCS Opposite-Spin Scale   =       1.2000000000000000 [-]
	 SCS Same-Spin Energy      =      -0.1279293598243655 [Eh]
	 SCS Opposite-Spin Energy  =      -1.5432753584561472 [Eh]
	 SCS Correlation Energy    =      -1.6712047182805128 [Eh]
	 SCS Total Energy          =    -385.7513618268354207 [Eh]
	-----------------------------------------------------------

  Dipole Moment: [D]
     X:    -0.7185      Y:     1.6119      Z:    -0.6366     Total:     1.8761

*** Psi4 exiting successfully. Buy a developer a beer!
