                               Psi4 1.3.2 release

  ==> Input File <==

--------------------------------------------------------------------------
#psi4
#
memory 32 gb

molecule  {
0 1
  O       -0.8946000     0.3180840    -0.2486650
  O        0.2608140    -1.4535000     0.5764690
  C        1.4621750     0.4213130    -0.3980820
  C        1.8184670     1.3890190     0.7353960
  C        2.6165010    -0.5169580    -0.7250520
  C        0.2447430    -0.3668820     0.0213200
  C       -2.1932346    -0.3767227     0.2230986
  C       -3.2536250     0.5656790    -0.2140850
  H        1.1864410     1.0054960    -1.2820320
  H        2.6888660     1.9907190     0.4595330
  H        2.0609350     0.8310830     1.6444090
  H        0.9859800     2.0639750     0.9510040
  H        3.4951390     0.0579210    -1.0318300
  H        2.3532220    -1.2022810    -1.5348280
  H        2.8748910    -1.1153660     0.1513080
  H       -2.1714740    -1.3192040    -0.2711440
  H       -2.0606790    -0.4764550     1.2759150
  H       -4.2047000     0.1215880     0.0924120
  H       -3.1592540     1.5451910     0.2586100
  H       -3.2661300     0.7008150    -1.2970470
units angstrom
no_reorient  #important for SAPT in psi4, default
symmetry c1  #important for SAPT in psi4, default
}

set PROPERTIES_ORIGIN ["COM"]
properties('MP2/aug-cc-pvtz', properties = ['dipole'])
--------------------------------------------------------------------------

    Molecular point group: c1
  Charge       = 0
  Multiplicity = 1
  Basis Set: AUG-CC-PVTZ
    Blend: AUG-CC-PVTZ
  Basis Set: (AUG-CC-PVTZ AUX)
    Blend: AUG-CC-PVTZ-JKFIT

    Orbital Energies [Eh]
    ---------------------

    Doubly Occupied:

       1A    -20.587439     2A    -20.533459     3A    -11.366545
       4A    -11.291315     5A    -11.241364     6A    -11.228049
       7A    -11.224118     8A    -11.214180     9A     -1.429774
      10A     -1.333118    11A     -1.089857    12A     -1.044346
      13A     -0.936194    14A     -0.887666    15A     -0.834305
      16A     -0.747892    17A     -0.691612    18A     -0.675571
      19A     -0.652149    20A     -0.617191    21A     -0.591906
      22A     -0.580159    23A     -0.552810    24A     -0.545647
      25A     -0.542943    26A     -0.532882    27A     -0.513480
      28A     -0.499878    29A     -0.485147    30A     -0.478946
      31A     -0.453588    32A     -0.428878

  @DF-RHF Final Energy:  -384.07727223433307

   => Energetics <=

    Nuclear Repulsion Energy =            394.2513590495250924
    One-Electron Energy =               -1304.9924477204585855
    Two-Electron Energy =                 526.6638164366005412
    Total Energy =                       -384.0772722343330088
  Basis Set: (AUG-CC-PVTZ AUX)
    Blend: AUG-CC-PVTZ-RI
    Molecular point group: c1

    Geometry (in Angstrom), charge = 0, multiplicity = 1:

       Center              X                  Y                   Z               Mass
    ------------   -----------------  -----------------  -----------------  -----------------
         O           -0.885919452730     0.322728302843    -0.251818644357    15.994914619570
         O            0.269494547270    -1.448855697157     0.573315355643    15.994914619570
         C            1.470855547270     0.425957302843    -0.401235644357    12.000000000000
         C            1.827147547270     1.393663302843     0.732242355643    12.000000000000
         C            2.625181547270    -0.512313697157    -0.728205644357    12.000000000000
         C            0.253423547270    -0.362237697157     0.018166355643    12.000000000000
         C           -2.184554052730    -0.372078397157     0.219944955643    12.000000000000
         C           -3.244944452730     0.570323302843    -0.217238644357    12.000000000000
         H            1.195121547270     1.010140302843    -1.285185644357     1.007825032230
         H            2.697546547270     1.995363302843     0.456379355643     1.007825032230
         H            2.069615547270     0.835727302843     1.641255355643     1.007825032230
         H            0.994660547270     2.068619302843     0.947850355643     1.007825032230
         H            3.503819547270     0.062565302843    -1.034983644357     1.007825032230
         H            2.361902547270    -1.197636697157    -1.537981644357     1.007825032230
         H            2.883571547270    -1.110721697157     0.148154355643     1.007825032230
         H           -2.162793452730    -1.314559697157    -0.274297644357     1.007825032230
         H           -2.051998452730    -0.471810697157     1.272761355643     1.007825032230
         H           -4.196019452730     0.126232302843     0.089258355643     1.007825032230
         H           -3.150573452730     1.549835302843     0.255456355643     1.007825032230
         H           -3.257449452730     0.705459302843    -1.300200644357     1.007825032230

  Basis Set: AUG-CC-PVTZ
    Blend: AUG-CC-PVTZ
  Basis Set: (AUG-CC-PVTZ AUX)
    Blend: AUG-CC-PVTZ-JKFIT
	 Reference Energy          =    -384.0772722343330656 [Eh]
	 Singles Energy            =      -0.0000000000000000 [Eh]
	 Same-Spin Energy          =      -0.3843377208188415 [Eh]
	 Opposite-Spin Energy      =      -1.2881485000958386 [Eh]
	 Correlation Energy        =      -1.6724862209146800 [Eh]
	 Total Energy              =    -385.7497584552477292 [Eh]

	 ================> DF-SCS-MP2 Energies <==================
	-----------------------------------------------------------
	 SCS Same-Spin Scale       =       0.3333333333333333 [-]
	 SCS Opposite-Spin Scale   =       1.2000000000000000 [-]
	 SCS Same-Spin Energy      =      -0.1281125736062805 [Eh]
	 SCS Opposite-Spin Energy  =      -1.5457782001150062 [Eh]
	 SCS Correlation Energy    =      -1.6738907737212867 [Eh]
	 SCS Total Energy          =    -385.7511630080543341 [Eh]
	-----------------------------------------------------------

  Dipole Moment: [D]
     X:    -1.1381      Y:     1.5491      Z:    -0.5608     Total:     2.0023

*** Psi4 exiting successfully. Buy a developer a beer!
