                               Psi4 1.4a3.dev225

  ==> Input File <==

--------------------------------------------------------------------------
#psi4
#
memory 32 gb

molecule  {
0 1
  O       -0.8844740     0.2512200    -0.2589860
  O        0.2594420    -1.5357810     0.5540110
  C        1.4751410     0.3499910    -0.3991000
  C        1.6512021     1.5576256     0.5627399
  C        2.7076510    -0.5454760    -0.4239080
  C        0.2527860    -0.4396860     0.0153880
  C       -2.1066380    -0.4073920     0.1545600
  C       -3.2437300     0.5134160    -0.2249800
  H        1.2747850     0.7394360    -1.4046030
  H        2.5199720     2.1341380     0.2549160
  H        1.8085970     1.1898350     1.5745190
  H        0.7675450     2.1869880     0.5363060
  H        3.5809030     0.0268420    -0.7502520
  H        2.5706130    -1.3892510    -1.1045820
  H        2.9042310    -0.9491700     0.5720060
  H       -2.1727950    -1.3769310    -0.3467220
  H       -2.0631380    -0.5911830     1.2316620
  H       -4.1987120     0.0656950     0.0643780
  H       -3.1432900     1.4757990     0.2814060
  H       -3.2533220     0.6866720    -1.3031500
units angstrom
no_reorient  #important for SAPT in psi4, default
symmetry c1  #important for SAPT in psi4, default
}

set PROPERTIES_ORIGIN ["COM"]
properties('MP2/aug-cc-pvtz', properties = ['dipole'])
--------------------------------------------------------------------------

    Molecular point group: c1
  Charge       = 0
  Multiplicity = 1
  Basis Set: AUG-CC-PVTZ
    Blend: AUG-CC-PVTZ
  Basis Set: (AUG-CC-PVTZ AUX)
    Blend: AUG-CC-PVTZ-JKFIT

    Orbital Energies [Eh]
    ---------------------

    Doubly Occupied:

       1A    -20.598427     2A    -20.540966     3A    -11.374021
       4A    -11.286904     5A    -11.247580     6A    -11.226439
       7A    -11.224331     8A    -11.216055     9A     -1.448315
      10A     -1.348112    11A     -1.090774    12A     -1.033515
      13A     -0.938832    14A     -0.894554    15A     -0.829186
      16A     -0.761018    17A     -0.696733    18A     -0.676699
      19A     -0.661624    20A     -0.620655    21A     -0.586710
      22A     -0.582156    23A     -0.556387    24A     -0.549032
      25A     -0.546951    26A     -0.518363    27A     -0.509289
      28A     -0.505763    29A     -0.491753    30A     -0.477567
      31A     -0.455325    32A     -0.436322

  @DF-RHF Final Energy:  -384.08546612685092

   => Energetics <=

    Nuclear Repulsion Energy =            395.4315439998067632
    One-Electron Energy =               -1307.1733033272976172
    Two-Electron Energy =                 527.6562932006398796
    Total Energy =                       -384.0854661268509744
  Basis Set: (AUG-CC-PVTZ AUX)
    Blend: AUG-CC-PVTZ-RI
    Molecular point group: c1

    Geometry (in Angstrom), charge = 0, multiplicity = 1:

       Center              X                  Y                   Z               Mass
    ------------   -----------------  -----------------  -----------------  -----------------
         O           -0.879646964048     0.285445072182    -0.263621434414    15.994914619570
         O            0.264269035952    -1.501555927818     0.549375565586    15.994914619570
         C            1.479968035952     0.384216072182    -0.403735434414    12.000000000000
         C            1.656029135952     1.591850672182     0.558104465586    12.000000000000
         C            2.712478035952    -0.511250927818    -0.428543434414    12.000000000000
         C            0.257613035952    -0.405460927818     0.010752565586    12.000000000000
         C           -2.101810964048    -0.373166927818     0.149924565586    12.000000000000
         C           -3.238902964048     0.547641072182    -0.229615434414    12.000000000000
         H            1.279612035952     0.773661072182    -1.409238434414     1.007825032230
         H            2.524799035952     2.168363072182     0.250280565586     1.007825032230
         H            1.813424035952     1.224060072182     1.569883565586     1.007825032230
         H            0.772372035952     2.221213072182     0.531670565586     1.007825032230
         H            3.585730035952     0.061067072182    -0.754887434414     1.007825032230
         H            2.575440035952    -1.355025927818    -1.109217434414     1.007825032230
         H            2.909058035952    -0.914944927818     0.567370565586     1.007825032230
         H           -2.167967964048    -1.342705927818    -0.351357434414     1.007825032230
         H           -2.058310964048    -0.556957927818     1.227026565586     1.007825032230
         H           -4.193884964048     0.099920072182     0.059742565586     1.007825032230
         H           -3.138462964048     1.510024072182     0.276770565586     1.007825032230
         H           -3.248494964048     0.720897072182    -1.307785434414     1.007825032230

  Basis Set: AUG-CC-PVTZ
    Blend: AUG-CC-PVTZ
  Basis Set: (AUG-CC-PVTZ AUX)
    Blend: AUG-CC-PVTZ-JKFIT
	 Reference Energy          =    -384.0854661268509176 [Eh]
	 Singles Energy            =      -0.0000000000000000 [Eh]
	 Same-Spin Energy          =      -0.3836938984677233 [Eh]
	 Opposite-Spin Energy      =      -1.2866411520635226 [Eh]
	 Correlation Energy        =      -1.6703350505312460 [Eh]
	 Total Energy              =    -385.7558011773821818 [Eh]

	 ================> DF-SCS-MP2 Energies <==================
	-----------------------------------------------------------
	 SCS Same-Spin Scale       =       0.3333333333333333 [-]
	 SCS Opposite-Spin Scale   =       1.2000000000000000 [-]
	 SCS Same-Spin Energy      =      -0.1278979661559078 [Eh]
	 SCS Opposite-Spin Energy  =      -1.5439693824762271 [Eh]
	 SCS Correlation Energy    =      -1.6718673486321349 [Eh]
	 SCS Total Energy          =    -385.7573334754830512 [Eh]
	-----------------------------------------------------------

  Dipole Moment: [D]
     X:    -0.7138      Y:     1.6116      Z:    -0.6314     Total:     1.8723

*** Psi4 exiting successfully. Buy a developer a beer!
