                               Psi4 1.3.2 release

  ==> Input File <==

--------------------------------------------------------------------------
#psi4
#
memory 32 gb

molecule  {
0 1
  O       -0.8946000     0.3180840    -0.2486650
  O        0.2608140    -1.4535000     0.5764690
  C        1.4621750     0.4213130    -0.3980820
  C        1.8081247     1.3844050     0.7425073
  C        2.6165010    -0.5169580    -0.7250520
  C        0.2445281    -0.3603522     0.0327608
  C       -2.1092640    -0.3317960     0.1925940
  C       -3.2536250     0.5656790    -0.2140850
  H        1.1864410     1.0054960    -1.2820320
  H        2.6888660     1.9907190     0.4595330
  H        2.0609350     0.8310830     1.6444090
  H        0.9859800     2.0639750     0.9510040
  H        3.4951390     0.0579210    -1.0318300
  H        2.3532220    -1.2022810    -1.5348280
  H        2.8748910    -1.1153660     0.1513080
  H       -2.1714740    -1.3192040    -0.2711440
  H       -2.0606790    -0.4764550     1.2759150
  H       -4.2047000     0.1215880     0.0924120
  H       -3.1592540     1.5451910     0.2586100
  H       -3.2661300     0.7008150    -1.2970470
units angstrom
no_reorient  #important for SAPT in psi4, default
symmetry c1  #important for SAPT in psi4, default
}

set PROPERTIES_ORIGIN ["COM"]
properties('MP2/aug-cc-pvtz', properties = ['dipole'])
--------------------------------------------------------------------------

    Molecular point group: c1
  Charge       = 0
  Multiplicity = 1
  Basis Set: AUG-CC-PVTZ
    Blend: AUG-CC-PVTZ
  Basis Set: (AUG-CC-PVTZ AUX)
    Blend: AUG-CC-PVTZ-JKFIT

    Orbital Energies [Eh]
    ---------------------

    Doubly Occupied:

       1A    -20.599627     2A    -20.539682     3A    -11.373263
       4A    -11.286594     5A    -11.245645     6A    -11.227196
       7A    -11.224036     8A    -11.217380     9A     -1.450069
      10A     -1.348481    11A     -1.094545    12A     -1.034750
      13A     -0.939700    14A     -0.894962    15A     -0.828283
      16A     -0.762094    17A     -0.699217    18A     -0.677953
      19A     -0.660918    20A     -0.620226    21A     -0.591049
      22A     -0.583328    23A     -0.555583    24A     -0.550667
      25A     -0.542480    26A     -0.518876    27A     -0.509162
      28A     -0.505906    29A     -0.490819    30A     -0.481589
      31A     -0.455327    32A     -0.435035

  @DF-RHF Final Energy:  -384.08567579042358

   => Energetics <=

    Nuclear Repulsion Energy =            395.9133460768911732
    One-Electron Energy =               -1308.1091655565228393
    Two-Electron Energy =                 528.1101436892080301
    Total Energy =                       -384.0856757904235792
  Basis Set: (AUG-CC-PVTZ AUX)
    Blend: AUG-CC-PVTZ-RI
    Molecular point group: c1

    Geometry (in Angstrom), charge = 0, multiplicity = 1:

       Center              X                  Y                   Z               Mass
    ------------   -----------------  -----------------  -----------------  -----------------
         O           -0.893508464582     0.317886022174    -0.250583070686    15.994914619570
         O            0.261905535418    -1.453697977826     0.574550929314    15.994914619570
         C            1.463266535418     0.421115022174    -0.400000070686    12.000000000000
         C            1.809216235418     1.384207022174     0.740589229314    12.000000000000
         C            2.617592535418    -0.517155977826    -0.726970070686    12.000000000000
         C            0.245619635418    -0.360550177826     0.030842729314    12.000000000000
         C           -2.108172464582    -0.331993977826     0.190675929314    12.000000000000
         C           -3.252533464582     0.565481022174    -0.216003070686    12.000000000000
         H            1.187532535418     1.005298022174    -1.283950070686     1.007825032230
         H            2.689957535418     1.990521022174     0.457614929314     1.007825032230
         H            2.062026535418     0.830885022174     1.642490929314     1.007825032230
         H            0.987071535418     2.063777022174     0.949085929314     1.007825032230
         H            3.496230535418     0.057723022174    -1.033748070686     1.007825032230
         H            2.354313535418    -1.202478977826    -1.536746070686     1.007825032230
         H            2.875982535418    -1.115563977826     0.149389929314     1.007825032230
         H           -2.170382464582    -1.319401977826    -0.273062070686     1.007825032230
         H           -2.059587464582    -0.476652977826     1.273996929314     1.007825032230
         H           -4.203608464582     0.121390022174     0.090493929314     1.007825032230
         H           -3.158162464582     1.544993022174     0.256691929314     1.007825032230
         H           -3.265038464582     0.700617022174    -1.298965070686     1.007825032230

  Basis Set: AUG-CC-PVTZ
    Blend: AUG-CC-PVTZ
  Basis Set: (AUG-CC-PVTZ AUX)
    Blend: AUG-CC-PVTZ-JKFIT
	 Reference Energy          =    -384.0856757904235792 [Eh]
	 Singles Energy            =      -0.0000000000000000 [Eh]
	 Same-Spin Energy          =      -0.3838834822044030 [Eh]
	 Opposite-Spin Energy      =      -1.2866395242803303 [Eh]
	 Correlation Energy        =      -1.6705230064847334 [Eh]
	 Total Energy              =    -385.7561987969083361 [Eh]

	 ================> DF-SCS-MP2 Energies <==================
	-----------------------------------------------------------
	 SCS Same-Spin Scale       =       0.3333333333333333 [-]
	 SCS Opposite-Spin Scale   =       1.2000000000000000 [-]
	 SCS Same-Spin Energy      =      -0.1279611607348010 [Eh]
	 SCS Opposite-Spin Energy  =      -1.5439674291363963 [Eh]
	 SCS Correlation Energy    =      -1.6719285898711973 [Eh]
	 SCS Total Energy          =    -385.7576043802947652 [Eh]
	-----------------------------------------------------------

  Dipole Moment: [D]
     X:    -0.7095      Y:     1.6025      Z:    -0.6019     Total:     1.8530

*** Psi4 exiting successfully. Buy a developer a beer!
