                               Psi4 1.3.2 release

  ==> Input File <==

--------------------------------------------------------------------------
#psi4
#
memory 32 gb

molecule  {
0 1
  O       -0.9071893     0.3006115    -0.2388286
  O        0.2395580    -1.4529742     0.5777050
  C        1.4621750     0.4213130    -0.3980820
  C        1.8184670     1.3890190     0.7353960
  C        2.6165010    -0.5169580    -0.7250520
  C        0.2447430    -0.3668820     0.0213200
  C       -2.1092640    -0.3317960     0.1925940
  C       -3.2536250     0.5656790    -0.2140850
  H        1.1864410     1.0054960    -1.2820320
  H        2.6888660     1.9907190     0.4595330
  H        2.0609350     0.8310830     1.6444090
  H        0.9859800     2.0639750     0.9510040
  H        3.4951390     0.0579210    -1.0318300
  H        2.3532220    -1.2022810    -1.5348280
  H        2.8748910    -1.1153660     0.1513080
  H       -2.1714740    -1.3192040    -0.2711440
  H       -2.0606790    -0.4764550     1.2759150
  H       -4.2047000     0.1215880     0.0924120
  H       -3.1592540     1.5451910     0.2586100
  H       -3.2661300     0.7008150    -1.2970470
units angstrom
no_reorient  #important for SAPT in psi4, default
symmetry c1  #important for SAPT in psi4, default
}

set PROPERTIES_ORIGIN ["COM"]
properties('MP2/aug-cc-pvtz', properties = ['dipole'])
--------------------------------------------------------------------------

    Molecular point group: c1
  Charge       = 0
  Multiplicity = 1
  Basis Set: AUG-CC-PVTZ
    Blend: AUG-CC-PVTZ
  Basis Set: (AUG-CC-PVTZ AUX)
    Blend: AUG-CC-PVTZ-JKFIT

    Orbital Energies [Eh]
    ---------------------

    Doubly Occupied:

       1A    -20.596838     2A    -20.539531     3A    -11.374112
       4A    -11.283200     5A    -11.248338     6A    -11.228539
       7A    -11.222498     8A    -11.218865     9A     -1.453401
      10A     -1.348575    11A     -1.096348    12A     -1.033879
      13A     -0.940808    14A     -0.897414    15A     -0.828007
      16A     -0.763346    17A     -0.700699    18A     -0.679449
      19A     -0.661389    20A     -0.620771    21A     -0.590678
      22A     -0.585000    23A     -0.555373    24A     -0.550113
      25A     -0.545150    26A     -0.520132    27A     -0.507229
      28A     -0.504293    29A     -0.491236    30A     -0.481864
      31A     -0.452404    32A     -0.437323

  @DF-RHF Final Energy:  -384.08650383904256

   => Energetics <=

    Nuclear Repulsion Energy =            396.1387218425689412
    One-Electron Energy =               -1308.5368473335361159
    Two-Electron Energy =                 528.3116216519247246
    Total Energy =                       -384.0865038390425070
  Basis Set: (AUG-CC-PVTZ AUX)
    Blend: AUG-CC-PVTZ-RI
    Molecular point group: c1

    Geometry (in Angstrom), charge = 0, multiplicity = 1:

       Center              X                  Y                   Z               Mass
    ------------   -----------------  -----------------  -----------------  -----------------
         O           -0.902525633629     0.302946612905    -0.240354513167    15.994914619570
         O            0.244221666371    -1.450639087095     0.576179086833    15.994914619570
         C            1.466838666371     0.423648112905    -0.399607913167    12.000000000000
         C            1.823130666371     1.391354112905     0.733870086833    12.000000000000
         C            2.621164666371    -0.514622887095    -0.726577913167    12.000000000000
         C            0.249406666371    -0.364546887095     0.019794086833    12.000000000000
         C           -2.104600333629    -0.329460887095     0.191068086833    12.000000000000
         C           -3.248961333629     0.568014112905    -0.215610913167    12.000000000000
         H            1.191104666371     1.007831112905    -1.283557913167     1.007825032230
         H            2.693529666371     1.993054112905     0.458007086833     1.007825032230
         H            2.065598666371     0.833418112905     1.642883086833     1.007825032230
         H            0.990643666371     2.066310112905     0.949478086833     1.007825032230
         H            3.499802666371     0.060256112905    -1.033355913167     1.007825032230
         H            2.357885666371    -1.199945887095    -1.536353913167     1.007825032230
         H            2.879554666371    -1.113030887095     0.149782086833     1.007825032230
         H           -2.166810333629    -1.316868887095    -0.272669913167     1.007825032230
         H           -2.056015333629    -0.474119887095     1.274389086833     1.007825032230
         H           -4.200036333629     0.123923112905     0.090886086833     1.007825032230
         H           -3.154590333629     1.547526112905     0.257084086833     1.007825032230
         H           -3.261466333629     0.703150112905    -1.298572913167     1.007825032230

  Basis Set: AUG-CC-PVTZ
    Blend: AUG-CC-PVTZ
  Basis Set: (AUG-CC-PVTZ AUX)
    Blend: AUG-CC-PVTZ-JKFIT
	 Reference Energy          =    -384.0865038390425639 [Eh]
	 Singles Energy            =      -0.0000000000000000 [Eh]
	 Same-Spin Energy          =      -0.3836795507590326 [Eh]
	 Opposite-Spin Energy      =      -1.2859340040426155 [Eh]
	 Correlation Energy        =      -1.6696135548016482 [Eh]
	 Total Energy              =    -385.7561173938441925 [Eh]

	 ================> DF-SCS-MP2 Energies <==================
	-----------------------------------------------------------
	 SCS Same-Spin Scale       =       0.3333333333333333 [-]
	 SCS Opposite-Spin Scale   =       1.2000000000000000 [-]
	 SCS Same-Spin Energy      =      -0.1278931835863442 [Eh]
	 SCS Opposite-Spin Energy  =      -1.5431208048511385 [Eh]
	 SCS Correlation Energy    =      -1.6710139884374826 [Eh]
	 SCS Total Energy          =    -385.7575178274800578 [Eh]
	-----------------------------------------------------------

  Dipole Moment: [D]
     X:    -0.5390      Y:     1.6412      Z:    -0.6391     Total:     1.8419

*** Psi4 exiting successfully. Buy a developer a beer!
