                               Psi4 1.3.2 release

  ==> Input File <==

--------------------------------------------------------------------------
#psi4
#
memory 32 gb

molecule  {
0 1
  O       -0.8946000     0.3180840    -0.2486650
  O        0.2608140    -1.4535000     0.5764690
  C        1.4621750     0.4213130    -0.3980820
  C        1.8184670     1.3890190     0.7353960
  C        2.6165010    -0.5169580    -0.7250520
  C        0.2727445    -0.3872274     0.0610559
  C       -2.1092640    -0.3317960     0.1925940
  C       -3.2536250     0.5656790    -0.2140850
  H        1.2219295     1.0196436    -1.2829262
  H        2.6888660     1.9907190     0.4595330
  H        2.0609350     0.8310830     1.6444090
  H        0.9859800     2.0639750     0.9510040
  H        3.4951390     0.0579210    -1.0318300
  H        2.3532220    -1.2022810    -1.5348280
  H        2.8748910    -1.1153660     0.1513080
  H       -2.1714740    -1.3192040    -0.2711440
  H       -2.0606790    -0.4764550     1.2759150
  H       -4.2047000     0.1215880     0.0924120
  H       -3.1592540     1.5451910     0.2586100
  H       -3.2661300     0.7008150    -1.2970470
units angstrom
no_reorient  #important for SAPT in psi4, default
symmetry c1  #important for SAPT in psi4, default
}

set PROPERTIES_ORIGIN ["COM"]
properties('MP2/aug-cc-pvtz', properties = ['dipole'])
--------------------------------------------------------------------------

    Molecular point group: c1
  Charge       = 0
  Multiplicity = 1
  Basis Set: AUG-CC-PVTZ
    Blend: AUG-CC-PVTZ
  Basis Set: (AUG-CC-PVTZ AUX)
    Blend: AUG-CC-PVTZ-JKFIT

    Orbital Energies [Eh]
    ---------------------

    Doubly Occupied:

       1A    -20.588325     2A    -20.549989     3A    -11.373008
       4A    -11.281208     5A    -11.246498     6A    -11.227389
       7A    -11.220561     8A    -11.218340     9A     -1.449490
      10A     -1.358321    11A     -1.095456    12A     -1.027698
      13A     -0.940619    14A     -0.889331    15A     -0.825093
      16A     -0.754994    17A     -0.705187    18A     -0.673444
      19A     -0.664743    20A     -0.620692    21A     -0.592176
      22A     -0.583462    23A     -0.553746    24A     -0.548404
      25A     -0.544297    26A     -0.523680    27A     -0.510737
      28A     -0.506370    29A     -0.488425    30A     -0.483607
      31A     -0.454266    32A     -0.437187

  @DF-RHF Final Energy:  -384.08373872017773

   => Energetics <=

    Nuclear Repulsion Energy =            395.7801742767057362
    One-Electron Energy =               -1307.8543426707240087
    Two-Electron Energy =                 527.9904296738404810
    Total Energy =                       -384.0837387201777346
  Basis Set: (AUG-CC-PVTZ AUX)
    Blend: AUG-CC-PVTZ-RI
    Molecular point group: c1

    Geometry (in Angstrom), charge = 0, multiplicity = 1:

       Center              X                  Y                   Z               Mass
    ------------   -----------------  -----------------  -----------------  -----------------
         O           -0.897802525432     0.320064416126    -0.252765154288    15.994914619570
         O            0.257611474568    -1.451519583874     0.572368845712    15.994914619570
         C            1.458972474568     0.423293416126    -0.402182154288    12.000000000000
         C            1.815264474568     1.390999416126     0.731295845712    12.000000000000
         C            2.613298474568    -0.514977583874    -0.729152154288    12.000000000000
         C            0.269541974568    -0.385246983874     0.056955745712    12.000000000000
         C           -2.112466525432    -0.329815583874     0.188493845712    12.000000000000
         C           -3.256827525432     0.567659416126    -0.218185154288    12.000000000000
         H            1.218726974568     1.021624016126    -1.287026354288     1.007825032230
         H            2.685663474568     1.992699416126     0.455432845712     1.007825032230
         H            2.057732474568     0.833063416126     1.640308845712     1.007825032230
         H            0.982777474568     2.065955416126     0.946903845712     1.007825032230
         H            3.491936474568     0.059901416126    -1.035930154288     1.007825032230
         H            2.350019474568    -1.200300583874    -1.538928154288     1.007825032230
         H            2.871688474568    -1.113385583874     0.147207845712     1.007825032230
         H           -2.174676525432    -1.317223583874    -0.275244154288     1.007825032230
         H           -2.063881525432    -0.474474583874     1.271814845712     1.007825032230
         H           -4.207902525432     0.123568416126     0.088311845712     1.007825032230
         H           -3.162456525432     1.547171416126     0.254509845712     1.007825032230
         H           -3.269332525432     0.702795416126    -1.301147154288     1.007825032230

  Basis Set: AUG-CC-PVTZ
    Blend: AUG-CC-PVTZ
  Basis Set: (AUG-CC-PVTZ AUX)
    Blend: AUG-CC-PVTZ-JKFIT
	 Reference Energy          =    -384.0837387201777346 [Eh]
	 Singles Energy            =      -0.0000000000000000 [Eh]
	 Same-Spin Energy          =      -0.3836008030055439 [Eh]
	 Opposite-Spin Energy      =      -1.2862452576385939 [Eh]
	 Correlation Energy        =      -1.6698460606441379 [Eh]
	 Total Energy              =    -385.7535847808218818 [Eh]

	 ================> DF-SCS-MP2 Energies <==================
	-----------------------------------------------------------
	 SCS Same-Spin Scale       =       0.3333333333333333 [-]
	 SCS Opposite-Spin Scale   =       1.2000000000000000 [-]
	 SCS Same-Spin Energy      =      -0.1278669343351813 [Eh]
	 SCS Opposite-Spin Energy  =      -1.5434943091663127 [Eh]
	 SCS Correlation Energy    =      -1.6713612435014940 [Eh]
	 SCS Total Energy          =    -385.7550999636792426 [Eh]
	-----------------------------------------------------------

  Dipole Moment: [D]
     X:    -0.3676      Y:     1.3904      Z:    -0.4996     Total:     1.5225

*** Psi4 exiting successfully. Buy a developer a beer!
