                               Psi4 1.3.2 release

  ==> Input File <==

--------------------------------------------------------------------------
#psi4
#
memory 32 gb

molecule  {
0 1
  O       -0.8890361     0.2977563    -0.2625651
  O        0.2608140    -1.4535000     0.5764690
  C        1.4621750     0.4213130    -0.3980820
  C        1.8184670     1.3890190     0.7353960
  C        2.6165010    -0.5169580    -0.7250520
  C        0.2447430    -0.3668820     0.0213200
  C       -2.1092640    -0.3317960     0.1925940
  C       -3.2536250     0.5656790    -0.2140850
  H        1.1864410     1.0054960    -1.2820320
  H        2.6888660     1.9907190     0.4595330
  H        2.0609350     0.8310830     1.6444090
  H        0.9859800     2.0639750     0.9510040
  H        3.4951390     0.0579210    -1.0318300
  H        2.3532220    -1.2022810    -1.5348280
  H        2.8748910    -1.1153660     0.1513080
  H       -2.1549089    -1.3159053    -0.2799978
  H       -2.0606790    -0.4764550     1.2759150
  H       -4.2047000     0.1215880     0.0924120
  H       -3.1592540     1.5451910     0.2586100
  H       -3.2661300     0.7008150    -1.2970470
units angstrom
no_reorient  #important for SAPT in psi4, default
symmetry c1  #important for SAPT in psi4, default
}

set PROPERTIES_ORIGIN ["COM"]
properties('MP2/aug-cc-pvtz', properties = ['dipole'])
--------------------------------------------------------------------------

    Molecular point group: c1
  Charge       = 0
  Multiplicity = 1
  Basis Set: AUG-CC-PVTZ
    Blend: AUG-CC-PVTZ
  Basis Set: (AUG-CC-PVTZ AUX)
    Blend: AUG-CC-PVTZ-JKFIT

    Orbital Energies [Eh]
    ---------------------

    Doubly Occupied:

       1A    -20.599237     2A    -20.537515     3A    -11.371671
       4A    -11.287431     5A    -11.245050     6A    -11.226978
       7A    -11.225070     8A    -11.216778     9A     -1.453435
      10A     -1.347846    11A     -1.094155    12A     -1.036133
      13A     -0.939036    14A     -0.896781    15A     -0.828234
      16A     -0.762913    17A     -0.698813    18A     -0.679769
      19A     -0.660697    20A     -0.619396    21A     -0.592062
      22A     -0.583370    23A     -0.556028    24A     -0.550785
      25A     -0.544286    26A     -0.519765    27A     -0.508737
      28A     -0.505046    29A     -0.488967    30A     -0.480926
      31A     -0.454642    32A     -0.435204

  @DF-RHF Final Energy:  -384.08667180799438

   => Energetics <=

    Nuclear Repulsion Energy =            396.0906831015627176
    One-Electron Energy =               -1308.4611985435778934
    Two-Electron Energy =                 528.2838436340207409
    Total Energy =                       -384.0866718079944349
  Basis Set: (AUG-CC-PVTZ AUX)
    Blend: AUG-CC-PVTZ-RI
    Molecular point group: c1

    Geometry (in Angstrom), charge = 0, multiplicity = 1:

       Center              X                  Y                   Z               Mass
    ------------   -----------------  -----------------  -----------------  -----------------
         O           -0.889946354399     0.300528634332    -0.260573241229    15.994914619570
         O            0.259903745601    -1.450727665668     0.578460858771    15.994914619570
         C            1.461264745601     0.424085334332    -0.396090141229    12.000000000000
         C            1.817556745601     1.391791334332     0.737387858771    12.000000000000
         C            2.615590745601    -0.514185665668    -0.723060141229    12.000000000000
         C            0.243832745601    -0.364109665668     0.023311858771    12.000000000000
         C           -2.110174254399    -0.329023665668     0.194585858771    12.000000000000
         C           -3.254535254399     0.568451334332    -0.212093141229    12.000000000000
         H            1.185530745601     1.008268334332    -1.280040141229     1.007825032230
         H            2.687955745601     1.993491334332     0.461524858771     1.007825032230
         H            2.060024745601     0.833855334332     1.646400858771     1.007825032230
         H            0.985069745601     2.066747334332     0.952995858771     1.007825032230
         H            3.494228745601     0.060693334332    -1.029838141229     1.007825032230
         H            2.352311745601    -1.199508665668    -1.532836141229     1.007825032230
         H            2.873980745601    -1.112593665668     0.153299858771     1.007825032230
         H           -2.155819154399    -1.313132965668    -0.278005941229     1.007825032230
         H           -2.061589254399    -0.473682665668     1.277906858771     1.007825032230
         H           -4.205610254399     0.124360334332     0.094403858771     1.007825032230
         H           -3.160164254399     1.547963334332     0.260601858771     1.007825032230
         H           -3.267040254399     0.703587334332    -1.295055141229     1.007825032230

  Basis Set: AUG-CC-PVTZ
    Blend: AUG-CC-PVTZ
  Basis Set: (AUG-CC-PVTZ AUX)
    Blend: AUG-CC-PVTZ-JKFIT
	 Reference Energy          =    -384.0866718079943780 [Eh]
	 Singles Energy            =      -0.0000000000000000 [Eh]
	 Same-Spin Energy          =      -0.3836662818709269 [Eh]
	 Opposite-Spin Energy      =      -1.2860771990223228 [Eh]
	 Correlation Energy        =      -1.6697434808932496 [Eh]
	 Total Energy              =    -385.7564152888876379 [Eh]

	 ================> DF-SCS-MP2 Energies <==================
	-----------------------------------------------------------
	 SCS Same-Spin Scale       =       0.3333333333333333 [-]
	 SCS Opposite-Spin Scale   =       1.2000000000000000 [-]
	 SCS Same-Spin Energy      =      -0.1278887606236423 [Eh]
	 SCS Opposite-Spin Energy  =      -1.5432926388267874 [Eh]
	 SCS Correlation Energy    =      -1.6711813994504296 [Eh]
	 SCS Total Energy          =    -385.7578532074447821 [Eh]
	-----------------------------------------------------------

  Dipole Moment: [D]
     X:    -0.7799      Y:     1.6524      Z:    -0.6062     Total:     1.9252

*** Psi4 exiting successfully. Buy a developer a beer!
