                               Psi4 1.3.2 release

  ==> Input File <==

--------------------------------------------------------------------------
#psi4
#
memory 32 gb

molecule  {
0 1
  O       -0.9009650     0.3091434    -0.2442278
  O        0.2608140    -1.4535000     0.5764690
  C        1.4699031     0.4115169    -0.3938524
  C        1.8184670     1.3890190     0.7353960
  C        2.6165010    -0.5169580    -0.7250520
  C        0.2447430    -0.3668820     0.0213200
  C       -2.1092640    -0.3317960     0.1925940
  C       -3.2536250     0.5656790    -0.2140850
  H        1.1864410     1.0054960    -1.2820320
  H        2.6888660     1.9907190     0.4595330
  H        2.0609350     0.8310830     1.6444090
  H        0.9859800     2.0639750     0.9510040
  H        3.4951390     0.0579210    -1.0318300
  H        2.3532220    -1.2022810    -1.5348280
  H        2.8748910    -1.1153660     0.1513080
  H       -2.1714740    -1.3192040    -0.2711440
  H       -2.0606790    -0.4764550     1.2759150
  H       -4.2047000     0.1215880     0.0924120
  H       -3.1592540     1.5451910     0.2586100
  H       -3.2661300     0.7008150    -1.2970470
units angstrom
no_reorient  #important for SAPT in psi4, default
symmetry c1  #important for SAPT in psi4, default
}

set PROPERTIES_ORIGIN ["COM"]
properties('MP2/aug-cc-pvtz', properties = ['dipole'])
--------------------------------------------------------------------------

    Molecular point group: c1
  Charge       = 0
  Multiplicity = 1
  Basis Set: AUG-CC-PVTZ
    Blend: AUG-CC-PVTZ
  Basis Set: (AUG-CC-PVTZ AUX)
    Blend: AUG-CC-PVTZ-JKFIT

    Orbital Energies [Eh]
    ---------------------

    Doubly Occupied:

       1A    -20.599097     2A    -20.539742     3A    -11.373767
       4A    -11.285437     5A    -11.246890     6A    -11.227682
       7A    -11.223599     8A    -11.217336     9A     -1.451589
      10A     -1.349447    11A     -1.095587    12A     -1.034814
      13A     -0.940783    14A     -0.896162    15A     -0.828113
      16A     -0.762533    17A     -0.698943    18A     -0.678989
      19A     -0.661092    20A     -0.620841    21A     -0.590967
      22A     -0.584660    23A     -0.555795    24A     -0.549869
      25A     -0.544851    26A     -0.519847    27A     -0.508669
      28A     -0.505486    29A     -0.491634    30A     -0.479274
      31A     -0.454313    32A     -0.436029

  @DF-RHF Final Energy:  -384.08612309965508

   => Energetics <=

    Nuclear Repulsion Energy =            395.9971432559678419
    One-Electron Energy =               -1308.2588619190678401
    Two-Electron Energy =                 528.1755955634449720
    Total Energy =                       -384.0861230996550830
  Basis Set: (AUG-CC-PVTZ AUX)
    Blend: AUG-CC-PVTZ-RI
    Molecular point group: c1

    Geometry (in Angstrom), charge = 0, multiplicity = 1:

       Center              X                  Y                   Z               Mass
    ------------   -----------------  -----------------  -----------------  -----------------
         O           -0.900886664010     0.311388029200    -0.245276693195    15.994914619570
         O            0.260892335990    -1.451255370800     0.575420106805    15.994914619570
         C            1.469981435990     0.413761529200    -0.394901293195    12.000000000000
         C            1.818545335990     1.391263629200     0.734347106805    12.000000000000
         C            2.616579335990    -0.514713370800    -0.726100893195    12.000000000000
         C            0.244821335990    -0.364637370800     0.020271106805    12.000000000000
         C           -2.109185664010    -0.329551370800     0.191545106805    12.000000000000
         C           -3.253546664010     0.567923629200    -0.215133893195    12.000000000000
         H            1.186519335990     1.007740629200    -1.283080893195     1.007825032230
         H            2.688944335990     1.992963629200     0.458484106805     1.007825032230
         H            2.061013335990     0.833327629200     1.643360106805     1.007825032230
         H            0.986058335990     2.066219629200     0.949955106805     1.007825032230
         H            3.495217335990     0.060165629200    -1.032878893195     1.007825032230
         H            2.353300335990    -1.200036370800    -1.535876893195     1.007825032230
         H            2.874969335990    -1.113121370800     0.150259106805     1.007825032230
         H           -2.171395664010    -1.316959370800    -0.272192893195     1.007825032230
         H           -2.060600664010    -0.474210370800     1.274866106805     1.007825032230
         H           -4.204621664010     0.123832629200     0.091363106805     1.007825032230
         H           -3.159175664010     1.547435629200     0.257561106805     1.007825032230
         H           -3.266051664010     0.703059629200    -1.298095893195     1.007825032230

  Basis Set: AUG-CC-PVTZ
    Blend: AUG-CC-PVTZ
  Basis Set: (AUG-CC-PVTZ AUX)
    Blend: AUG-CC-PVTZ-JKFIT
	 Reference Energy          =    -384.0861230996550830 [Eh]
	 Singles Energy            =      -0.0000000000000000 [Eh]
	 Same-Spin Energy          =      -0.3838055697344118 [Eh]
	 Opposite-Spin Energy      =      -1.2863261063754221 [Eh]
	 Correlation Energy        =      -1.6701316761098339 [Eh]
	 Total Energy              =    -385.7562547757649440 [Eh]

	 ================> DF-SCS-MP2 Energies <==================
	-----------------------------------------------------------
	 SCS Same-Spin Scale       =       0.3333333333333333 [-]
	 SCS Opposite-Spin Scale   =       1.2000000000000000 [-]
	 SCS Same-Spin Energy      =      -0.1279351899114706 [Eh]
	 SCS Opposite-Spin Energy  =      -1.5435913276505064 [Eh]
	 SCS Correlation Energy    =      -1.6715265175619771 [Eh]
	 SCS Total Energy          =    -385.7576496172170550 [Eh]
	-----------------------------------------------------------

  Dipole Moment: [D]
     X:    -0.6559      Y:     1.6110      Z:    -0.6201     Total:     1.8466

*** Psi4 exiting successfully. Buy a developer a beer!
