                               Psi4 1.3.2 release

  ==> Input File <==

--------------------------------------------------------------------------
#psi4
#
memory 32 gb

molecule  {
0 1
  O       -0.9195346     0.2820155    -0.2307962
  O        0.2608140    -1.4535000     0.5764690
  C        1.4925251     0.3817758    -0.3809752
  C        1.8184670     1.3890190     0.7353960
  C        2.6165010    -0.5169580    -0.7250520
  C        0.2447430    -0.3668820     0.0213200
  C       -2.1092640    -0.3317960     0.1925940
  C       -3.2536250     0.5656790    -0.2140850
  H        1.1864410     1.0054960    -1.2820320
  H        2.6888660     1.9907190     0.4595330
  H        2.0609350     0.8310830     1.6444090
  H        0.9859800     2.0639750     0.9510040
  H        3.4951390     0.0579210    -1.0318300
  H        2.3532220    -1.2022810    -1.5348280
  H        2.8748910    -1.1153660     0.1513080
  H       -2.1714740    -1.3192040    -0.2711440
  H       -2.0606790    -0.4764550     1.2759150
  H       -4.2047000     0.1215880     0.0924120
  H       -3.1592540     1.5451910     0.2586100
  H       -3.2661300     0.7008150    -1.2970470
units angstrom
no_reorient  #important for SAPT in psi4, default
symmetry c1  #important for SAPT in psi4, default
}

set PROPERTIES_ORIGIN ["COM"]
properties('MP2/aug-cc-pvtz', properties = ['dipole'])
--------------------------------------------------------------------------

    Molecular point group: c1
  Charge       = 0
  Multiplicity = 1
  Basis Set: AUG-CC-PVTZ
    Blend: AUG-CC-PVTZ
  Basis Set: (AUG-CC-PVTZ AUX)
    Blend: AUG-CC-PVTZ-JKFIT

    Orbital Energies [Eh]
    ---------------------

    Doubly Occupied:

       1A    -20.597930     2A    -20.538420     3A    -11.374744
       4A    -11.282273     5A    -11.250981     6A    -11.229301
       7A    -11.222488     8A    -11.217722     9A     -1.457134
      10A     -1.351246    11A     -1.099570    12A     -1.035446
      13A     -0.945140    14A     -0.899198    15A     -0.827663
      16A     -0.764913    17A     -0.698342    18A     -0.682566
      19A     -0.661869    20A     -0.624338    21A     -0.591372
      22A     -0.588189    23A     -0.556836    24A     -0.550202
      25A     -0.546154    26A     -0.523173    27A     -0.509501
      28A     -0.502729    29A     -0.496154    30A     -0.471832
      31A     -0.450821    32A     -0.435608

  @DF-RHF Final Energy:  -384.08277732830470

   => Energetics <=

    Nuclear Repulsion Energy =            396.5654897429276389
    One-Electron Energy =               -1309.3288222336720992
    Two-Electron Energy =                 528.6805551624397594
    Total Energy =                       -384.0827773283047009
  Basis Set: (AUG-CC-PVTZ AUX)
    Blend: AUG-CC-PVTZ-RI
    Molecular point group: c1

    Geometry (in Angstrom), charge = 0, multiplicity = 1:

       Center              X                  Y                   Z               Mass
    ------------   -----------------  -----------------  -----------------  -----------------
         O           -0.919236119752     0.291072467560    -0.235026966282    15.994914619570
         O            0.261112480248    -1.444443032440     0.572238233718    15.994914619570
         C            1.492823580248     0.390832767560    -0.385205966282    12.000000000000
         C            1.818765480248     1.398075967560     0.731165233718    12.000000000000
         C            2.616799480248    -0.507901032440    -0.729282766282    12.000000000000
         C            0.245041480248    -0.357825032440     0.017089233718    12.000000000000
         C           -2.108965519752    -0.322739032440     0.188363233718    12.000000000000
         C           -3.253326519752     0.574735967560    -0.218315766282    12.000000000000
         H            1.186739480248     1.014552967560    -1.286262766282     1.007825032230
         H            2.689164480248     1.999775967560     0.455302233718     1.007825032230
         H            2.061233480248     0.840139967560     1.640178233718     1.007825032230
         H            0.986278480248     2.073031967560     0.946773233718     1.007825032230
         H            3.495437480248     0.066977967560    -1.036060766282     1.007825032230
         H            2.353520480248    -1.193224032440    -1.539058766282     1.007825032230
         H            2.875189480248    -1.106309032440     0.147077233718     1.007825032230
         H           -2.171175519752    -1.310147032440    -0.275374766282     1.007825032230
         H           -2.060380519752    -0.467398032440     1.271684233718     1.007825032230
         H           -4.204401519752     0.130644967560     0.088181233718     1.007825032230
         H           -3.158955519752     1.554247967560     0.254379233718     1.007825032230
         H           -3.265831519752     0.709871967560    -1.301277766282     1.007825032230

  Basis Set: AUG-CC-PVTZ
    Blend: AUG-CC-PVTZ
  Basis Set: (AUG-CC-PVTZ AUX)
    Blend: AUG-CC-PVTZ-JKFIT
	 Reference Energy          =    -384.0827773283047009 [Eh]
	 Singles Energy            =      -0.0000000000000000 [Eh]
	 Same-Spin Energy          =      -0.3837771600344821 [Eh]
	 Opposite-Spin Energy      =      -1.2856716309202980 [Eh]
	 Correlation Energy        =      -1.6694487909547802 [Eh]
	 Total Energy              =    -385.7522261192594897 [Eh]

	 ================> DF-SCS-MP2 Energies <==================
	-----------------------------------------------------------
	 SCS Same-Spin Scale       =       0.3333333333333333 [-]
	 SCS Opposite-Spin Scale   =       1.2000000000000000 [-]
	 SCS Same-Spin Energy      =      -0.1279257200114940 [Eh]
	 SCS Opposite-Spin Energy  =      -1.5428059571043575 [Eh]
	 SCS Correlation Energy    =      -1.6707316771158516 [Eh]
	 SCS Total Energy          =    -385.7535090054205398 [Eh]
	-----------------------------------------------------------

  Dipole Moment: [D]
     X:    -0.5062      Y:     1.6627      Z:    -0.6536     Total:     1.8569

*** Psi4 exiting successfully. Buy a developer a beer!
