                               Psi4 1.3.2 release

  ==> Input File <==

--------------------------------------------------------------------------
#psi4
#
memory 32 gb

molecule  {
0 1
  O       -0.8946000     0.3180840    -0.2486650
  O        0.2608140    -1.4535000     0.5764690
  C        1.4621750     0.4213130    -0.3980820
  C        1.8184670     1.3890190     0.7353960
  C        2.6165010    -0.5169580    -0.7250520
  C        0.2055320    -0.3345715    -0.0392267
  C       -2.1092640    -0.3317960     0.1925940
  C       -3.2536250     0.5656790    -0.2140850
  H        1.1338515     0.9829457    -1.2786722
  H        2.6888660     1.9907190     0.4595330
  H        2.0609350     0.8310830     1.6444090
  H        0.9859800     2.0639750     0.9510040
  H        3.4951390     0.0579210    -1.0318300
  H        2.3532220    -1.2022810    -1.5348280
  H        2.8748910    -1.1153660     0.1513080
  H       -2.1714740    -1.3192040    -0.2711440
  H       -2.0606790    -0.4764550     1.2759150
  H       -4.2047000     0.1215880     0.0924120
  H       -3.1592540     1.5451910     0.2586100
  H       -3.2661300     0.7008150    -1.2970470
units angstrom
no_reorient  #important for SAPT in psi4, default
symmetry c1  #important for SAPT in psi4, default
}

set PROPERTIES_ORIGIN ["COM"]
properties('MP2/aug-cc-pvtz', properties = ['dipole'])
--------------------------------------------------------------------------

    Molecular point group: c1
  Charge       = 0
  Multiplicity = 1
  Basis Set: AUG-CC-PVTZ
    Blend: AUG-CC-PVTZ
  Basis Set: (AUG-CC-PVTZ AUX)
    Blend: AUG-CC-PVTZ-JKFIT

    Orbital Energies [Eh]
    ---------------------

    Doubly Occupied:

       1A    -20.615081     2A    -20.525144     3A    -11.374446
       4A    -11.294334     5A    -11.245362     6A    -11.228911
       7A    -11.227256     8A    -11.215807     9A     -1.471470
      10A     -1.315886    11A     -1.093990    12A     -1.044861
      13A     -0.937795    14A     -0.904933    15A     -0.833437
      16A     -0.775055    17A     -0.694879    18A     -0.682234
      19A     -0.661473    20A     -0.617648    21A     -0.593101
      22A     -0.579138    23A     -0.559934    24A     -0.552920
      25A     -0.542666    26A     -0.521276    27A     -0.504164
      28A     -0.503402    29A     -0.490985    30A     -0.480904
      31A     -0.444027    32A     -0.427344

  @DF-RHF Final Energy:  -384.07538973891246

   => Energetics <=

    Nuclear Repulsion Energy =            395.8979255490323226
    One-Electron Energy =               -1308.0268976749180183
    Two-Electron Energy =                 528.0535823869731757
    Total Energy =                       -384.0753897389124631
  Basis Set: (AUG-CC-PVTZ AUX)
    Blend: AUG-CC-PVTZ-RI
    Molecular point group: c1

    Geometry (in Angstrom), charge = 0, multiplicity = 1:

       Center              X                  Y                   Z               Mass
    ------------   -----------------  -----------------  -----------------  -----------------
         O           -0.890089840665     0.314939789793    -0.242435507608    15.994914619570
         O            0.265324159335    -1.456644210207     0.582698492392    15.994914619570
         C            1.466685159335     0.418168789793    -0.391852507608    12.000000000000
         C            1.822977159335     1.385874789793     0.741625492392    12.000000000000
         C            2.621011159335    -0.520102210207    -0.718822507608    12.000000000000
         C            0.210042159335    -0.337715710207    -0.032997207608    12.000000000000
         C           -2.104753840665    -0.334940210207     0.198823492392    12.000000000000
         C           -3.249114840665     0.562534789793    -0.207855507608    12.000000000000
         H            1.138361659335     0.979801489793    -1.272442707608     1.007825032230
         H            2.693376159335     1.987574789793     0.465762492392     1.007825032230
         H            2.065445159335     0.827938789793     1.650638492392     1.007825032230
         H            0.990490159335     2.060830789793     0.957233492392     1.007825032230
         H            3.499649159335     0.054776789793    -1.025600507608     1.007825032230
         H            2.357732159335    -1.205425210207    -1.528598507608     1.007825032230
         H            2.879401159335    -1.118510210207     0.157537492392     1.007825032230
         H           -2.166963840665    -1.322348210207    -0.264914507608     1.007825032230
         H           -2.056168840665    -0.479599210207     1.282144492392     1.007825032230
         H           -4.200189840665     0.118443789793     0.098641492392     1.007825032230
         H           -3.154743840665     1.542046789793     0.264839492392     1.007825032230
         H           -3.261619840665     0.697670789793    -1.290817507608     1.007825032230

  Basis Set: AUG-CC-PVTZ
    Blend: AUG-CC-PVTZ
  Basis Set: (AUG-CC-PVTZ AUX)
    Blend: AUG-CC-PVTZ-JKFIT
	 Reference Energy          =    -384.0753897389124631 [Eh]
	 Singles Energy            =      -0.0000000000000000 [Eh]
	 Same-Spin Energy          =      -0.3846011206268385 [Eh]
	 Opposite-Spin Energy      =      -1.2879343751872088 [Eh]
	 Correlation Energy        =      -1.6725354958140473 [Eh]
	 Total Energy              =    -385.7479252347264946 [Eh]

	 ================> DF-SCS-MP2 Energies <==================
	-----------------------------------------------------------
	 SCS Same-Spin Scale       =       0.3333333333333333 [-]
	 SCS Opposite-Spin Scale   =       1.2000000000000000 [-]
	 SCS Same-Spin Energy      =      -0.1282003735422795 [Eh]
	 SCS Opposite-Spin Energy  =      -1.5455212502246505 [Eh]
	 SCS Correlation Energy    =      -1.6737216237669299 [Eh]
	 SCS Total Energy          =    -385.7491113626794004 [Eh]
	-----------------------------------------------------------

  Dipole Moment: [D]
     X:    -1.1715      Y:     1.8982      Z:    -0.7565     Total:     2.3554

*** Psi4 exiting successfully. Buy a developer a beer!
