                               Psi4 1.3.2 release

  ==> Input File <==

--------------------------------------------------------------------------
#psi4
#
memory 32 gb

molecule  {
0 1
  O       -0.8946000     0.3180840    -0.2486650
  O        0.2608140    -1.4535000     0.5764690
  C        1.4621750     0.4213130    -0.3980820
  C        1.8184670     1.3890190     0.7353960
  C        2.6165010    -0.5169580    -0.7250520
  C        0.0834651    -0.4712972     0.0768798
  C       -2.1092640    -0.3317960     0.1925940
  C       -3.2536250     0.5656790    -0.2140850
  H        1.1864410     1.0054960    -1.2820320
  H        2.6888660     1.9907190     0.4595330
  H        2.0609350     0.8310830     1.6444090
  H        0.9859800     2.0639750     0.9510040
  H        3.4951390     0.0579210    -1.0318300
  H        2.3532220    -1.2022810    -1.5348280
  H        2.8748910    -1.1153660     0.1513080
  H       -2.1714740    -1.3192040    -0.2711440
  H       -2.0606790    -0.4764550     1.2759150
  H       -4.2047000     0.1215880     0.0924120
  H       -3.1592540     1.5451910     0.2586100
  H       -3.2661300     0.7008150    -1.2970470
units angstrom
no_reorient  #important for SAPT in psi4, default
symmetry c1  #important for SAPT in psi4, default
}

set PROPERTIES_ORIGIN ["COM"]
properties('MP2/aug-cc-pvtz', properties = ['dipole'])
--------------------------------------------------------------------------

    Molecular point group: c1
  Charge       = 0
  Multiplicity = 1
  Basis Set: AUG-CC-PVTZ
    Blend: AUG-CC-PVTZ
  Basis Set: (AUG-CC-PVTZ AUX)
    Blend: AUG-CC-PVTZ-JKFIT

    Orbital Energies [Eh]
    ---------------------

    Doubly Occupied:

       1A    -20.616509     2A    -20.553919     3A    -11.365716
       4A    -11.296107     5A    -11.230663     6A    -11.226718
       7A    -11.211427     8A    -11.203818     9A     -1.501773
      10A     -1.422539    11A     -1.064804    12A     -1.038736
      13A     -0.923667    14A     -0.886625    15A     -0.813405
      16A     -0.775616    17A     -0.708458    18A     -0.704129
      19A     -0.678183    20A     -0.618624    21A     -0.604163
      22A     -0.584745    23A     -0.557466    24A     -0.547743
      25A     -0.539228    26A     -0.530359    27A     -0.529120
      28A     -0.521147    29A     -0.483122    30A     -0.472262
      31A     -0.466887    32A     -0.381648

  @DF-RHF Final Energy:  -384.04575809418475

   => Energetics <=

    Nuclear Repulsion Energy =            396.7508711245769746
    One-Electron Energy =               -1309.4746112470365915
    Two-Electron Energy =                 528.6779820282748688
    Total Energy =                       -384.0457580941847482
  Basis Set: (AUG-CC-PVTZ AUX)
    Blend: AUG-CC-PVTZ-RI
    Molecular point group: c1

    Geometry (in Angstrom), charge = 0, multiplicity = 1:

       Center              X                  Y                   Z               Mass
    ------------   -----------------  -----------------  -----------------  -----------------
         O           -0.877927914183     0.328877846817    -0.254408692084    15.994914619570
         O            0.277486085817    -1.442706153183     0.570725307916    15.994914619570
         C            1.478847085817     0.432106846817    -0.403825692084    12.000000000000
         C            1.835139085817     1.399812846817     0.729652307916    12.000000000000
         C            2.633173085817    -0.506164153183    -0.730795692084    12.000000000000
         C            0.100137185817    -0.460503353183     0.071136107916    12.000000000000
         C           -2.092591914183    -0.321002153183     0.186850307916    12.000000000000
         C           -3.236952914183     0.576472846817    -0.219828692084    12.000000000000
         H            1.203113085817     1.016289846817    -1.287775692084     1.007825032230
         H            2.705538085817     2.001512846817     0.453789307916     1.007825032230
         H            2.077607085817     0.841876846817     1.638665307916     1.007825032230
         H            1.002652085817     2.074768846817     0.945260307916     1.007825032230
         H            3.511811085817     0.068714846817    -1.037573692084     1.007825032230
         H            2.369894085817    -1.191487153183    -1.540571692084     1.007825032230
         H            2.891563085817    -1.104572153183     0.145564307916     1.007825032230
         H           -2.154801914183    -1.308410153183    -0.276887692084     1.007825032230
         H           -2.044006914183    -0.465661153183     1.270171307916     1.007825032230
         H           -4.188027914183     0.132381846817     0.086668307916     1.007825032230
         H           -3.142581914183     1.555984846817     0.252866307916     1.007825032230
         H           -3.249457914183     0.711608846817    -1.302790692084     1.007825032230

  Basis Set: AUG-CC-PVTZ
    Blend: AUG-CC-PVTZ
  Basis Set: (AUG-CC-PVTZ AUX)
    Blend: AUG-CC-PVTZ-JKFIT
	 Reference Energy          =    -384.0457580941847482 [Eh]
	 Singles Energy            =      -0.0000000000000000 [Eh]
	 Same-Spin Energy          =      -0.3823044103436971 [Eh]
	 Opposite-Spin Energy      =      -1.2837288328436782 [Eh]
	 Correlation Energy        =      -1.6660332431873752 [Eh]
	 Total Energy              =    -385.7117913373721194 [Eh]

	 ================> DF-SCS-MP2 Energies <==================
	-----------------------------------------------------------
	 SCS Same-Spin Scale       =       0.3333333333333333 [-]
	 SCS Opposite-Spin Scale   =       1.2000000000000000 [-]
	 SCS Same-Spin Energy      =      -0.1274348034478990 [Eh]
	 SCS Opposite-Spin Energy  =      -1.5404745994124138 [Eh]
	 SCS Correlation Energy    =      -1.6679094028603130 [Eh]
	 SCS Total Energy          =    -385.7136674970450372 [Eh]
	-----------------------------------------------------------

  Dipole Moment: [D]
     X:    -1.9187      Y:     0.9337      Z:    -0.3393     Total:     2.1606

*** Psi4 exiting successfully. Buy a developer a beer!
