                               Psi4 1.4a3.dev225

  ==> Input File <==

--------------------------------------------------------------------------
#psi4
#
memory 32 gb

molecule  {
0 1
  O       -0.8844740     0.2512200    -0.2589860
  O        0.2594420    -1.5357810     0.5540110
  C        1.4751410     0.3499910    -0.3991000
  C        1.6489360     1.5420820     0.5503600
  C        2.7076510    -0.5454760    -0.4239080
  C        0.2109341    -0.4142602     0.0052909
  C       -2.1066380    -0.4073920     0.1545600
  C       -3.2437300     0.5134160    -0.2249800
  H        1.2747850     0.7394360    -1.4046030
  H        2.5199720     2.1341380     0.2549160
  H        1.8085970     1.1898350     1.5745190
  H        0.7675450     2.1869880     0.5363060
  H        3.5809030     0.0268420    -0.7502520
  H        2.5706130    -1.3892510    -1.1045820
  H        2.9042310    -0.9491700     0.5720060
  H       -2.1727950    -1.3769310    -0.3467220
  H       -2.0631380    -0.5911830     1.2316620
  H       -4.1987120     0.0656950     0.0643780
  H       -3.1432900     1.4757990     0.2814060
  H       -3.2533220     0.6866720    -1.3031500
units angstrom
no_reorient  #important for SAPT in psi4, default
symmetry c1  #important for SAPT in psi4, default
}

set PROPERTIES_ORIGIN ["COM"]
properties('MP2/aug-cc-pvtz', properties = ['dipole'])
--------------------------------------------------------------------------

    Molecular point group: c1
  Charge       = 0
  Multiplicity = 1
  Basis Set: AUG-CC-PVTZ
    Blend: AUG-CC-PVTZ
  Basis Set: (AUG-CC-PVTZ AUX)
    Blend: AUG-CC-PVTZ-JKFIT

    Orbital Energies [Eh]
    ---------------------

    Doubly Occupied:

       1A    -20.611071     2A    -20.531872     3A    -11.373856
       4A    -11.293196     5A    -11.245496     6A    -11.228391
       7A    -11.225258     8A    -11.213843     9A     -1.466556
      10A     -1.334543    11A     -1.089909    12A     -1.041730
      13A     -0.936149    14A     -0.898757    15A     -0.829873
      16A     -0.772254    17A     -0.695771    18A     -0.681795
      19A     -0.664535    20A     -0.618993    21A     -0.588626
      22A     -0.580936    23A     -0.559427    24A     -0.551226
      25A     -0.542073    26A     -0.520517    27A     -0.507022
      28A     -0.504964    29A     -0.488871    30A     -0.478902
      31A     -0.452986    32A     -0.429592

  @DF-RHF Final Energy:  -384.08241083976918

   => Energetics <=

    Nuclear Repulsion Energy =            395.9268852248702046
    One-Electron Energy =               -1308.1006102560036197
    Two-Electron Energy =                 528.0913141913642903
    Total Energy =                       -384.0824108397691816
  Basis Set: (AUG-CC-PVTZ AUX)
    Blend: AUG-CC-PVTZ-RI
    Molecular point group: c1

    Geometry (in Angstrom), charge = 0, multiplicity = 1:

       Center              X                  Y                   Z               Mass
    ------------   -----------------  -----------------  -----------------  -----------------
         O           -0.875086324915     0.284423512999    -0.261297904658    15.994914619570
         O            0.268829675085    -1.502577487001     0.551699095342    15.994914619570
         C            1.484528675085     0.383194512999    -0.401411904658    12.000000000000
         C            1.658323675085     1.575285512999     0.548048095342    12.000000000000
         C            2.717038675085    -0.512272487001    -0.426219904658    12.000000000000
         C            0.220321775085    -0.381056687001     0.002978995342    12.000000000000
         C           -2.097250324915    -0.374188487001     0.152248095342    12.000000000000
         C           -3.234342324915     0.546619512999    -0.227291904658    12.000000000000
         H            1.284172675085     0.772639512999    -1.406914904658     1.007825032230
         H            2.529359675085     2.167341512999     0.252604095342     1.007825032230
         H            1.817984675085     1.223038512999     1.572207095342     1.007825032230
         H            0.776932675085     2.220191512999     0.533994095342     1.007825032230
         H            3.590290675085     0.060045512999    -0.752563904658     1.007825032230
         H            2.580000675085    -1.356047487001    -1.106893904658     1.007825032230
         H            2.913618675085    -0.915966487001     0.569694095342     1.007825032230
         H           -2.163407324915    -1.343727487001    -0.349033904658     1.007825032230
         H           -2.053750324915    -0.557979487001     1.229350095342     1.007825032230
         H           -4.189324324915     0.098898512999     0.062066095342     1.007825032230
         H           -3.133902324915     1.509002512999     0.279094095342     1.007825032230
         H           -3.243934324915     0.719875512999    -1.305461904658     1.007825032230

  Basis Set: AUG-CC-PVTZ
    Blend: AUG-CC-PVTZ
  Basis Set: (AUG-CC-PVTZ AUX)
    Blend: AUG-CC-PVTZ-JKFIT
	 Reference Energy          =    -384.0824108397691816 [Eh]
	 Singles Energy            =      -0.0000000000000000 [Eh]
	 Same-Spin Energy          =      -0.3838899075086469 [Eh]
	 Opposite-Spin Energy      =      -1.2867470909683778 [Eh]
	 Correlation Energy        =      -1.6706369984770246 [Eh]
	 Total Energy              =    -385.7530478382462320 [Eh]

	 ================> DF-SCS-MP2 Energies <==================
	-----------------------------------------------------------
	 SCS Same-Spin Scale       =       0.3333333333333333 [-]
	 SCS Opposite-Spin Scale   =       1.2000000000000000 [-]
	 SCS Same-Spin Energy      =      -0.1279633025028823 [Eh]
	 SCS Opposite-Spin Energy  =      -1.5440965091620533 [Eh]
	 SCS Correlation Energy    =      -1.6720598116649357 [Eh]
	 SCS Total Energy          =    -385.7544706514341328 [Eh]
	-----------------------------------------------------------

  Dipole Moment: [D]
     X:    -1.1431      Y:     1.7821      Z:    -0.7117     Total:     2.2336

*** Psi4 exiting successfully. Buy a developer a beer!
