                               Psi4 1.4a3.dev225

  ==> Input File <==

--------------------------------------------------------------------------
#psi4
#
memory 32 gb

molecule  {
0 1
  O       -0.8844740     0.2512200    -0.2589860
  O        0.2594420    -1.5357810     0.5540110
  C        1.4751410     0.3499910    -0.3991000
  C        1.6432708     1.5032231     0.5194102
  C        2.7076510    -0.5454760    -0.4239080
  C        0.2527860    -0.4396860     0.0153880
  C       -2.1066380    -0.4073920     0.1545600
  C       -3.2437300     0.5134160    -0.2249800
  H        1.2747850     0.7394360    -1.4046030
  H        2.5199720     2.1341380     0.2549160
  H        1.8085970     1.1898350     1.5745190
  H        0.7675450     2.1869880     0.5363060
  H        3.5809030     0.0268420    -0.7502520
  H        2.5706130    -1.3892510    -1.1045820
  H        2.9042310    -0.9491700     0.5720060
  H       -2.1727950    -1.3769310    -0.3467220
  H       -2.0631380    -0.5911830     1.2316620
  H       -4.1987120     0.0656950     0.0643780
  H       -3.1432900     1.4757990     0.2814060
  H       -3.2533220     0.6866720    -1.3031500
units angstrom
no_reorient  #important for SAPT in psi4, default
symmetry c1  #important for SAPT in psi4, default
}

set PROPERTIES_ORIGIN ["COM"]
properties('MP2/aug-cc-pvtz', properties = ['dipole'])
--------------------------------------------------------------------------

    Molecular point group: c1
  Charge       = 0
  Multiplicity = 1
  Basis Set: AUG-CC-PVTZ
    Blend: AUG-CC-PVTZ
  Basis Set: (AUG-CC-PVTZ AUX)
    Blend: AUG-CC-PVTZ-JKFIT

    Orbital Energies [Eh]
    ---------------------

    Doubly Occupied:

       1A    -20.598895     2A    -20.541779     3A    -11.374788
       4A    -11.287196     5A    -11.245148     6A    -11.228706
       7A    -11.224475     8A    -11.216345     9A     -1.448978
      10A     -1.348749    11A     -1.100629    12A     -1.034578
      13A     -0.937699    14A     -0.893505    15A     -0.828725
      16A     -0.761900    17A     -0.699322    18A     -0.677378
      19A     -0.663356    20A     -0.625534    21A     -0.586250
      22A     -0.581536    23A     -0.557553    24A     -0.548057
      25A     -0.537433    26A     -0.519004    27A     -0.508660
      28A     -0.506281    29A     -0.489507    30A     -0.483316
      31A     -0.455198    32A     -0.435904

  @DF-RHF Final Energy:  -384.08254937596303

   => Energetics <=

    Nuclear Repulsion Energy =            396.5743436640975119
    One-Electron Energy =               -1309.4210138830744654
    Two-Electron Energy =                 528.7641208430138704
    Total Energy =                       -384.0825493759630263
  Basis Set: (AUG-CC-PVTZ AUX)
    Blend: AUG-CC-PVTZ-RI
    Molecular point group: c1

    Geometry (in Angstrom), charge = 0, multiplicity = 1:

       Center              X                  Y                   Z               Mass
    ------------   -----------------  -----------------  -----------------  -----------------
         O           -0.878827076538     0.291068857721    -0.259142284738    15.994914619570
         O            0.265088923462    -1.495932142279     0.553854715262    15.994914619570
         C            1.480787923462     0.389839857721    -0.399256284738    12.000000000000
         C            1.648917723462     1.543071957721     0.519253915262    12.000000000000
         C            2.713297923462    -0.505627142279    -0.424064284738    12.000000000000
         C            0.258432923462    -0.399837142279     0.015231715262    12.000000000000
         C           -2.100991076538    -0.367543142279     0.154403715262    12.000000000000
         C           -3.238083076538     0.553264857721    -0.225136284738    12.000000000000
         H            1.280431923462     0.779284857721    -1.404759284738     1.007825032230
         H            2.525618923462     2.173986857721     0.254759715262     1.007825032230
         H            1.814243923462     1.229683857721     1.574362715262     1.007825032230
         H            0.773191923462     2.226836857721     0.536149715262     1.007825032230
         H            3.586549923462     0.066690857721    -0.750408284738     1.007825032230
         H            2.576259923462    -1.349402142279    -1.104738284738     1.007825032230
         H            2.909877923462    -0.909321142279     0.571849715262     1.007825032230
         H           -2.167148076538    -1.337082142279    -0.346878284738     1.007825032230
         H           -2.057491076538    -0.551334142279     1.231505715262     1.007825032230
         H           -4.193065076538     0.105543857721     0.064221715262     1.007825032230
         H           -3.137643076538     1.515647857721     0.281249715262     1.007825032230
         H           -3.247675076538     0.726520857721    -1.303306284738     1.007825032230

  Basis Set: AUG-CC-PVTZ
    Blend: AUG-CC-PVTZ
  Basis Set: (AUG-CC-PVTZ AUX)
    Blend: AUG-CC-PVTZ-JKFIT
	 Reference Energy          =    -384.0825493759630263 [Eh]
	 Singles Energy            =      -0.0000000000000000 [Eh]
	 Same-Spin Energy          =      -0.3842498266083638 [Eh]
	 Opposite-Spin Energy      =      -1.2872259176669563 [Eh]
	 Correlation Energy        =      -1.6714757442753201 [Eh]
	 Total Energy              =    -385.7540251202383388 [Eh]

	 ================> DF-SCS-MP2 Energies <==================
	-----------------------------------------------------------
	 SCS Same-Spin Scale       =       0.3333333333333333 [-]
	 SCS Opposite-Spin Scale   =       1.2000000000000000 [-]
	 SCS Same-Spin Energy      =      -0.1280832755361213 [Eh]
	 SCS Opposite-Spin Energy  =      -1.5446711012003476 [Eh]
	 SCS Correlation Energy    =      -1.6727543767364688 [Eh]
	 SCS Total Energy          =    -385.7553037526994899 [Eh]
	-----------------------------------------------------------

  Dipole Moment: [D]
     X:    -0.7426      Y:     1.5909      Z:    -0.6383     Total:     1.8681

*** Psi4 exiting successfully. Buy a developer a beer!
