                               Psi4 1.3.2 release

  ==> Input File <==

--------------------------------------------------------------------------
#psi4
#
memory 32 gb

molecule  {
0 1
  O       -0.8946000     0.3180840    -0.2486650
  O        0.2608140    -1.4535000     0.5764690
  C        1.4621750     0.4213130    -0.3980820
  C        1.8159460     1.3993506     0.7272889
  C        2.6165010    -0.5169580    -0.7250520
  C        0.2447430    -0.3668820     0.0213200
  C       -2.1092640    -0.3317960     0.1925940
  C       -3.2536250     0.5656790    -0.2140850
  H        1.1879859     1.0135541    -1.2771368
  H        2.6888660     1.9907190     0.4595330
  H        2.0609350     0.8310830     1.6444090
  H        0.9859800     2.0639750     0.9510040
  H        3.4951390     0.0579210    -1.0318300
  H        2.3532220    -1.2022810    -1.5348280
  H        2.8748910    -1.1153660     0.1513080
  H       -2.1714740    -1.3192040    -0.2711440
  H       -2.0606790    -0.4764550     1.2759150
  H       -4.2047000     0.1215880     0.0924120
  H       -3.1592540     1.5451910     0.2586100
  H       -3.2661300     0.7008150    -1.2970470
units angstrom
no_reorient  #important for SAPT in psi4, default
symmetry c1  #important for SAPT in psi4, default
}

set PROPERTIES_ORIGIN ["COM"]
properties('MP2/aug-cc-pvtz', properties = ['dipole'])
--------------------------------------------------------------------------

    Molecular point group: c1
  Charge       = 0
  Multiplicity = 1
  Basis Set: AUG-CC-PVTZ
    Blend: AUG-CC-PVTZ
  Basis Set: (AUG-CC-PVTZ AUX)
    Blend: AUG-CC-PVTZ-JKFIT

    Orbital Energies [Eh]
    ---------------------

    Doubly Occupied:

       1A    -20.599494     2A    -20.540340     3A    -11.373701
       4A    -11.286546     5A    -11.245602     6A    -11.227133
       7A    -11.224000     8A    -11.217367     9A     -1.449950
      10A     -1.348993    11A     -1.094263    12A     -1.034664
      13A     -0.939537    14A     -0.895164    15A     -0.828331
      16A     -0.761864    17A     -0.699088    18A     -0.677930
      19A     -0.661082    20A     -0.619859    21A     -0.591676
      22A     -0.583708    23A     -0.555517    24A     -0.550029
      25A     -0.543048    26A     -0.519434    27A     -0.509565
      28A     -0.506054    29A     -0.489929    30A     -0.479809
      31A     -0.455399    32A     -0.436406

  @DF-RHF Final Energy:  -384.08570886392005

   => Energetics <=

    Nuclear Repulsion Energy =            395.7749196157773781
    One-Electron Energy =               -1307.8302840010821910
    Two-Electron Energy =                 527.9696555213847660
    Total Energy =                       -384.0857088639199901
  Basis Set: (AUG-CC-PVTZ AUX)
    Blend: AUG-CC-PVTZ-RI
    Molecular point group: c1

    Geometry (in Angstrom), charge = 0, multiplicity = 1:

       Center              X                  Y                   Z               Mass
    ------------   -----------------  -----------------  -----------------  -----------------
         O           -0.894352608626     0.316946090667    -0.247869711149    15.994914619570
         O            0.261061391374    -1.454637909333     0.577264288851    15.994914619570
         C            1.462422391374     0.420175090667    -0.397286711149    12.000000000000
         C            1.816193391374     1.398212690667     0.728084188851    12.000000000000
         C            2.616748391374    -0.518095909333    -0.724256711149    12.000000000000
         C            0.244990391374    -0.368019909333     0.022115288851    12.000000000000
         C           -2.109016608626    -0.332933909333     0.193389288851    12.000000000000
         C           -3.253377608626     0.564541090667    -0.213289711149    12.000000000000
         H            1.188233291374     1.012416190667    -1.276341511149     1.007825032230
         H            2.689113391374     1.989581090667     0.460328288851     1.007825032230
         H            2.061182391374     0.829945090667     1.645204288851     1.007825032230
         H            0.986227391374     2.062837090667     0.951799288851     1.007825032230
         H            3.495386391374     0.056783090667    -1.031034711149     1.007825032230
         H            2.353469391374    -1.203418909333    -1.534032711149     1.007825032230
         H            2.875138391374    -1.116503909333     0.152103288851     1.007825032230
         H           -2.171226608626    -1.320341909333    -0.270348711149     1.007825032230
         H           -2.060431608626    -0.477592909333     1.276710288851     1.007825032230
         H           -4.204452608626     0.120450090667     0.093207288851     1.007825032230
         H           -3.159006608626     1.544053090667     0.259405288851     1.007825032230
         H           -3.265882608626     0.699677090667    -1.296251711149     1.007825032230

  Basis Set: AUG-CC-PVTZ
    Blend: AUG-CC-PVTZ
  Basis Set: (AUG-CC-PVTZ AUX)
    Blend: AUG-CC-PVTZ-JKFIT
	 Reference Energy          =    -384.0857088639200470 [Eh]
	 Singles Energy            =      -0.0000000000000000 [Eh]
	 Same-Spin Energy          =      -0.3838614333485931 [Eh]
	 Opposite-Spin Energy      =      -1.2866465587370473 [Eh]
	 Correlation Energy        =      -1.6705079920856405 [Eh]
	 Total Energy              =    -385.7562168560056648 [Eh]

	 ================> DF-SCS-MP2 Energies <==================
	-----------------------------------------------------------
	 SCS Same-Spin Scale       =       0.3333333333333333 [-]
	 SCS Opposite-Spin Scale   =       1.2000000000000000 [-]
	 SCS Same-Spin Energy      =      -0.1279538111161977 [Eh]
	 SCS Opposite-Spin Energy  =      -1.5439758704844566 [Eh]
	 SCS Correlation Energy    =      -1.6719296816006544 [Eh]
	 SCS Total Energy          =    -385.7576385455207060 [Eh]
	-----------------------------------------------------------

  Dipole Moment: [D]
     X:    -0.7062      Y:     1.5971      Z:    -0.6128     Total:     1.8506

*** Psi4 exiting successfully. Buy a developer a beer!
