                               Psi4 1.3.2 release

  ==> Input File <==

--------------------------------------------------------------------------
#psi4
#
memory 32 gb

molecule  {
0 1
  O       -0.8946000     0.3180840    -0.2486650
  O        0.2608140    -1.4535000     0.5764690
  C        1.4621750     0.4213130    -0.3980820
  C        1.8184670     1.3890190     0.7353960
  C        2.6165010    -0.5169580    -0.7250520
  C        0.2312964    -0.3563476     0.0012574
  C       -2.1092640    -0.3317960     0.1925940
  C       -3.2536250     0.5656790    -0.2140850
  H        1.1688200     0.9981542    -1.2811809
  H        2.6888660     1.9907190     0.4595330
  H        2.0609350     0.8310830     1.6444090
  H        0.9859800     2.0639750     0.9510040
  H        3.4951390     0.0579210    -1.0318300
  H        2.3532220    -1.2022810    -1.5348280
  H        2.8748910    -1.1153660     0.1513080
  H       -2.1714740    -1.3192040    -0.2711440
  H       -2.0606790    -0.4764550     1.2759150
  H       -4.2047000     0.1215880     0.0924120
  H       -3.1592540     1.5451910     0.2586100
  H       -3.2661300     0.7008150    -1.2970470
units angstrom
no_reorient  #important for SAPT in psi4, default
symmetry c1  #important for SAPT in psi4, default
}

set PROPERTIES_ORIGIN ["COM"]
properties('MP2/aug-cc-pvtz', properties = ['dipole'])
--------------------------------------------------------------------------

    Molecular point group: c1
  Charge       = 0
  Multiplicity = 1
  Basis Set: AUG-CC-PVTZ
    Blend: AUG-CC-PVTZ
  Basis Set: (AUG-CC-PVTZ AUX)
    Blend: AUG-CC-PVTZ-JKFIT

    Orbital Energies [Eh]
    ---------------------

    Doubly Occupied:

       1A    -20.604780     2A    -20.535237     3A    -11.373829
       4A    -11.289138     5A    -11.245410     6A    -11.227175
       7A    -11.225639     8A    -11.216693     9A     -1.455118
      10A     -1.339542    11A     -1.094041    12A     -1.038093
      13A     -0.938785    14A     -0.898343    15A     -0.830028
      16A     -0.765966    17A     -0.696349    18A     -0.680486
      19A     -0.660065    20A     -0.619004    21A     -0.591233
      22A     -0.582701    23A     -0.556866    24A     -0.550756
      25A     -0.543945    26A     -0.518552    27A     -0.508867
      28A     -0.504546    29A     -0.490229    30A     -0.480353
      31A     -0.453334    32A     -0.433902

  @DF-RHF Final Energy:  -384.08426773966568

   => Energetics <=

    Nuclear Repulsion Energy =            395.8375235890754880
    One-Electron Energy =               -1307.9455710060587990
    Two-Electron Energy =                 528.0237796773176342
    Total Energy =                       -384.0842677396656200
  Basis Set: (AUG-CC-PVTZ AUX)
    Blend: AUG-CC-PVTZ-RI
    Molecular point group: c1

    Geometry (in Angstrom), charge = 0, multiplicity = 1:

       Center              X                  Y                   Z               Mass
    ------------   -----------------  -----------------  -----------------  -----------------
         O           -0.893056793318     0.317058826576    -0.246598716964    15.994914619570
         O            0.262357206682    -1.454525173424     0.578535283036    15.994914619570
         C            1.463718206682     0.420287826576    -0.396015716964    12.000000000000
         C            1.820010206682     1.387993826576     0.737462283036    12.000000000000
         C            2.618044206682    -0.517983173424    -0.722985716964    12.000000000000
         C            0.232839606682    -0.357372773424     0.003323683036    12.000000000000
         C           -2.107720793318    -0.332821173424     0.194660283036    12.000000000000
         C           -3.252081793318     0.564653826576    -0.212018716964    12.000000000000
         H            1.170363206682     0.997129026576    -1.279114616964     1.007825032230
         H            2.690409206682     1.989693826576     0.461599283036     1.007825032230
         H            2.062478206682     0.830057826576     1.646475283036     1.007825032230
         H            0.987523206682     2.062949826576     0.953070283036     1.007825032230
         H            3.496682206682     0.056895826576    -1.029763716964     1.007825032230
         H            2.354765206682    -1.203306173424    -1.532761716964     1.007825032230
         H            2.876434206682    -1.116391173424     0.153374283036     1.007825032230
         H           -2.169930793318    -1.320229173424    -0.269077716964     1.007825032230
         H           -2.059135793318    -0.477480173424     1.277981283036     1.007825032230
         H           -4.203156793318     0.120562826576     0.094478283036     1.007825032230
         H           -3.157710793318     1.544165826576     0.260676283036     1.007825032230
         H           -3.264586793318     0.699789826576    -1.294980716964     1.007825032230

  Basis Set: AUG-CC-PVTZ
    Blend: AUG-CC-PVTZ
  Basis Set: (AUG-CC-PVTZ AUX)
    Blend: AUG-CC-PVTZ-JKFIT
	 Reference Energy          =    -384.0842677396656768 [Eh]
	 Singles Energy            =      -0.0000000000000000 [Eh]
	 Same-Spin Energy          =      -0.3840622475942771 [Eh]
	 Opposite-Spin Energy      =      -1.2869792735388310 [Eh]
	 Correlation Energy        =      -1.6710415211331080 [Eh]
	 Total Energy              =    -385.7553092607988106 [Eh]

	 ================> DF-SCS-MP2 Energies <==================
	-----------------------------------------------------------
	 SCS Same-Spin Scale       =       0.3333333333333333 [-]
	 SCS Opposite-Spin Scale   =       1.2000000000000000 [-]
	 SCS Same-Spin Energy      =      -0.1280207491980924 [Eh]
	 SCS Opposite-Spin Energy  =      -1.5443751282465972 [Eh]
	 SCS Correlation Energy    =      -1.6723958774446896 [Eh]
	 SCS Total Energy          =    -385.7566636171103482 [Eh]
	-----------------------------------------------------------

  Dipole Moment: [D]
     X:    -0.8653      Y:     1.6956      Z:    -0.6600     Total:     2.0147

*** Psi4 exiting successfully. Buy a developer a beer!
