                               Psi4 1.3.2 release

  ==> Input File <==

--------------------------------------------------------------------------
#psi4
#
memory 32 gb

molecule  {
0 1
  O       -0.8946000     0.3180840    -0.2486650
  O        0.2608140    -1.4535000     0.5764690
  C        1.4621750     0.4213130    -0.3980820
  C        1.7952160     1.3258682     0.6614273
  C        2.6165010    -0.5169580    -0.7250520
  C        0.2447430    -0.3668820     0.0213200
  C       -2.1092640    -0.3317960     0.1925940
  C       -3.2536250     0.5656790    -0.2140850
  H        1.1864410     1.0054960    -1.2820320
  H        2.6888660     1.9907190     0.4595330
  H        2.0609350     0.8310830     1.6444090
  H        0.9859800     2.0639750     0.9510040
  H        3.4951390     0.0579210    -1.0318300
  H        2.3532220    -1.2022810    -1.5348280
  H        2.8748910    -1.1153660     0.1513080
  H       -2.1714740    -1.3192040    -0.2711440
  H       -2.0606790    -0.4764550     1.2759150
  H       -4.2047000     0.1215880     0.0924120
  H       -3.1592540     1.5451910     0.2586100
  H       -3.2661300     0.7008150    -1.2970470
units angstrom
no_reorient  #important for SAPT in psi4, default
symmetry c1  #important for SAPT in psi4, default
}

set PROPERTIES_ORIGIN ["COM"]
properties('MP2/aug-cc-pvtz', properties = ['dipole'])
--------------------------------------------------------------------------

    Molecular point group: c1
  Charge       = 0
  Multiplicity = 1
  Basis Set: AUG-CC-PVTZ
    Blend: AUG-CC-PVTZ
  Basis Set: (AUG-CC-PVTZ AUX)
    Blend: AUG-CC-PVTZ-JKFIT

    Orbital Energies [Eh]
    ---------------------

    Doubly Occupied:

       1A    -20.600195     2A    -20.541391     3A    -11.374780
       4A    -11.286966     5A    -11.241772     6A    -11.231492
       7A    -11.224212     8A    -11.217745     9A     -1.450897
      10A     -1.349886    11A     -1.110333    12A     -1.036193
      13A     -0.938484    14A     -0.893699    15A     -0.827283
      16A     -0.763113    17A     -0.703419    18A     -0.678765
      19A     -0.663926    20A     -0.628012    21A     -0.591317
      22A     -0.583377    23A     -0.557350    24A     -0.549455
      25A     -0.533510    26A     -0.520449    27A     -0.508915
      28A     -0.503293    29A     -0.494168    30A     -0.476729
      31A     -0.454758    32A     -0.434610

  @DF-RHF Final Energy:  -384.07417216804629

   => Energetics <=

    Nuclear Repulsion Energy =            397.5033633210533708
    One-Electron Energy =               -1311.2140868419621711
    Two-Electron Energy =                 529.6365513528625115
    Total Energy =                       -384.0741721680462888
  Basis Set: (AUG-CC-PVTZ AUX)
    Blend: AUG-CC-PVTZ-RI
    Molecular point group: c1

    Geometry (in Angstrom), charge = 0, multiplicity = 1:

       Center              X                  Y                   Z               Mass
    ------------   -----------------  -----------------  -----------------  -----------------
         O           -0.892196260017     0.324612194761    -0.241018856962    15.994914619570
         O            0.263217739983    -1.446971805239     0.584115143038    15.994914619570
         C            1.464578739983     0.427841194761    -0.390435856962    12.000000000000
         C            1.797619739983     1.332396394761     0.669073443038    12.000000000000
         C            2.618904739983    -0.510429805239    -0.717405856962    12.000000000000
         C            0.247146739983    -0.360353805239     0.028966143038    12.000000000000
         C           -2.106860260017    -0.325267805239     0.200240143038    12.000000000000
         C           -3.251221260017     0.572207194761    -0.206438856962    12.000000000000
         H            1.188844739983     1.012024194761    -1.274385856962     1.007825032230
         H            2.691269739983     1.997247194761     0.467179143038     1.007825032230
         H            2.063338739983     0.837611194761     1.652055143038     1.007825032230
         H            0.988383739983     2.070503194761     0.958650143038     1.007825032230
         H            3.497542739983     0.064449194761    -1.024183856962     1.007825032230
         H            2.355625739983    -1.195752805239    -1.527181856962     1.007825032230
         H            2.877294739983    -1.108837805239     0.158954143038     1.007825032230
         H           -2.169070260017    -1.312675805239    -0.263497856962     1.007825032230
         H           -2.058275260017    -0.469926805239     1.283561143038     1.007825032230
         H           -4.202296260017     0.128116194761     0.100058143038     1.007825032230
         H           -3.156850260017     1.551719194761     0.266256143038     1.007825032230
         H           -3.263726260017     0.707343194761    -1.289400856962     1.007825032230

  Basis Set: AUG-CC-PVTZ
    Blend: AUG-CC-PVTZ
  Basis Set: (AUG-CC-PVTZ AUX)
    Blend: AUG-CC-PVTZ-JKFIT
	 Reference Energy          =    -384.0741721680462888 [Eh]
	 Singles Energy            =      -0.0000000000000000 [Eh]
	 Same-Spin Energy          =      -0.3849371893500316 [Eh]
	 Opposite-Spin Energy      =      -1.2879635354188557 [Eh]
	 Correlation Energy        =      -1.6729007247688874 [Eh]
	 Total Energy              =    -385.7470728928151971 [Eh]

	 ================> DF-SCS-MP2 Energies <==================
	-----------------------------------------------------------
	 SCS Same-Spin Scale       =       0.3333333333333333 [-]
	 SCS Opposite-Spin Scale   =       1.2000000000000000 [-]
	 SCS Same-Spin Energy      =      -0.1283123964500105 [Eh]
	 SCS Opposite-Spin Energy  =      -1.5455562425026268 [Eh]
	 SCS Correlation Energy    =      -1.6738686389526374 [Eh]
	 SCS Total Energy          =    -385.7480408069989153 [Eh]
	-----------------------------------------------------------

  Dipole Moment: [D]
     X:    -0.7492      Y:     1.5587      Z:    -0.6239     Total:     1.8385

*** Psi4 exiting successfully. Buy a developer a beer!
