                               Psi4 1.3.2 release

  ==> Input File <==

--------------------------------------------------------------------------
#psi4
#
memory 32 gb

molecule  {
0 1
  O       -0.8811681     0.2989211    -0.2391913
  O        0.2608140    -1.4535000     0.5764690
  C        1.4621750     0.4213130    -0.3980820
  C        1.8184670     1.3890190     0.7353960
  C        2.6165010    -0.5169580    -0.7250520
  C        0.2447430    -0.3668820     0.0213200
  C       -2.1092640    -0.3317960     0.1925940
  C       -3.2705666     0.5484854    -0.2035022
  H        1.1864410     1.0054960    -1.2820320
  H        2.6888660     1.9907190     0.4595330
  H        2.0609350     0.8310830     1.6444090
  H        0.9859800     2.0639750     0.9510040
  H        3.4951390     0.0579210    -1.0318300
  H        2.3532220    -1.2022810    -1.5348280
  H        2.8748910    -1.1153660     0.1513080
  H       -2.1714740    -1.3192040    -0.2711440
  H       -2.0606790    -0.4764550     1.2759150
  H       -4.2047000     0.1215880     0.0924120
  H       -3.1592540     1.5451910     0.2586100
  H       -3.2661300     0.7008150    -1.2970470
units angstrom
no_reorient  #important for SAPT in psi4, default
symmetry c1  #important for SAPT in psi4, default
}

set PROPERTIES_ORIGIN ["COM"]
properties('MP2/aug-cc-pvtz', properties = ['dipole'])
--------------------------------------------------------------------------

    Molecular point group: c1
  Charge       = 0
  Multiplicity = 1
  Basis Set: AUG-CC-PVTZ
    Blend: AUG-CC-PVTZ
  Basis Set: (AUG-CC-PVTZ AUX)
    Blend: AUG-CC-PVTZ-JKFIT

    Orbital Energies [Eh]
    ---------------------

    Doubly Occupied:

       1A    -20.600509     2A    -20.535393     3A    -11.370505
       4A    -11.288307     5A    -11.244770     6A    -11.226715
       7A    -11.225945     8A    -11.216459     9A     -1.457222
      10A     -1.347111    11A     -1.094105    12A     -1.037769
      13A     -0.938762    14A     -0.898511    15A     -0.828111
      16A     -0.764673    17A     -0.698773    18A     -0.679800
      19A     -0.661923    20A     -0.619202    21A     -0.590721
      22A     -0.583303    23A     -0.564698    24A     -0.551228
      25A     -0.543725    26A     -0.519029    27A     -0.506144
      28A     -0.502861    29A     -0.489174    30A     -0.480216
      31A     -0.453687    32A     -0.435040

  @DF-RHF Final Energy:  -384.08651154079860

   => Energetics <=

    Nuclear Repulsion Energy =            396.2199468720605182
    One-Electron Energy =               -1308.7041332219923788
    Two-Electron Energy =                 528.3976748091332638
    Total Energy =                       -384.0865115407985968
  Basis Set: (AUG-CC-PVTZ AUX)
    Blend: AUG-CC-PVTZ-RI
    Molecular point group: c1

    Geometry (in Angstrom), charge = 0, multiplicity = 1:

       Center              X                  Y                   Z               Mass
    ------------   -----------------  -----------------  -----------------  -----------------
         O           -0.881267336916     0.303338943453    -0.241590914678    15.994914619570
         O            0.260714763084    -1.449082156547     0.574069385322    15.994914619570
         C            1.462075763084     0.425730843453    -0.400481614678    12.000000000000
         C            1.818367763084     1.393436843453     0.732996385322    12.000000000000
         C            2.616401763084    -0.512540156547    -0.727451614678    12.000000000000
         C            0.244643763084    -0.362464156547     0.018920385322    12.000000000000
         C           -2.109363236916    -0.327378156547     0.190194385322    12.000000000000
         C           -3.270665836916     0.552903243453    -0.205901814678    12.000000000000
         H            1.186341763084     1.009913843453    -1.284431614678     1.007825032230
         H            2.688766763084     1.995136843453     0.457133385322     1.007825032230
         H            2.060835763084     0.835500843453     1.642009385322     1.007825032230
         H            0.985880763084     2.068392843453     0.948604385322     1.007825032230
         H            3.495039763084     0.062338843453    -1.034229614678     1.007825032230
         H            2.353122763084    -1.197863156547    -1.537227614678     1.007825032230
         H            2.874791763084    -1.110948156547     0.148908385322     1.007825032230
         H           -2.171573236916    -1.314786156547    -0.273543614678     1.007825032230
         H           -2.060778236916    -0.472037156547     1.273515385322     1.007825032230
         H           -4.204799236916     0.126005843453     0.090012385322     1.007825032230
         H           -3.159353236916     1.549608843453     0.256210385322     1.007825032230
         H           -3.266229236916     0.705232843453    -1.299446614678     1.007825032230

  Basis Set: AUG-CC-PVTZ
    Blend: AUG-CC-PVTZ
  Basis Set: (AUG-CC-PVTZ AUX)
    Blend: AUG-CC-PVTZ-JKFIT
	 Reference Energy          =    -384.0865115407985968 [Eh]
	 Singles Energy            =      -0.0000000000000000 [Eh]
	 Same-Spin Energy          =      -0.3834757406358508 [Eh]
	 Opposite-Spin Energy      =      -1.2855780594019537 [Eh]
	 Correlation Energy        =      -1.6690538000378043 [Eh]
	 Total Energy              =    -385.7555653408364265 [Eh]

	 ================> DF-SCS-MP2 Energies <==================
	-----------------------------------------------------------
	 SCS Same-Spin Scale       =       0.3333333333333333 [-]
	 SCS Opposite-Spin Scale   =       1.2000000000000000 [-]
	 SCS Same-Spin Energy      =      -0.1278252468786169 [Eh]
	 SCS Opposite-Spin Energy  =      -1.5426936712823445 [Eh]
	 SCS Correlation Energy    =      -1.6705189181609614 [Eh]
	 SCS Total Energy          =    -385.7570304589595480 [Eh]
	-----------------------------------------------------------

  Dipole Moment: [D]
     X:    -0.8454      Y:     1.6666      Z:    -0.6397     Total:     1.9752

*** Psi4 exiting successfully. Buy a developer a beer!
