                               Psi4 1.3.2 release

  ==> Input File <==

--------------------------------------------------------------------------
#psi4
#
memory 32 gb

molecule  {
0 1
  O       -0.8946000     0.3180840    -0.2486650
  O        0.2608140    -1.4535000     0.5764690
  C        1.4621750     0.4213130    -0.3980820
  C        1.8390694     1.3980256     0.7209151
  C        2.6165010    -0.5169580    -0.7250520
  C        0.2454510    -0.3797611    -0.0016566
  C       -2.1092640    -0.3317960     0.1925940
  C       -3.2536250     0.5656790    -0.2140850
  H        1.1864410     1.0054960    -1.2820320
  H        2.6888660     1.9907190     0.4595330
  H        2.0609350     0.8310830     1.6444090
  H        0.9859800     2.0639750     0.9510040
  H        3.4951390     0.0579210    -1.0318300
  H        2.3532220    -1.2022810    -1.5348280
  H        2.8748910    -1.1153660     0.1513080
  H       -2.1714740    -1.3192040    -0.2711440
  H       -2.0606790    -0.4764550     1.2759150
  H       -4.2047000     0.1215880     0.0924120
  H       -3.1592540     1.5451910     0.2586100
  H       -3.2661300     0.7008150    -1.2970470
units angstrom
no_reorient  #important for SAPT in psi4, default
symmetry c1  #important for SAPT in psi4, default
}

set PROPERTIES_ORIGIN ["COM"]
properties('MP2/aug-cc-pvtz', properties = ['dipole'])
--------------------------------------------------------------------------

    Molecular point group: c1
  Charge       = 0
  Multiplicity = 1
  Basis Set: AUG-CC-PVTZ
    Blend: AUG-CC-PVTZ
  Basis Set: (AUG-CC-PVTZ AUX)
    Blend: AUG-CC-PVTZ-JKFIT

    Orbital Energies [Eh]
    ---------------------

    Doubly Occupied:

       1A    -20.599062     2A    -20.541351     3A    -11.374269
       4A    -11.286335     5A    -11.245730     6A    -11.227430
       7A    -11.223829     8A    -11.216866     9A     -1.449331
      10A     -1.349438    11A     -1.094069    12A     -1.034401
      13A     -0.938826    14A     -0.895725    15A     -0.828606
      16A     -0.761331    17A     -0.698897    18A     -0.677670
      19A     -0.660784    20A     -0.619206    21A     -0.591061
      22A     -0.583983    23A     -0.555884    24A     -0.550952
      25A     -0.544655    26A     -0.519800    27A     -0.509945
      28A     -0.505436    29A     -0.486620    30A     -0.479769
      31A     -0.455273    32A     -0.437621

  @DF-RHF Final Energy:  -384.08445593116636

   => Energetics <=

    Nuclear Repulsion Energy =            395.6035554583633029
    One-Electron Energy =               -1307.4877135336334959
    Two-Electron Energy =                 527.7997021441038896
    Total Energy =                       -384.0844559311663033
  Basis Set: (AUG-CC-PVTZ AUX)
    Blend: AUG-CC-PVTZ-RI
    Molecular point group: c1

    Geometry (in Angstrom), charge = 0, multiplicity = 1:

       Center              X                  Y                   Z               Mass
    ------------   -----------------  -----------------  -----------------  -----------------
         O           -0.896802735030     0.318484379930    -0.244793153338    15.994914619570
         O            0.258611264970    -1.453099620070     0.580340846662    15.994914619570
         C            1.459972264970     0.421713379930    -0.394210153338    12.000000000000
         C            1.836866664970     1.398425979930     0.724786946662    12.000000000000
         C            2.614298264970    -0.516557620070    -0.721180153338    12.000000000000
         C            0.243248264970    -0.379360720070     0.002215246662    12.000000000000
         C           -2.111466735030    -0.331395620070     0.196465846662    12.000000000000
         C           -3.255827735030     0.566079379930    -0.210213153338    12.000000000000
         H            1.184238264970     1.005896379930    -1.278160153338     1.007825032230
         H            2.686663264970     1.991119379930     0.463404846662     1.007825032230
         H            2.058732264970     0.831483379930     1.648280846662     1.007825032230
         H            0.983777264970     2.064375379930     0.954875846662     1.007825032230
         H            3.492936264970     0.058321379930    -1.027958153338     1.007825032230
         H            2.351019264970    -1.201880620070    -1.530956153338     1.007825032230
         H            2.872688264970    -1.114965620070     0.155179846662     1.007825032230
         H           -2.173676735030    -1.318803620070    -0.267272153338     1.007825032230
         H           -2.062881735030    -0.476054620070     1.279786846662     1.007825032230
         H           -4.206902735030     0.121988379930     0.096283846662     1.007825032230
         H           -3.161456735030     1.545591379930     0.262481846662     1.007825032230
         H           -3.268332735030     0.701215379930    -1.293175153338     1.007825032230

  Basis Set: AUG-CC-PVTZ
    Blend: AUG-CC-PVTZ
  Basis Set: (AUG-CC-PVTZ AUX)
    Blend: AUG-CC-PVTZ-JKFIT
	 Reference Energy          =    -384.0844559311663602 [Eh]
	 Singles Energy            =      -0.0000000000000000 [Eh]
	 Same-Spin Energy          =      -0.3838864422882917 [Eh]
	 Opposite-Spin Energy      =      -1.2868130719943887 [Eh]
	 Correlation Energy        =      -1.6706995142826804 [Eh]
	 Total Energy              =    -385.7551554454490201 [Eh]

	 ================> DF-SCS-MP2 Energies <==================
	-----------------------------------------------------------
	 SCS Same-Spin Scale       =       0.3333333333333333 [-]
	 SCS Opposite-Spin Scale   =       1.2000000000000000 [-]
	 SCS Same-Spin Energy      =      -0.1279621474294305 [Eh]
	 SCS Opposite-Spin Energy  =      -1.5441756863932663 [Eh]
	 SCS Correlation Energy    =      -1.6721378338226969 [Eh]
	 SCS Total Energy          =    -385.7565937649890770 [Eh]
	-----------------------------------------------------------

  Dipole Moment: [D]
     X:    -0.6941      Y:     1.5750      Z:    -0.6225     Total:     1.8302

*** Psi4 exiting successfully. Buy a developer a beer!
