                               Psi4 1.3.2 release

  ==> Input File <==

--------------------------------------------------------------------------
#psi4
#
memory 32 gb

molecule  {
0 1
  O       -0.8816637     0.3353479    -0.2584192
  O        0.2820651    -1.4536948     0.5750639
  C        1.4621750     0.4213130    -0.3980820
  C        1.8184670     1.3890190     0.7353960
  C        2.6165010    -0.5169580    -0.7250520
  C        0.2447430    -0.3668820     0.0213200
  C       -2.1092640    -0.3317960     0.1925940
  C       -3.2536250     0.5656790    -0.2140850
  H        1.1864410     1.0054960    -1.2820320
  H        2.6888660     1.9907190     0.4595330
  H        2.0609350     0.8310830     1.6444090
  H        0.9859800     2.0639750     0.9510040
  H        3.4951390     0.0579210    -1.0318300
  H        2.3532220    -1.2022810    -1.5348280
  H        2.8748910    -1.1153660     0.1513080
  H       -2.1714740    -1.3192040    -0.2711440
  H       -2.0606790    -0.4764550     1.2759150
  H       -4.2047000     0.1215880     0.0924120
  H       -3.1592540     1.5451910     0.2586100
  H       -3.2661300     0.7008150    -1.2970470
units angstrom
no_reorient  #important for SAPT in psi4, default
symmetry c1  #important for SAPT in psi4, default
}

set PROPERTIES_ORIGIN ["COM"]
properties('MP2/aug-cc-pvtz', properties = ['dipole'])
--------------------------------------------------------------------------

    Molecular point group: c1
  Charge       = 0
  Multiplicity = 1
  Basis Set: AUG-CC-PVTZ
    Blend: AUG-CC-PVTZ
  Basis Set: (AUG-CC-PVTZ AUX)
    Blend: AUG-CC-PVTZ-JKFIT

    Orbital Energies [Eh]
    ---------------------

    Doubly Occupied:

       1A    -20.601884     2A    -20.540826     3A    -11.372996
       4A    -11.289875     5A    -11.242885     6A    -11.225846
       7A    -11.225457     8A    -11.215510     9A     -1.446597
      10A     -1.349269    11A     -1.092330    12A     -1.035461
      13A     -0.937873    14A     -0.893057    15A     -0.828992
      16A     -0.760136    17A     -0.697564    18A     -0.676451
      19A     -0.660388    20A     -0.618693    21A     -0.591328
      22A     -0.582378    23A     -0.555694    24A     -0.549188
      25A     -0.543516    26A     -0.519567    27A     -0.511443
      28A     -0.506360    29A     -0.487764    30A     -0.480093
      31A     -0.457990    32A     -0.434350

  @DF-RHF Final Energy:  -384.08416080691183

   => Energetics <=

    Nuclear Repulsion Energy =            395.5096126521518158
    One-Electron Energy =               -1307.3240220661859894
    Two-Electron Energy =                 527.7302486071223484
    Total Energy =                       -384.0841608069117683
  Basis Set: (AUG-CC-PVTZ AUX)
    Blend: AUG-CC-PVTZ-RI
    Molecular point group: c1

    Geometry (in Angstrom), charge = 0, multiplicity = 1:

       Center              X                  Y                   Z               Mass
    ------------   -----------------  -----------------  -----------------  -----------------
         O           -0.886374105528     0.332996052739    -0.256881857494    15.994914619570
         O            0.277354694472    -1.456046647261     0.576601242506    15.994914619570
         C            1.457464594472     0.418961152739    -0.396544657494    12.000000000000
         C            1.813756594472     1.386667152739     0.736933342506    12.000000000000
         C            2.611790594472    -0.519309847261    -0.723514657494    12.000000000000
         C            0.240032594472    -0.369233847261     0.022857342506    12.000000000000
         C           -2.113974405528    -0.334147847261     0.194131342506    12.000000000000
         C           -3.258335405528     0.563327152739    -0.212547657494    12.000000000000
         H            1.181730594472     1.003144152739    -1.280494657494     1.007825032230
         H            2.684155594472     1.988367152739     0.461070342506     1.007825032230
         H            2.056224594472     0.828731152739     1.645946342506     1.007825032230
         H            0.981269594472     2.061623152739     0.952541342506     1.007825032230
         H            3.490428594472     0.055569152739    -1.030292657494     1.007825032230
         H            2.348511594472    -1.204632847261    -1.533290657494     1.007825032230
         H            2.870180594472    -1.117717847261     0.152845342506     1.007825032230
         H           -2.176184405528    -1.321555847261    -0.269606657494     1.007825032230
         H           -2.065389405528    -0.478806847261     1.277452342506     1.007825032230
         H           -4.209410405528     0.119236152739     0.093949342506     1.007825032230
         H           -3.163964405528     1.542839152739     0.260147342506     1.007825032230
         H           -3.270840405528     0.698463152739    -1.295509657494     1.007825032230

  Basis Set: AUG-CC-PVTZ
    Blend: AUG-CC-PVTZ
  Basis Set: (AUG-CC-PVTZ AUX)
    Blend: AUG-CC-PVTZ-JKFIT
	 Reference Energy          =    -384.0841608069118251 [Eh]
	 Singles Energy            =      -0.0000000000000000 [Eh]
	 Same-Spin Energy          =      -0.3840858406875144 [Eh]
	 Opposite-Spin Energy      =      -1.2874270181309895 [Eh]
	 Correlation Energy        =      -1.6715128588185038 [Eh]
	 Total Energy              =    -385.7556736657303418 [Eh]

	 ================> DF-SCS-MP2 Energies <==================
	-----------------------------------------------------------
	 SCS Same-Spin Scale       =       0.3333333333333333 [-]
	 SCS Opposite-Spin Scale   =       1.2000000000000000 [-]
	 SCS Same-Spin Energy      =      -0.1280286135625048 [Eh]
	 SCS Opposite-Spin Energy  =      -1.5449124217571872 [Eh]
	 SCS Correlation Energy    =      -1.6729410353196921 [Eh]
	 SCS Total Energy          =    -385.7571018422315205 [Eh]
	-----------------------------------------------------------

  Dipole Moment: [D]
     X:    -0.8690      Y:     1.5478      Z:    -0.5786     Total:     1.8670

*** Psi4 exiting successfully. Buy a developer a beer!
