                               Psi4 1.3.2 release

  ==> Input File <==

--------------------------------------------------------------------------
#psi4
#
memory 32 gb

molecule  {
0 1
  O       -0.9009383     0.3093735    -0.2437569
  O        0.2501862    -1.4532785     0.5771082
  C        1.4621750     0.4213130    -0.3980820
  C        1.8184670     1.3890190     0.7353960
  C        2.6165010    -0.5169580    -0.7250520
  C        0.2447430    -0.3668820     0.0213200
  C       -2.1092640    -0.3317960     0.1925940
  C       -3.2536250     0.5656790    -0.2140850
  H        1.1864410     1.0054960    -1.2820320
  H        2.6888660     1.9907190     0.4595330
  H        2.0609350     0.8310830     1.6444090
  H        0.9859800     2.0639750     0.9510040
  H        3.4951390     0.0579210    -1.0318300
  H        2.3532220    -1.2022810    -1.5348280
  H        2.8748910    -1.1153660     0.1513080
  H       -2.1714740    -1.3192040    -0.2711440
  H       -2.0606790    -0.4764550     1.2759150
  H       -4.2047000     0.1215880     0.0924120
  H       -3.1592540     1.5451910     0.2586100
  H       -3.2661300     0.7008150    -1.2970470
units angstrom
no_reorient  #important for SAPT in psi4, default
symmetry c1  #important for SAPT in psi4, default
}

set PROPERTIES_ORIGIN ["COM"]
properties('MP2/aug-cc-pvtz', properties = ['dipole'])
--------------------------------------------------------------------------

    Molecular point group: c1
  Charge       = 0
  Multiplicity = 1
  Basis Set: AUG-CC-PVTZ
    Blend: AUG-CC-PVTZ
  Basis Set: (AUG-CC-PVTZ AUX)
    Blend: AUG-CC-PVTZ-JKFIT

    Orbital Energies [Eh]
    ---------------------

    Doubly Occupied:

       1A    -20.598162     2A    -20.539869     3A    -11.373806
       4A    -11.284852     5A    -11.246982     6A    -11.227869
       7A    -11.223235     8A    -11.218031     9A     -1.451617
      10A     -1.348737    11A     -1.095347    12A     -1.034257
      13A     -0.940077    14A     -0.896305    15A     -0.828156
      16A     -0.762626    17A     -0.699905    18A     -0.678642
      19A     -0.661159    20A     -0.620230    21A     -0.590783
      22A     -0.584289    23A     -0.555399    24A     -0.549968
      25A     -0.544787    26A     -0.519605    27A     -0.508198
      28A     -0.505269    29A     -0.490366    30A     -0.481479
      31A     -0.453920    32A     -0.436695

  @DF-RHF Final Energy:  -384.08637162054544

   => Energetics <=

    Nuclear Repulsion Energy =            395.9740799291772078
    One-Electron Energy =               -1308.2196603001243602
    Two-Electron Energy =                 528.1592087504017172
    Total Energy =                       -384.0863716205454921
  Basis Set: (AUG-CC-PVTZ AUX)
    Blend: AUG-CC-PVTZ-RI
    Molecular point group: c1

    Geometry (in Angstrom), charge = 0, multiplicity = 1:

       Center              X                  Y                   Z               Mass
    ------------   -----------------  -----------------  -----------------  -----------------
         O           -0.898600380430     0.310543245547    -0.244521522131    15.994914619570
         O            0.252524119570    -1.452108754453     0.576343577869    15.994914619570
         C            1.464512919570     0.422482745547    -0.398846622131    12.000000000000
         C            1.820804919570     1.390188745547     0.734631377869    12.000000000000
         C            2.618838919570    -0.515788254453    -0.725816622131    12.000000000000
         C            0.247080919570    -0.365712254453     0.020555377869    12.000000000000
         C           -2.106926080430    -0.330626254453     0.191829377869    12.000000000000
         C           -3.251287080430     0.566848745547    -0.214849622131    12.000000000000
         H            1.188778919570     1.006665745547    -1.282796622131     1.007825032230
         H            2.691203919570     1.991888745547     0.458768377869     1.007825032230
         H            2.063272919570     0.832252745547     1.643644377869     1.007825032230
         H            0.988317919570     2.065144745547     0.950239377869     1.007825032230
         H            3.497476919570     0.059090745547    -1.032594622131     1.007825032230
         H            2.355559919570    -1.201111254453    -1.535592622131     1.007825032230
         H            2.877228919570    -1.114196254453     0.150543377869     1.007825032230
         H           -2.169136080430    -1.318034254453    -0.271908622131     1.007825032230
         H           -2.058341080430    -0.475285254453     1.275150377869     1.007825032230
         H           -4.202362080430     0.122757745547     0.091647377869     1.007825032230
         H           -3.156916080430     1.546360745547     0.257845377869     1.007825032230
         H           -3.263792080430     0.701984745547    -1.297811622131     1.007825032230

  Basis Set: AUG-CC-PVTZ
    Blend: AUG-CC-PVTZ
  Basis Set: (AUG-CC-PVTZ AUX)
    Blend: AUG-CC-PVTZ-JKFIT
	 Reference Energy          =    -384.0863716205454352 [Eh]
	 Singles Energy            =      -0.0000000000000000 [Eh]
	 Same-Spin Energy          =      -0.3837632613147764 [Eh]
	 Opposite-Spin Energy      =      -1.2862735837606811 [Eh]
	 Correlation Energy        =      -1.6700368450754577 [Eh]
	 Total Energy              =    -385.7564084656208934 [Eh]

	 ================> DF-SCS-MP2 Energies <==================
	-----------------------------------------------------------
	 SCS Same-Spin Scale       =       0.3333333333333333 [-]
	 SCS Opposite-Spin Scale   =       1.2000000000000000 [-]
	 SCS Same-Spin Energy      =      -0.1279210871049255 [Eh]
	 SCS Opposite-Spin Energy  =      -1.5435283005128173 [Eh]
	 SCS Correlation Energy    =      -1.6714493876177428 [Eh]
	 SCS Total Energy          =    -385.7578210081632051 [Eh]
	-----------------------------------------------------------

  Dipole Moment: [D]
     X:    -0.6220      Y:     1.6175      Z:    -0.6238     Total:     1.8418

*** Psi4 exiting successfully. Buy a developer a beer!
