                               Psi4 1.3.2 release

  ==> Input File <==

--------------------------------------------------------------------------
#psi4
#
memory 32 gb

molecule  {
0 1
  N        1.9514160     0.5241040     0.0000050
  C        1.2264599    -0.6317915    -0.0000033
  C       -0.1789070    -0.5171830    -0.0000110
  C       -0.7103380     0.7755800     0.0000000
  N       -0.0279430     1.9332850     0.0000050
  C        1.2911430     1.7045360     0.0000120
  N       -1.1651470    -1.4838950    -0.0000170
  C       -2.2855240    -0.7743080     0.0000440
  N       -2.0747130     0.5813540    -0.0000230
  N        1.8664710    -1.8000490    -0.0000060
  H        1.9266830     2.5875900     0.0000020
  H       -3.2831410    -1.1955370     0.0000680
  H       -2.7752520     1.3134440    -0.0000840
  H        2.8756040    -1.8180060     0.0000090
  H        1.3377970    -2.6593590     0.0000020
units angstrom
no_reorient  #important for SAPT in psi4, default
symmetry c1  #important for SAPT in psi4, default
}

set PROPERTIES_ORIGIN ["COM"]
properties('MP2/aug-cc-pvtz', properties = ['dipole'])
--------------------------------------------------------------------------

    Molecular point group: c1
  Charge       = 0
  Multiplicity = 1
  Basis Set: AUG-CC-PVTZ
    Blend: AUG-CC-PVTZ
  Basis Set: (AUG-CC-PVTZ AUX)
    Blend: AUG-CC-PVTZ-JKFIT

    Orbital Energies [Eh]
    ---------------------

    Doubly Occupied:

       1A    -15.633886     2A    -15.590208     3A    -15.570772
       4A    -15.556607     5A    -15.550584     6A    -11.339720
       7A    -11.325698     8A    -11.317998     9A    -11.310557
      10A    -11.251919    11A     -1.365303    12A     -1.295960
      13A     -1.249262    14A     -1.186399    15A     -1.147069
      16A     -1.031149    17A     -0.894677    18A     -0.873201
      19A     -0.845398    20A     -0.780120    21A     -0.742146
      22A     -0.700071    23A     -0.674787    24A     -0.636821
      25A     -0.635366    26A     -0.611715    27A     -0.588562
      28A     -0.558433    29A     -0.498506    30A     -0.495288
      31A     -0.449466    32A     -0.425000    33A     -0.408895
      34A     -0.370615    35A     -0.306149

  @DF-RHF Final Energy:  -464.68091835143099

   => Energetics <=

    Nuclear Repulsion Energy =            501.6632734047870485
    One-Electron Energy =               -1626.2517651031396326
    Two-Electron Energy =                 659.9075733469214811
    Total Energy =                       -464.6809183514310462
  Basis Set: (AUG-CC-PVTZ AUX)
    Blend: AUG-CC-PVTZ-RI
    Molecular point group: c1

    Geometry (in Angstrom), charge = 0, multiplicity = 1:

       Center              X                  Y                   Z               Mass
    ------------   -----------------  -----------------  -----------------  -----------------
         N            1.952162335800     0.513273547264     0.000005049862    14.003074004430
         C            1.227206235800    -0.642621952736    -0.000003250138    12.000000000000
         C           -0.178160664200    -0.528013452736    -0.000010950138    12.000000000000
         C           -0.709591664200     0.764749547264     0.000000049862    12.000000000000
         N           -0.027196664200     1.922454547264     0.000005049862    14.003074004430
         C            1.291889335800     1.693705547264     0.000012049862    12.000000000000
         N           -1.164400664200    -1.494725452736    -0.000016950138    14.003074004430
         C           -2.284777664200    -0.785138452736     0.000044049862    12.000000000000
         N           -2.073966664200     0.570523547264    -0.000022950138    14.003074004430
         N            1.867217335800    -1.810879452736    -0.000005950138    14.003074004430
         H            1.927429335800     2.576759547264     0.000002049862     1.007825032230
         H           -3.282394664200    -1.206367452736     0.000068049862     1.007825032230
         H           -2.774505664200     1.302613547264    -0.000083950138     1.007825032230
         H            2.876350335800    -1.828836452736     0.000009049862     1.007825032230
         H            1.338543335800    -2.670189452736     0.000002049862     1.007825032230

  Basis Set: AUG-CC-PVTZ
    Blend: AUG-CC-PVTZ
  Basis Set: (AUG-CC-PVTZ AUX)
    Blend: AUG-CC-PVTZ-JKFIT
	 Reference Energy          =    -464.6809183514309893 [Eh]
	 Singles Energy            =      -0.0000000000000000 [Eh]
	 Same-Spin Energy          =      -0.5063512271028854 [Eh]
	 Opposite-Spin Energy      =      -1.4763815015672246 [Eh]
	 Correlation Energy        =      -1.9827327286701100 [Eh]
	 Total Energy              =    -466.6636510801010900 [Eh]

	 ================> DF-SCS-MP2 Energies <==================
	-----------------------------------------------------------
	 SCS Same-Spin Scale       =       0.3333333333333333 [-]
	 SCS Opposite-Spin Scale   =       1.2000000000000000 [-]
	 SCS Same-Spin Energy      =      -0.1687837423676284 [Eh]
	 SCS Opposite-Spin Energy  =      -1.7716578018806695 [Eh]
	 SCS Correlation Energy    =      -1.9404415442482978 [Eh]
	 SCS Total Energy          =    -466.6213598956792907 [Eh]
	-----------------------------------------------------------

  Dipole Moment: [D]
     X:    -2.1634      Y:    -1.3811      Z:    -0.0000     Total:     2.5667

*** Psi4 exiting successfully. Buy a developer a beer!
