                               Psi4 1.3.2 release

  ==> Input File <==

--------------------------------------------------------------------------
#psi4
#
memory 32 gb

molecule  {
0 1
  N        1.9514160     0.5241040     0.0000050
  C        1.2282460    -0.6072470    -0.0000030
  C       -0.3169488    -0.5656508    -0.0000108
  C       -0.7103380     0.7755800     0.0000000
  N       -0.0279430     1.9332850     0.0000050
  C        1.2911430     1.7045360     0.0000120
  N       -1.1651470    -1.4838950    -0.0000170
  C       -2.2855240    -0.7743080     0.0000440
  N       -2.0747130     0.5813540    -0.0000230
  N        1.8664710    -1.8000490    -0.0000060
  H        1.9266830     2.5875900     0.0000020
  H       -3.2831410    -1.1955370     0.0000680
  H       -2.7752520     1.3134440    -0.0000840
  H        2.8756040    -1.8180060     0.0000090
  H        1.3377970    -2.6593590     0.0000020
units angstrom
no_reorient  #important for SAPT in psi4, default
symmetry c1  #important for SAPT in psi4, default
}

set PROPERTIES_ORIGIN ["COM"]
properties('MP2/aug-cc-pvtz', properties = ['dipole'])
--------------------------------------------------------------------------

    Molecular point group: c1
  Charge       = 0
  Multiplicity = 1
  Basis Set: AUG-CC-PVTZ
    Blend: AUG-CC-PVTZ
  Basis Set: (AUG-CC-PVTZ AUX)
    Blend: AUG-CC-PVTZ-JKFIT

    Orbital Energies [Eh]
    ---------------------

    Doubly Occupied:

       1A    -15.635976     2A    -15.590675     3A    -15.568124
       4A    -15.557723     5A    -15.551207     6A    -11.348523
       7A    -11.321395     8A    -11.311501     9A    -11.305447
      10A    -11.259172    11A     -1.385758    12A     -1.294622
      13A     -1.251377    14A     -1.208644    15A     -1.151003
      16A     -1.017643    17A     -0.892065    18A     -0.869678
      19A     -0.852643    20A     -0.775899    21A     -0.741533
      22A     -0.704594    23A     -0.680548    24A     -0.644028
      25A     -0.634335    26A     -0.590548    27A     -0.580249
      28A     -0.555542    29A     -0.500213    30A     -0.499443
      31A     -0.470392    32A     -0.439717    33A     -0.400573
      34A     -0.374576    35A     -0.289387

  @DF-RHF Final Energy:  -464.64698029193659

   => Energetics <=

    Nuclear Repulsion Energy =            501.9952185031713725
    One-Electron Energy =               -1626.7748911993846832
    Two-Electron Energy =                 660.1326924042767814
    Total Energy =                       -464.6469802919365293
  Basis Set: (AUG-CC-PVTZ AUX)
    Blend: AUG-CC-PVTZ-RI
    Molecular point group: c1

    Geometry (in Angstrom), charge = 0, multiplicity = 1:

       Center              X                  Y                   Z               Mass
    ------------   -----------------  -----------------  -----------------  -----------------
         N            1.964269066477     0.515399204760     0.000005005436    14.003074004430
         C            1.241099066477    -0.615951795240    -0.000002994564    12.000000000000
         C           -0.304095733523    -0.574355595240    -0.000010794564    12.000000000000
         C           -0.697484933523     0.766875204760     0.000000005436    12.000000000000
         N           -0.015089933523     1.924580204760     0.000005005436    14.003074004430
         C            1.303996066477     1.695831204760     0.000012005436    12.000000000000
         N           -1.152293933523    -1.492599795240    -0.000016994564    14.003074004430
         C           -2.272670933523    -0.783012795240     0.000044005436    12.000000000000
         N           -2.061859933523     0.572649204760    -0.000022994564    14.003074004430
         N            1.879324066477    -1.808753795240    -0.000005994564    14.003074004430
         H            1.939536066477     2.578885204760     0.000002005436     1.007825032230
         H           -3.270287933523    -1.204241795240     0.000068005436     1.007825032230
         H           -2.762398933523     1.304739204760    -0.000083994564     1.007825032230
         H            2.888457066477    -1.826710795240     0.000009005436     1.007825032230
         H            1.350650066477    -2.668063795240     0.000002005436     1.007825032230

  Basis Set: AUG-CC-PVTZ
    Blend: AUG-CC-PVTZ
  Basis Set: (AUG-CC-PVTZ AUX)
    Blend: AUG-CC-PVTZ-JKFIT
	 Reference Energy          =    -464.6469802919365861 [Eh]
	 Singles Energy            =      -0.0000000000000000 [Eh]
	 Same-Spin Energy          =      -0.5084641288549160 [Eh]
	 Opposite-Spin Energy      =      -1.4782787661293351 [Eh]
	 Correlation Energy        =      -1.9867428949842512 [Eh]
	 Total Energy              =    -466.6337231869208608 [Eh]

	 ================> DF-SCS-MP2 Energies <==================
	-----------------------------------------------------------
	 SCS Same-Spin Scale       =       0.3333333333333333 [-]
	 SCS Opposite-Spin Scale   =       1.2000000000000000 [-]
	 SCS Same-Spin Energy      =      -0.1694880429516387 [Eh]
	 SCS Opposite-Spin Energy  =      -1.7739345193552021 [Eh]
	 SCS Correlation Energy    =      -1.9434225623068406 [Eh]
	 SCS Total Energy          =    -466.5904028542434503 [Eh]
	-----------------------------------------------------------

  Dipole Moment: [D]
     X:    -2.2392      Y:    -1.4475      Z:    -0.0000     Total:     2.6663

*** Psi4 exiting successfully. Buy a developer a beer!
