                               Psi4 1.3.2 release

  ==> Input File <==

--------------------------------------------------------------------------
#psi4
#
memory 32 gb

molecule  {
0 1
  N        1.9514160     0.5241040     0.0000050
  C        1.2282460    -0.6072470    -0.0000030
  C       -0.0900230    -0.4769631    -0.0000111
  C       -0.7103380     0.7755800     0.0000000
  N       -0.0279430     1.9332850     0.0000050
  C        1.2911430     1.7045360     0.0000120
  N       -1.1651470    -1.4838950    -0.0000170
  C       -2.2855240    -0.7743080     0.0000440
  N       -2.0747130     0.5813540    -0.0000230
  N        1.8664710    -1.8000490    -0.0000060
  H        1.9266830     2.5875900     0.0000020
  H       -3.2831410    -1.1955370     0.0000680
  H       -2.7752520     1.3134440    -0.0000840
  H        2.8756040    -1.8180060     0.0000090
  H        1.3377970    -2.6593590     0.0000020
units angstrom
no_reorient  #important for SAPT in psi4, default
symmetry c1  #important for SAPT in psi4, default
}

set PROPERTIES_ORIGIN ["COM"]
properties('MP2/aug-cc-pvtz', properties = ['dipole'])
--------------------------------------------------------------------------

    Molecular point group: c1
  Charge       = 0
  Multiplicity = 1
  Basis Set: AUG-CC-PVTZ
    Blend: AUG-CC-PVTZ
  Basis Set: (AUG-CC-PVTZ AUX)
    Blend: AUG-CC-PVTZ-JKFIT

    Orbital Energies [Eh]
    ---------------------

    Doubly Occupied:

       1A    -15.635174     2A    -15.581393     3A    -15.573699
       4A    -15.561016     5A    -15.551479     6A    -11.330310
       7A    -11.327565     8A    -11.327446     9A    -11.312500
      10A    -11.249504    11A     -1.361060    12A     -1.300335
      13A     -1.243825    14A     -1.172163    15A     -1.149688
      16A     -1.042988    17A     -0.903578    18A     -0.877660
      19A     -0.840349    20A     -0.779633    21A     -0.737391
      22A     -0.696526    23A     -0.672384    24A     -0.638482
      25A     -0.637500    26A     -0.621710    27A     -0.589552
      28A     -0.560908    29A     -0.495749    30A     -0.494993
      31A     -0.438108    32A     -0.416268    33A     -0.414243
      34A     -0.371411    35A     -0.320647

  @DF-RHF Final Energy:  -464.67001880733710

   => Energetics <=

    Nuclear Repulsion Energy =            502.0370709574505099
    One-Electron Energy =               -1626.9597020860683187
    Two-Electron Energy =                 660.2526123212808216
    Total Energy =                       -464.6700188073371010
  Basis Set: (AUG-CC-PVTZ AUX)
    Blend: AUG-CC-PVTZ-RI
    Molecular point group: c1

    Geometry (in Angstrom), charge = 0, multiplicity = 1:

       Center              X                  Y                   Z               Mass
    ------------   -----------------  -----------------  -----------------  -----------------
         N            1.944106023431     0.507519034621     0.000005032092    14.003074004430
         C            1.220936023431    -0.623831965379    -0.000002967908    12.000000000000
         C           -0.097332976569    -0.493548065379    -0.000011067908    12.000000000000
         C           -0.717647976569     0.758995034621     0.000000032092    12.000000000000
         N           -0.035252976569     1.916700034621     0.000005032092    14.003074004430
         C            1.283833023431     1.687951034621     0.000012032092    12.000000000000
         N           -1.172456976569    -1.500479965379    -0.000016967908    14.003074004430
         C           -2.292833976569    -0.790892965379     0.000044032092    12.000000000000
         N           -2.082022976569     0.564769034621    -0.000022967908    14.003074004430
         N            1.859161023431    -1.816633965379    -0.000005967908    14.003074004430
         H            1.919373023431     2.571005034621     0.000002032092     1.007825032230
         H           -3.290450976569    -1.212121965379     0.000068032092     1.007825032230
         H           -2.782561976569     1.296859034621    -0.000083967908     1.007825032230
         H            2.868294023431    -1.834590965379     0.000009032092     1.007825032230
         H            1.330487023431    -2.675943965379     0.000002032092     1.007825032230

  Basis Set: AUG-CC-PVTZ
    Blend: AUG-CC-PVTZ
  Basis Set: (AUG-CC-PVTZ AUX)
    Blend: AUG-CC-PVTZ-JKFIT
	 Reference Energy          =    -464.6700188073371010 [Eh]
	 Singles Energy            =      -0.0000000000000000 [Eh]
	 Same-Spin Energy          =      -0.5055919132160507 [Eh]
	 Opposite-Spin Energy      =      -1.4765789474445410 [Eh]
	 Correlation Energy        =      -1.9821708606605917 [Eh]
	 Total Energy              =    -466.6521896679976749 [Eh]

	 ================> DF-SCS-MP2 Energies <==================
	-----------------------------------------------------------
	 SCS Same-Spin Scale       =       0.3333333333333333 [-]
	 SCS Opposite-Spin Scale   =       1.2000000000000000 [-]
	 SCS Same-Spin Energy      =      -0.1685306377386835 [Eh]
	 SCS Opposite-Spin Energy  =      -1.7718947369334492 [Eh]
	 SCS Correlation Energy    =      -1.9404253746721327 [Eh]
	 SCS Total Energy          =    -466.6104441820092461 [Eh]
	-----------------------------------------------------------

  Dipole Moment: [D]
     X:    -2.2997      Y:    -1.0170      Z:    -0.0000     Total:     2.5145

*** Psi4 exiting successfully. Buy a developer a beer!
