                               Psi4 1.4a3.dev225

  ==> Input File <==

--------------------------------------------------------------------------
#psi4
#
memory 32 gb

molecule  {
0 1
  N        1.9483950     0.5259860     0.0099940
  C        1.2281250    -0.6055780    -0.0011110
  C       -0.1777080    -0.5183570    -0.0133480
  C       -0.7121930     0.7746180    -0.0067610
  N       -0.0315150     1.9321470    -0.0030770
  C        1.2882650     1.7066530     0.0061850
  N       -1.1633520    -1.4857590     0.0015620
  C       -2.2839740    -0.7772230     0.0077650
  N       -2.0759200     0.5789190     0.0016180
  N        1.8765300    -1.8041700    -0.0655800
  H        1.9515581     2.6311198     0.0150778
  H       -3.2809510    -1.1999800     0.0170960
  H       -2.7777110     1.3098630     0.0041890
  H        2.8553720    -1.7872280     0.1925460
  H        1.3468110    -2.6236890     0.2034770
units angstrom
no_reorient  #important for SAPT in psi4, default
symmetry c1  #important for SAPT in psi4, default
}

set PROPERTIES_ORIGIN ["COM"]
properties('MP2/aug-cc-pvtz', properties = ['dipole'])
--------------------------------------------------------------------------

    Molecular point group: c1
  Charge       = 0
  Multiplicity = 1
  Basis Set: AUG-CC-PVTZ
    Blend: AUG-CC-PVTZ
  Basis Set: (AUG-CC-PVTZ AUX)
    Blend: AUG-CC-PVTZ-JKFIT

    Orbital Energies [Eh]
    ---------------------

    Doubly Occupied:

       1A    -15.636406     2A    -15.584378     3A    -15.572987
       4A    -15.563096     5A    -15.554808     6A    -11.338501
       7A    -11.328674     8A    -11.320701     9A    -11.319512
      10A    -11.255274    11A     -1.368275    12A     -1.298510
      13A     -1.245761    14A     -1.186981    15A     -1.153030
      16A     -1.032929    17A     -0.894133    18A     -0.874254
      19A     -0.847845    20A     -0.776016    21A     -0.733441
      22A     -0.695477    23A     -0.674117    24A     -0.640188
      25A     -0.630752    26A     -0.611972    27A     -0.586083
      28A     -0.557919    29A     -0.498788    30A     -0.497129
      31A     -0.453456    32A     -0.427763    33A     -0.412321
      34A     -0.375595    35A     -0.311497

  @DF-RHF Final Energy:  -464.67913820977026

   => Energetics <=

    Nuclear Repulsion Energy =            501.4103531284018231
    One-Electron Energy =               -1625.6618456550434075
    Two-Electron Energy =                 659.5723543168713832
    Total Energy =                       -464.6791382097702581
  Basis Set: (AUG-CC-PVTZ AUX)
    Blend: AUG-CC-PVTZ-RI
    Molecular point group: c1

    Geometry (in Angstrom), charge = 0, multiplicity = 1:

       Center              X                  Y                   Z               Mass
    ------------   -----------------  -----------------  -----------------  -----------------
         N            1.948649426780     0.513122160702     0.013166077476    14.003074004430
         C            1.228379426780    -0.618441839298     0.002061077476    12.000000000000
         C           -0.177453573220    -0.531220839298    -0.010175922524    12.000000000000
         C           -0.711938573220     0.761754160702    -0.003588922524    12.000000000000
         N           -0.031260573220     1.919283160702     0.000095077476    14.003074004430
         C            1.288519426780     1.693789160702     0.009357077476    12.000000000000
         N           -1.163097573220    -1.498622839298     0.004734077476    14.003074004430
         C           -2.283719573220    -0.790086839298     0.010937077476    12.000000000000
         N           -2.075665573220     0.566055160702     0.004790077476    14.003074004430
         N            1.876784426780    -1.817033839298    -0.062407922524    14.003074004430
         H            1.951812526780     2.618255960702     0.018249877476     1.007825032230
         H           -3.280696573220    -1.212843839298     0.020268077476     1.007825032230
         H           -2.777456573220     1.296999160702     0.007361077476     1.007825032230
         H            2.855626426780    -1.800091839298     0.195718077476     1.007825032230
         H            1.347065426780    -2.636552839298     0.206649077476     1.007825032230

  Basis Set: AUG-CC-PVTZ
    Blend: AUG-CC-PVTZ
  Basis Set: (AUG-CC-PVTZ AUX)
    Blend: AUG-CC-PVTZ-JKFIT
	 Reference Energy          =    -464.6791382097702581 [Eh]
	 Singles Energy            =      -0.0000000000000000 [Eh]
	 Same-Spin Energy          =      -0.5064871298768573 [Eh]
	 Opposite-Spin Energy      =      -1.4768832959678067 [Eh]
	 Correlation Energy        =      -1.9833704258446638 [Eh]
	 Total Energy              =    -466.6625086356149268 [Eh]

	 ================> DF-SCS-MP2 Energies <==================
	-----------------------------------------------------------
	 SCS Same-Spin Scale       =       0.3333333333333333 [-]
	 SCS Opposite-Spin Scale   =       1.2000000000000000 [-]
	 SCS Same-Spin Energy      =      -0.1688290432922858 [Eh]
	 SCS Opposite-Spin Energy  =      -1.7722599551613680 [Eh]
	 SCS Correlation Energy    =      -1.9410889984536537 [Eh]
	 SCS Total Energy          =    -466.6202272082239233 [Eh]
	-----------------------------------------------------------

  Dipole Moment: [D]
     X:    -2.4731      Y:    -0.8814      Z:     0.7199     Total:     2.7224

*** Psi4 exiting successfully. Buy a developer a beer!
