                               Psi4 1.3.2 release

  ==> Input File <==

--------------------------------------------------------------------------
#psi4
#
memory 32 gb

molecule  {
0 1
  N        1.9514160     0.5241040     0.0000050
  C        1.2282460    -0.6072470    -0.0000030
  C       -0.1959287    -0.5001180    -0.0000098
  C       -0.7103380     0.7755800     0.0000000
  N       -0.0279430     1.9332850     0.0000050
  C        1.2911430     1.7045360     0.0000120
  N       -1.1651470    -1.4838950    -0.0000170
  C       -2.2855240    -0.7743080     0.0000440
  N       -2.0747130     0.5813540    -0.0000230
  N        1.8664710    -1.8000490    -0.0000060
  H        1.9266830     2.5875900     0.0000020
  H       -3.2831410    -1.1955370     0.0000680
  H       -2.7752520     1.3134440    -0.0000840
  H        2.8756040    -1.8180060     0.0000090
  H        1.3377970    -2.6593590     0.0000020
units angstrom
no_reorient  #important for SAPT in psi4, default
symmetry c1  #important for SAPT in psi4, default
}

set PROPERTIES_ORIGIN ["COM"]
properties('MP2/aug-cc-pvtz', properties = ['dipole'])
--------------------------------------------------------------------------

    Molecular point group: c1
  Charge       = 0
  Multiplicity = 1
  Basis Set: AUG-CC-PVTZ
    Blend: AUG-CC-PVTZ
  Basis Set: (AUG-CC-PVTZ AUX)
    Blend: AUG-CC-PVTZ-JKFIT

    Orbital Energies [Eh]
    ---------------------

    Doubly Occupied:

       1A    -15.633190     2A    -15.587777     3A    -15.571294
       4A    -15.558586     5A    -15.551374     6A    -11.341400
       7A    -11.326061     8A    -11.314160     9A    -11.312176
      10A    -11.252008    11A     -1.367421    12A     -1.297145
      13A     -1.245261    14A     -1.185489    15A     -1.150995
      16A     -1.032721    17A     -0.894378    18A     -0.872793
      19A     -0.847841    20A     -0.778778    21A     -0.737975
      22A     -0.700827    23A     -0.674658    24A     -0.638343
      25A     -0.632948    26A     -0.611080    27A     -0.588928
      28A     -0.557782    29A     -0.496853    30A     -0.496342
      31A     -0.454185    32A     -0.423741    33A     -0.410657
      34A     -0.373979    35A     -0.308380

  @DF-RHF Final Energy:  -464.68175587802807

   => Energetics <=

    Nuclear Repulsion Energy =            501.9787891142980811
    One-Electron Energy =               -1626.8660420572095973
    Two-Electron Energy =                 660.2054970648835024
    Total Energy =                       -464.6817558780280706
  Basis Set: (AUG-CC-PVTZ AUX)
    Blend: AUG-CC-PVTZ-RI
    Molecular point group: c1

    Geometry (in Angstrom), charge = 0, multiplicity = 1:

       Center              X                  Y                   Z               Mass
    ------------   -----------------  -----------------  -----------------  -----------------
         N            1.953516064898     0.509576417455     0.000004916583    14.003074004430
         C            1.230346064898    -0.621774582545    -0.000003083417    12.000000000000
         C           -0.193828635102    -0.514645582545    -0.000009883417    12.000000000000
         C           -0.708237935102     0.761052417455    -0.000000083417    12.000000000000
         N           -0.025842935102     1.918757417455     0.000004916583    14.003074004430
         C            1.293243064898     1.690008417455     0.000011916583    12.000000000000
         N           -1.163046935102    -1.498422582545    -0.000017083417    14.003074004430
         C           -2.283423935102    -0.788835582545     0.000043916583    12.000000000000
         N           -2.072612935102     0.566826417455    -0.000023083417    14.003074004430
         N            1.868571064898    -1.814576582545    -0.000006083417    14.003074004430
         H            1.928783064898     2.573062417455     0.000001916583     1.007825032230
         H           -3.281040935102    -1.210064582545     0.000067916583     1.007825032230
         H           -2.773151935102     1.298916417455    -0.000084083417     1.007825032230
         H            2.877704064898    -1.832533582545     0.000008916583     1.007825032230
         H            1.339897064898    -2.673886582545     0.000001916583     1.007825032230

  Basis Set: AUG-CC-PVTZ
    Blend: AUG-CC-PVTZ
  Basis Set: (AUG-CC-PVTZ AUX)
    Blend: AUG-CC-PVTZ-JKFIT
	 Reference Energy          =    -464.6817558780280706 [Eh]
	 Singles Energy            =      -0.0000000000000000 [Eh]
	 Same-Spin Energy          =      -0.5060368578895311 [Eh]
	 Opposite-Spin Energy      =      -1.4759957743391490 [Eh]
	 Correlation Energy        =      -1.9820326322286801 [Eh]
	 Total Energy              =    -466.6637885102567225 [Eh]

	 ================> DF-SCS-MP2 Energies <==================
	-----------------------------------------------------------
	 SCS Same-Spin Scale       =       0.3333333333333333 [-]
	 SCS Opposite-Spin Scale   =       1.2000000000000000 [-]
	 SCS Same-Spin Energy      =      -0.1686789526298437 [Eh]
	 SCS Opposite-Spin Energy  =      -1.7711949292069786 [Eh]
	 SCS Correlation Energy    =      -1.9398738818368224 [Eh]
	 SCS Total Energy          =    -466.6216297598649021 [Eh]
	-----------------------------------------------------------

  Dipole Moment: [D]
     X:    -2.2032      Y:    -1.2278      Z:    -0.0000     Total:     2.5222

*** Psi4 exiting successfully. Buy a developer a beer!
