                               Psi4 1.3.2 release

  ==> Input File <==

--------------------------------------------------------------------------
#psi4
#
memory 32 gb

molecule  {
0 1
  N        1.9514160     0.5241040     0.0000050
  C        1.2282460    -0.6072470    -0.0000030
  C       -0.1789070    -0.5171830    -0.0000110
  C       -0.8276129     0.8532517    -0.0000006
  N       -0.0279430     1.9332850     0.0000050
  C        1.2911430     1.7045360     0.0000120
  N       -1.1651470    -1.4838950    -0.0000170
  C       -2.2855240    -0.7743080     0.0000440
  N       -2.0747130     0.5813540    -0.0000230
  N        1.8664710    -1.8000490    -0.0000060
  H        1.9266830     2.5875900     0.0000020
  H       -3.2831410    -1.1955370     0.0000680
  H       -2.7752520     1.3134440    -0.0000840
  H        2.8756040    -1.8180060     0.0000090
  H        1.3377970    -2.6593590     0.0000020
units angstrom
no_reorient  #important for SAPT in psi4, default
symmetry c1  #important for SAPT in psi4, default
}

set PROPERTIES_ORIGIN ["COM"]
properties('MP2/aug-cc-pvtz', properties = ['dipole'])
--------------------------------------------------------------------------

    Molecular point group: c1
  Charge       = 0
  Multiplicity = 1
  Basis Set: AUG-CC-PVTZ
    Blend: AUG-CC-PVTZ
  Basis Set: (AUG-CC-PVTZ AUX)
    Blend: AUG-CC-PVTZ-JKFIT

    Orbital Energies [Eh]
    ---------------------

    Doubly Occupied:

       1A    -15.647308     2A    -15.580851     3A    -15.580758
       4A    -15.555408     5A    -15.548610     6A    -11.333694
       7A    -11.326415     8A    -11.324101     9A    -11.312802
      10A    -11.255076    11A     -1.386880    12A     -1.293398
      13A     -1.241568    14A     -1.200291    15A     -1.149195
      16A     -1.019030    17A     -0.903710    18A     -0.877362
      19A     -0.850906    20A     -0.780996    21A     -0.744864
      22A     -0.695016    23A     -0.684841    24A     -0.647868
      25A     -0.630126    26A     -0.600719    27A     -0.597418
      28A     -0.559454    29A     -0.496520    30A     -0.495516
      31A     -0.446445    32A     -0.433262    33A     -0.395606
      34A     -0.364546    35A     -0.296564

  @DF-RHF Final Energy:  -464.65598140808709

   => Energetics <=

    Nuclear Repulsion Energy =            500.6168375661906680
    One-Electron Energy =               -1624.0313923557851012
    Two-Electron Energy =                 658.7585733815072899
    Total Energy =                       -464.6559814080870865
  Basis Set: (AUG-CC-PVTZ AUX)
    Blend: AUG-CC-PVTZ-RI
    Molecular point group: c1

    Geometry (in Angstrom), charge = 0, multiplicity = 1:

       Center              X                  Y                   Z               Mass
    ------------   -----------------  -----------------  -----------------  -----------------
         N            1.962423864660     0.504191329021     0.000005076518    14.003074004430
         C            1.239253864660    -0.627159670979    -0.000002923482    12.000000000000
         C           -0.167899135340    -0.537095670979    -0.000010923482    12.000000000000
         C           -0.816605035340     0.833339029021    -0.000000523482    12.000000000000
         N           -0.016935135340     1.913372329021     0.000005076518    14.003074004430
         C            1.302150864660     1.684623329021     0.000012076518    12.000000000000
         N           -1.154139135340    -1.503807670979    -0.000016923482    14.003074004430
         C           -2.274516135340    -0.794220670979     0.000044076518    12.000000000000
         N           -2.063705135340     0.561441329021    -0.000022923482    14.003074004430
         N            1.877478864660    -1.819961670979    -0.000005923482    14.003074004430
         H            1.937690864660     2.567677329021     0.000002076518     1.007825032230
         H           -3.272133135340    -1.215449670979     0.000068076518     1.007825032230
         H           -2.764244135340     1.293531329021    -0.000083923482     1.007825032230
         H            2.886611864660    -1.837918670979     0.000009076518     1.007825032230
         H            1.348804864660    -2.679271670979     0.000002076518     1.007825032230

  Basis Set: AUG-CC-PVTZ
    Blend: AUG-CC-PVTZ
  Basis Set: (AUG-CC-PVTZ AUX)
    Blend: AUG-CC-PVTZ-JKFIT
	 Reference Energy          =    -464.6559814080870865 [Eh]
	 Singles Energy            =      -0.0000000000000000 [Eh]
	 Same-Spin Energy          =      -0.5081581870390471 [Eh]
	 Opposite-Spin Energy      =      -1.4779628611189213 [Eh]
	 Correlation Energy        =      -1.9861210481579685 [Eh]
	 Total Energy              =    -466.6421024562450270 [Eh]

	 ================> DF-SCS-MP2 Energies <==================
	-----------------------------------------------------------
	 SCS Same-Spin Scale       =       0.3333333333333333 [-]
	 SCS Opposite-Spin Scale   =       1.2000000000000000 [-]
	 SCS Same-Spin Energy      =      -0.1693860623463490 [Eh]
	 SCS Opposite-Spin Energy  =      -1.7735554333427055 [Eh]
	 SCS Correlation Energy    =      -1.9429414956890545 [Eh]
	 SCS Total Energy          =    -466.5989229037761561 [Eh]
	-----------------------------------------------------------

  Dipole Moment: [D]
     X:    -2.7323      Y:    -1.1539      Z:    -0.0000     Total:     2.9660

*** Psi4 exiting successfully. Buy a developer a beer!
