                               Psi4 1.3.2 release

  ==> Input File <==

--------------------------------------------------------------------------
#psi4
#
memory 32 gb

molecule  {
0 1
  N        1.9114919     0.5486531     0.0000048
  C        1.2282460    -0.6072470    -0.0000030
  C       -0.1789070    -0.5171830    -0.0000110
  C       -0.7103380     0.7755800     0.0000000
  N       -0.0279430     1.9332850     0.0000050
  C        1.2911430     1.7045360     0.0000120
  N       -1.1651470    -1.4838950    -0.0000170
  C       -2.2855240    -0.7743080     0.0000440
  N       -2.0747130     0.5813540    -0.0000230
  N        1.8664710    -1.8000490    -0.0000060
  H        1.9266830     2.5875900     0.0000020
  H       -3.2831410    -1.1955370     0.0000680
  H       -2.7752520     1.3134440    -0.0000840
  H        2.8756040    -1.8180060     0.0000090
  H        1.3377970    -2.6593590     0.0000020
units angstrom
no_reorient  #important for SAPT in psi4, default
symmetry c1  #important for SAPT in psi4, default
}

set PROPERTIES_ORIGIN ["COM"]
properties('MP2/aug-cc-pvtz', properties = ['dipole'])
--------------------------------------------------------------------------

    Molecular point group: c1
  Charge       = 0
  Multiplicity = 1
  Basis Set: AUG-CC-PVTZ
    Blend: AUG-CC-PVTZ
  Basis Set: (AUG-CC-PVTZ AUX)
    Blend: AUG-CC-PVTZ-JKFIT

    Orbital Energies [Eh]
    ---------------------

    Doubly Occupied:

       1A    -15.633179     2A    -15.588340     3A    -15.570482
       4A    -15.554831     5A    -15.546991     6A    -11.340614
       7A    -11.326571     8A    -11.316822     9A    -11.306187
      10A    -11.251710    11A     -1.365893    12A     -1.301833
      13A     -1.245348    14A     -1.186167    15A     -1.153697
      16A     -1.033316    17A     -0.899675    18A     -0.872832
      19A     -0.845232    20A     -0.779690    21A     -0.740622
      22A     -0.699896    23A     -0.678997    24A     -0.637594
      25A     -0.634874    26A     -0.612951    27A     -0.592273
      28A     -0.560437    29A     -0.497721    30A     -0.495179
      31A     -0.447955    32A     -0.424739    33A     -0.406384
      34A     -0.374806    35A     -0.306426

  @DF-RHF Final Energy:  -464.68233687892484

   => Energetics <=

    Nuclear Repulsion Energy =            502.7940453022753786
    One-Electron Energy =               -1628.4922351755244563
    Two-Electron Energy =                 661.0158529943241774
    Total Energy =                       -464.6823368789248434
  Basis Set: (AUG-CC-PVTZ AUX)
    Blend: AUG-CC-PVTZ-RI
    Molecular point group: c1

    Geometry (in Angstrom), charge = 0, multiplicity = 1:

       Center              X                  Y                   Z               Mass
    ------------   -----------------  -----------------  -----------------  -----------------
         N            1.916219050552     0.533096430168     0.000004843943    14.003074004430
         C            1.232973150552    -0.622803669832    -0.000002956057    12.000000000000
         C           -0.174179849448    -0.532739669832    -0.000010956057    12.000000000000
         C           -0.705610849448     0.760023330168     0.000000043943    12.000000000000
         N           -0.023215849448     1.917728330168     0.000005043943    14.003074004430
         C            1.295870150552     1.688979330168     0.000012043943    12.000000000000
         N           -1.160419849448    -1.499451669832    -0.000016956057    14.003074004430
         C           -2.280796849448    -0.789864669832     0.000044043943    12.000000000000
         N           -2.069985849448     0.565797330168    -0.000022956057    14.003074004430
         N            1.871198150552    -1.815605669832    -0.000005956057    14.003074004430
         H            1.931410150552     2.572033330168     0.000002043943     1.007825032230
         H           -3.278413849448    -1.211093669832     0.000068043943     1.007825032230
         H           -2.770524849448     1.297887330168    -0.000083956057     1.007825032230
         H            2.880331150552    -1.833562669832     0.000009043943     1.007825032230
         H            1.342524150552    -2.674915669832     0.000002043943     1.007825032230

  Basis Set: AUG-CC-PVTZ
    Blend: AUG-CC-PVTZ
  Basis Set: (AUG-CC-PVTZ AUX)
    Blend: AUG-CC-PVTZ-JKFIT
	 Reference Energy          =    -464.6823368789248434 [Eh]
	 Singles Energy            =      -0.0000000000000000 [Eh]
	 Same-Spin Energy          =      -0.5061573553630222 [Eh]
	 Opposite-Spin Energy      =      -1.4752118487611146 [Eh]
	 Correlation Energy        =      -1.9813692041241366 [Eh]
	 Total Energy              =    -466.6637060830489645 [Eh]

	 ================> DF-SCS-MP2 Energies <==================
	-----------------------------------------------------------
	 SCS Same-Spin Scale       =       0.3333333333333333 [-]
	 SCS Opposite-Spin Scale   =       1.2000000000000000 [-]
	 SCS Same-Spin Energy      =      -0.1687191184543407 [Eh]
	 SCS Opposite-Spin Energy  =      -1.7702542185133374 [Eh]
	 SCS Correlation Energy    =      -1.9389733369676780 [Eh]
	 SCS Total Energy          =    -466.6213102158925494 [Eh]
	-----------------------------------------------------------

  Dipole Moment: [D]
     X:    -2.1137      Y:    -1.2858      Z:    -0.0000     Total:     2.4740

*** Psi4 exiting successfully. Buy a developer a beer!
