                               Psi4 1.3.2 release

  ==> Input File <==

--------------------------------------------------------------------------
#psi4
#
memory 32 gb

molecule  {
0 1
  N        1.9514160     0.5241040     0.0000050
  C        1.2282460    -0.6072470    -0.0000030
  C       -0.1789070    -0.5171830    -0.0000110
  C       -0.7103380     0.7755800     0.0000000
  N       -0.0279430     1.9332850     0.0000050
  C        1.2911430     1.7045360     0.0000120
  N       -1.1651470    -1.4838950    -0.0000170
  C       -2.2855240    -0.7743080     0.0000440
  N       -2.0747130     0.5813540    -0.0000230
  N        1.7721159    -1.6237053    -0.0000056
  H        1.9266830     2.5875900     0.0000020
  H       -3.2831410    -1.1955370     0.0000680
  H       -2.7752520     1.3134440    -0.0000840
  H        2.8756040    -1.8180060     0.0000090
  H        1.3377970    -2.6593590     0.0000020
units angstrom
no_reorient  #important for SAPT in psi4, default
symmetry c1  #important for SAPT in psi4, default
}

set PROPERTIES_ORIGIN ["COM"]
properties('MP2/aug-cc-pvtz', properties = ['dipole'])
--------------------------------------------------------------------------

    Molecular point group: c1
  Charge       = 0
  Multiplicity = 1
  Basis Set: AUG-CC-PVTZ
    Blend: AUG-CC-PVTZ
  Basis Set: (AUG-CC-PVTZ AUX)
    Blend: AUG-CC-PVTZ-JKFIT

    Orbital Energies [Eh]
    ---------------------

    Doubly Occupied:

       1A    -15.625606     2A    -15.615518     3A    -15.565419
       4A    -15.540181     5A    -15.532511     6A    -11.315712
       7A    -11.315500     8A    -11.305583     9A    -11.302606
      10A    -11.237672    11A     -1.366561    12A     -1.340295
      13A     -1.255196    14A     -1.180794    15A     -1.140850
      16A     -1.018503    17A     -0.887776    18A     -0.874068
      19A     -0.838395    20A     -0.800220    21A     -0.746655
      22A     -0.682895    23A     -0.665250    24A     -0.641877
      25A     -0.631684    26A     -0.589826    27A     -0.585479
      28A     -0.565890    29A     -0.500003    30A     -0.486484
      31A     -0.441168    32A     -0.419692    33A     -0.398686
      34A     -0.365096    35A     -0.290808

  @DF-RHF Final Energy:  -464.60592447453126

   => Energetics <=

    Nuclear Repulsion Energy =            507.2730897829325727
    One-Electron Energy =               -1637.6171092891547687
    Two-Electron Energy =                 665.7380950316908184
    Total Energy =                       -464.6059244745313208
  Basis Set: (AUG-CC-PVTZ AUX)
    Blend: AUG-CC-PVTZ-RI
    Molecular point group: c1

    Geometry (in Angstrom), charge = 0, multiplicity = 1:

       Center              X                  Y                   Z               Mass
    ------------   -----------------  -----------------  -----------------  -----------------
         N            1.961786808100     0.492808564758     0.000004981733    14.003074004430
         C            1.238616808100    -0.638542435242    -0.000003018267    12.000000000000
         C           -0.168536191900    -0.548478435242    -0.000011018267    12.000000000000
         C           -0.699967191900     0.744284564758    -0.000000018267    12.000000000000
         N           -0.017572191900     1.901989564758     0.000004981733    14.003074004430
         C            1.301513808100     1.673240564758     0.000011981733    12.000000000000
         N           -1.154776191900    -1.515190435242    -0.000017018267    14.003074004430
         C           -2.275153191900    -0.805603435242     0.000043981733    12.000000000000
         N           -2.064342191900     0.550058564758    -0.000023018267    14.003074004430
         N            1.782486708100    -1.655000735242    -0.000005618267    14.003074004430
         H            1.937053808100     2.556294564758     0.000001981733     1.007825032230
         H           -3.272770191900    -1.226832435242     0.000067981733     1.007825032230
         H           -2.764881191900     1.282148564758    -0.000084018267     1.007825032230
         H            2.885974808100    -1.849301435242     0.000008981733     1.007825032230
         H            1.348167808100    -2.690654435242     0.000001981733     1.007825032230

  Basis Set: AUG-CC-PVTZ
    Blend: AUG-CC-PVTZ
  Basis Set: (AUG-CC-PVTZ AUX)
    Blend: AUG-CC-PVTZ-JKFIT
	 Reference Energy          =    -464.6059244745312640 [Eh]
	 Singles Energy            =      -0.0000000000000000 [Eh]
	 Same-Spin Energy          =      -0.5080917224795254 [Eh]
	 Opposite-Spin Energy      =      -1.4791825096750477 [Eh]
	 Correlation Energy        =      -1.9872742321545731 [Eh]
	 Total Energy              =    -466.5931987066858255 [Eh]

	 ================> DF-SCS-MP2 Energies <==================
	-----------------------------------------------------------
	 SCS Same-Spin Scale       =       0.3333333333333333 [-]
	 SCS Opposite-Spin Scale   =       1.2000000000000000 [-]
	 SCS Same-Spin Energy      =      -0.1693639074931751 [Eh]
	 SCS Opposite-Spin Energy  =      -1.7750190116100573 [Eh]
	 SCS Correlation Energy    =      -1.9443829191032325 [Eh]
	 SCS Total Energy          =    -466.5503073936345118 [Eh]
	-----------------------------------------------------------

  Dipole Moment: [D]
     X:    -1.2930      Y:    -2.5956      Z:    -0.0000     Total:     2.8999

*** Psi4 exiting successfully. Buy a developer a beer!
