                               Psi4 1.3.2 release

  ==> Input File <==

--------------------------------------------------------------------------
#psi4
#
memory 32 gb

molecule  {
0 1
  N        1.9514160     0.5241040     0.0000050
  C        1.2282460    -0.6072470    -0.0000030
  C       -0.1789070    -0.5171830    -0.0000110
  C       -0.7103380     0.7755800     0.0000000
  N       -0.0279430     1.9332850     0.0000050
  C        1.2911430     1.7045360     0.0000120
  N       -1.1651470    -1.4838950    -0.0000170
  C       -2.2855240    -0.7743080     0.0000440
  N       -2.0747130     0.5813540    -0.0000230
  N        1.8664710    -1.8000490    -0.0000060
  H        1.9266830     2.5875900     0.0000020
  H       -3.2831410    -1.1955370     0.0000680
  H       -2.8443886     1.3856944    -0.0000900
  H        2.8756040    -1.8180060     0.0000090
  H        1.3377970    -2.6593590     0.0000020
units angstrom
no_reorient  #important for SAPT in psi4, default
symmetry c1  #important for SAPT in psi4, default
}

set PROPERTIES_ORIGIN ["COM"]
properties('MP2/aug-cc-pvtz', properties = ['dipole'])
--------------------------------------------------------------------------

    Molecular point group: c1
  Charge       = 0
  Multiplicity = 1
  Basis Set: AUG-CC-PVTZ
    Blend: AUG-CC-PVTZ
  Basis Set: (AUG-CC-PVTZ AUX)
    Blend: AUG-CC-PVTZ-JKFIT

    Orbital Energies [Eh]
    ---------------------

    Doubly Occupied:

       1A    -15.641772     2A    -15.585126     3A    -15.570737
       4A    -15.558768     5A    -15.551032     6A    -11.338232
       7A    -11.325849     8A    -11.317450     9A    -11.311762
      10A    -11.252282    11A     -1.362753    12A     -1.295936
      13A     -1.244492    14A     -1.179208    15A     -1.148789
      16A     -1.031065    17A     -0.893197    18A     -0.872638
      19A     -0.831132    20A     -0.772881    21A     -0.734711
      22A     -0.695717    23A     -0.674353    24A     -0.636412
      25A     -0.628291    26A     -0.610360    27A     -0.587888
      28A     -0.556960    29A     -0.496198    30A     -0.495741
      31A     -0.451860    32A     -0.422737    33A     -0.409950
      34A     -0.372083    35A     -0.306944

  @DF-RHF Final Energy:  -464.67116281560266

   => Energetics <=

    Nuclear Repulsion Energy =            501.2211460815146324
    One-Electron Energy =               -1625.4540036931516624
    Two-Electron Energy =                 659.5616947960343168
    Total Energy =                       -464.6711628156026563
  Basis Set: (AUG-CC-PVTZ AUX)
    Blend: AUG-CC-PVTZ-RI
    Molecular point group: c1

    Geometry (in Angstrom), charge = 0, multiplicity = 1:

       Center              X                  Y                   Z               Mass
    ------------   -----------------  -----------------  -----------------  -----------------
         N            1.952519557498     0.510553535900     0.000005067981    14.003074004430
         C            1.229349557498    -0.620797464100    -0.000002932019    12.000000000000
         C           -0.177803442502    -0.530733464100    -0.000010932019    12.000000000000
         C           -0.709234442502     0.762029535900     0.000000067981    12.000000000000
         N           -0.026839442502     1.919734535900     0.000005067981    14.003074004430
         C            1.292246557498     1.690985535900     0.000012067981    12.000000000000
         N           -1.164043442502    -1.497445464100    -0.000016932019    14.003074004430
         C           -2.284420442502    -0.787858464100     0.000044067981    12.000000000000
         N           -2.073609442502     0.567803535900    -0.000022932019    14.003074004430
         N            1.867574557498    -1.813599464100    -0.000005932019    14.003074004430
         H            1.927786557498     2.574039535900     0.000002067981     1.007825032230
         H           -3.282037442502    -1.209087464100     0.000068067981     1.007825032230
         H           -2.843285042502     1.372143935900    -0.000089932019     1.007825032230
         H            2.876707557498    -1.831556464100     0.000009067981     1.007825032230
         H            1.338900557498    -2.672909464100     0.000002067981     1.007825032230

  Basis Set: AUG-CC-PVTZ
    Blend: AUG-CC-PVTZ
  Basis Set: (AUG-CC-PVTZ AUX)
    Blend: AUG-CC-PVTZ-JKFIT
	 Reference Energy          =    -464.6711628156026563 [Eh]
	 Singles Energy            =      -0.0000000000000000 [Eh]
	 Same-Spin Energy          =      -0.5071976228271600 [Eh]
	 Opposite-Spin Energy      =      -1.4782687996780726 [Eh]
	 Correlation Energy        =      -1.9854664225052325 [Eh]
	 Total Energy              =    -466.6566292381078824 [Eh]

	 ================> DF-SCS-MP2 Energies <==================
	-----------------------------------------------------------
	 SCS Same-Spin Scale       =       0.3333333333333333 [-]
	 SCS Opposite-Spin Scale   =       1.2000000000000000 [-]
	 SCS Same-Spin Energy      =      -0.1690658742757200 [Eh]
	 SCS Opposite-Spin Energy  =      -1.7739225596136869 [Eh]
	 SCS Correlation Energy    =      -1.9429884338894070 [Eh]
	 SCS Total Energy          =    -466.6141512494920676 [Eh]
	-----------------------------------------------------------

  Dipole Moment: [D]
     X:    -2.3626      Y:    -1.0840      Z:    -0.0000     Total:     2.5994

*** Psi4 exiting successfully. Buy a developer a beer!
