                               Psi4 1.3.2 release

  ==> Input File <==

--------------------------------------------------------------------------
#psi4
#
memory 32 gb

molecule  {
0 1
  N        2.0711877     0.5995879     0.0000066
  C        1.2282460    -0.6072470    -0.0000030
  C       -0.1789070    -0.5171830    -0.0000110
  C       -0.7103380     0.7755800     0.0000000
  N       -0.0279430     1.9332850     0.0000050
  C        1.2911430     1.7045360     0.0000120
  N       -1.1651470    -1.4838950    -0.0000170
  C       -2.2855240    -0.7743080     0.0000440
  N       -2.0747130     0.5813540    -0.0000230
  N        1.8664710    -1.8000490    -0.0000060
  H        1.9266830     2.5875900     0.0000020
  H       -3.2831410    -1.1955370     0.0000680
  H       -2.7752520     1.3134440    -0.0000840
  H        2.8756040    -1.8180060     0.0000090
  H        1.3377970    -2.6593590     0.0000020
units angstrom
no_reorient  #important for SAPT in psi4, default
symmetry c1  #important for SAPT in psi4, default
}

set PROPERTIES_ORIGIN ["COM"]
properties('MP2/aug-cc-pvtz', properties = ['dipole'])
--------------------------------------------------------------------------

    Molecular point group: c1
  Charge       = 0
  Multiplicity = 1
  Basis Set: AUG-CC-PVTZ
    Blend: AUG-CC-PVTZ
  Basis Set: (AUG-CC-PVTZ AUX)
    Blend: AUG-CC-PVTZ-JKFIT

    Orbital Energies [Eh]
    ---------------------

    Doubly Occupied:

       1A    -15.636625     2A    -15.595049     3A    -15.574898
       4A    -15.567757     5A    -15.555262     6A    -11.352578
       7A    -11.329992     8A    -11.324462     9A    -11.307817
      10A    -11.255508    11A     -1.367874    12A     -1.282414
      13A     -1.246551    14A     -1.188180    15A     -1.141667
      16A     -1.033583    17A     -0.898091    18A     -0.864642
      19A     -0.847474    20A     -0.775653    21A     -0.739130
      22A     -0.701528    23A     -0.669164    24A     -0.637629
      25A     -0.628909    26A     -0.612545    27A     -0.579349
      28A     -0.549238    29A     -0.500085    30A     -0.492779
      31A     -0.454906    32A     -0.427590    33A     -0.418689
      34A     -0.373813    35A     -0.306735

  @DF-RHF Final Energy:  -464.66224522824609

   => Energetics <=

    Nuclear Repulsion Energy =            498.2512904333744927
    One-Electron Energy =               -1619.3507380394446500
    Two-Electron Energy =                 656.4372023778239509
    Total Energy =                       -464.6622452282460927
  Basis Set: (AUG-CC-PVTZ AUX)
    Blend: AUG-CC-PVTZ-RI
    Molecular point group: c1

    Geometry (in Angstrom), charge = 0, multiplicity = 1:

       Center              X                  Y                   Z               Mass
    ------------   -----------------  -----------------  -----------------  -----------------
         N            2.059356852223     0.578750074788     0.000006457311    14.003074004430
         C            1.216415152223    -0.628084825212    -0.000003142689    12.000000000000
         C           -0.190737847777    -0.538020825212    -0.000011142689    12.000000000000
         C           -0.722168847777     0.754742174788    -0.000000142689    12.000000000000
         N           -0.039773847777     1.912447174788     0.000004857311    14.003074004430
         C            1.279312152223     1.683698174788     0.000011857311    12.000000000000
         N           -1.176977847777    -1.504732825212    -0.000017142689    14.003074004430
         C           -2.297354847777    -0.795145825212     0.000043857311    12.000000000000
         N           -2.086543847777     0.560516174788    -0.000023142689    14.003074004430
         N            1.854640152223    -1.820886825212    -0.000006142689    14.003074004430
         H            1.914852152223     2.566752174788     0.000001857311     1.007825032230
         H           -3.294971847777    -1.216374825212     0.000067857311     1.007825032230
         H           -2.787082847777     1.292606174788    -0.000084142689     1.007825032230
         H            2.863773152223    -1.838843825212     0.000008857311     1.007825032230
         H            1.325966152223    -2.680196825212     0.000001857311     1.007825032230

  Basis Set: AUG-CC-PVTZ
    Blend: AUG-CC-PVTZ
  Basis Set: (AUG-CC-PVTZ AUX)
    Blend: AUG-CC-PVTZ-JKFIT
	 Reference Energy          =    -464.6622452282460927 [Eh]
	 Singles Energy            =      -0.0000000000000000 [Eh]
	 Same-Spin Energy          =      -0.5063415703497374 [Eh]
	 Opposite-Spin Energy      =      -1.4791633929975123 [Eh]
	 Correlation Energy        =      -1.9855049633472497 [Eh]
	 Total Energy              =    -466.6477501915933317 [Eh]

	 ================> DF-SCS-MP2 Energies <==================
	-----------------------------------------------------------
	 SCS Same-Spin Scale       =       0.3333333333333333 [-]
	 SCS Opposite-Spin Scale   =       1.2000000000000000 [-]
	 SCS Same-Spin Energy      =      -0.1687805234499125 [Eh]
	 SCS Opposite-Spin Energy  =      -1.7749960715970148 [Eh]
	 SCS Correlation Energy    =      -1.9437765950469272 [Eh]
	 SCS Total Energy          =    -466.6060218232930197 [Eh]
	-----------------------------------------------------------

  Dipole Moment: [D]
     X:    -2.4243      Y:    -1.6260      Z:    -0.0000     Total:     2.9191

*** Psi4 exiting successfully. Buy a developer a beer!
