                               Psi4 1.3.2 release

  ==> Input File <==

--------------------------------------------------------------------------
#psi4
#
memory 32 gb

molecule  {
0 1
  N        1.9514160     0.5241040     0.0000050
  C        1.2282460    -0.6072470    -0.0000030
  C       -0.1789070    -0.5171830    -0.0000110
  C       -0.7103380     0.7755800     0.0000000
  N       -0.0279430     1.9332850     0.0000050
  C        1.2911430     1.7045360     0.0000120
  N       -1.1651470    -1.4838950    -0.0000170
  C       -2.2855240    -0.7743080     0.0000440
  N       -2.0747130     0.5813540    -0.0000230
  N        1.8664710    -1.8000490    -0.0000060
  H        1.9266830     2.5875900     0.0000020
  H       -3.3752655    -1.2344352     0.0000702
  H       -2.7752520     1.3134440    -0.0000840
  H        2.8756040    -1.8180060     0.0000090
  H        1.3377970    -2.6593590     0.0000020
units angstrom
no_reorient  #important for SAPT in psi4, default
symmetry c1  #important for SAPT in psi4, default
}

set PROPERTIES_ORIGIN ["COM"]
properties('MP2/aug-cc-pvtz', properties = ['dipole'])
--------------------------------------------------------------------------

    Molecular point group: c1
  Charge       = 0
  Multiplicity = 1
  Basis Set: AUG-CC-PVTZ
    Blend: AUG-CC-PVTZ
  Basis Set: (AUG-CC-PVTZ AUX)
    Blend: AUG-CC-PVTZ-JKFIT

    Orbital Energies [Eh]
    ---------------------

    Doubly Occupied:

       1A    -15.635422     2A    -15.585715     3A    -15.572226
       4A    -15.559651     5A    -15.551867     6A    -11.338999
       7A    -11.336945     8A    -11.318518     9A    -11.312530
      10A    -11.253326    11A     -1.366621    12A     -1.297409
      13A     -1.245422    14A     -1.186079    15A     -1.151248
      16A     -1.030202    17A     -0.890523    18A     -0.875435
      19A     -0.843022    20A     -0.774780    21A     -0.737100
      22A     -0.695274    23A     -0.675328    24A     -0.638095
      25A     -0.628437    26A     -0.608059    27A     -0.583721
      28A     -0.558249    29A     -0.497025    30A     -0.496946
      31A     -0.452365    32A     -0.424698    33A     -0.410859
      34A     -0.373301    35A     -0.307798

  @DF-RHF Final Energy:  -464.67438753852616

   => Energetics <=

    Nuclear Repulsion Energy =            501.2982409663810017
    One-Electron Energy =               -1625.5188638319382335
    Two-Electron Energy =                 659.5462353270311269
    Total Energy =                       -464.6743875385261617
  Basis Set: (AUG-CC-PVTZ AUX)
    Blend: AUG-CC-PVTZ-RI
    Molecular point group: c1

    Geometry (in Angstrom), charge = 0, multiplicity = 1:

       Center              X                  Y                   Z               Mass
    ------------   -----------------  -----------------  -----------------  -----------------
         N            1.952691101444     0.511382966577     0.000005006789    14.003074004430
         C            1.229521101444    -0.619968033423    -0.000002993211    12.000000000000
         C           -0.177631898556    -0.529904033423    -0.000010993211    12.000000000000
         C           -0.709062898556     0.762858966577     0.000000006789    12.000000000000
         N           -0.026667898556     1.920563966577     0.000005006789    14.003074004430
         C            1.292418101444     1.691814966577     0.000012006789    12.000000000000
         N           -1.163871898556    -1.496616033423    -0.000016993211    14.003074004430
         C           -2.284248898556    -0.787029033423     0.000044006789    12.000000000000
         N           -2.073437898556     0.568632966577    -0.000022993211    14.003074004430
         N            1.867746101444    -1.812770033423    -0.000005993211    14.003074004430
         H            1.927958101444     2.574868966577     0.000002006789     1.007825032230
         H           -3.373990398556    -1.247156233423     0.000070206789     1.007825032230
         H           -2.773976898556     1.300722966577    -0.000083993211     1.007825032230
         H            2.876879101444    -1.830727033423     0.000009006789     1.007825032230
         H            1.339072101444    -2.672080033423     0.000002006789     1.007825032230

  Basis Set: AUG-CC-PVTZ
    Blend: AUG-CC-PVTZ
  Basis Set: (AUG-CC-PVTZ AUX)
    Blend: AUG-CC-PVTZ-JKFIT
	 Reference Energy          =    -464.6743875385261617 [Eh]
	 Singles Energy            =      -0.0000000000000000 [Eh]
	 Same-Spin Energy          =      -0.5065823545152612 [Eh]
	 Opposite-Spin Energy      =      -1.4771211712016741 [Eh]
	 Correlation Energy        =      -1.9837035257169353 [Eh]
	 Total Energy              =    -466.6580910642430808 [Eh]

	 ================> DF-SCS-MP2 Energies <==================
	-----------------------------------------------------------
	 SCS Same-Spin Scale       =       0.3333333333333333 [-]
	 SCS Opposite-Spin Scale   =       1.2000000000000000 [-]
	 SCS Same-Spin Energy      =      -0.1688607848384204 [Eh]
	 SCS Opposite-Spin Energy  =      -1.7725454054420089 [Eh]
	 SCS Correlation Energy    =      -1.9414061902804294 [Eh]
	 SCS Total Energy          =    -466.6157937288065796 [Eh]
	-----------------------------------------------------------

  Dipole Moment: [D]
     X:    -2.2527      Y:    -1.1922      Z:    -0.0000     Total:     2.5487

*** Psi4 exiting successfully. Buy a developer a beer!
