                               Psi4 1.3.2 release

  ==> Input File <==

--------------------------------------------------------------------------
#psi4
#
memory 32 gb

molecule  {
0 1
  N        1.9514160     0.5241040     0.0000050
  C        1.2282460    -0.6072470    -0.0000030
  C       -0.1789070    -0.5171830    -0.0000110
  C       -0.7503256     0.8001005    -0.0000002
  N       -0.0279430     1.9332850     0.0000050
  C        1.2911430     1.7045360     0.0000120
  N       -1.1651470    -1.4838950    -0.0000170
  C       -2.2855240    -0.7743080     0.0000440
  N       -2.0747130     0.5813540    -0.0000230
  N        1.8664710    -1.8000490    -0.0000060
  H        1.9266830     2.5875900     0.0000020
  H       -3.2831410    -1.1955370     0.0000680
  H       -2.7752520     1.3134440    -0.0000840
  H        2.8756040    -1.8180060     0.0000090
  H        1.3377970    -2.6593590     0.0000020
units angstrom
no_reorient  #important for SAPT in psi4, default
symmetry c1  #important for SAPT in psi4, default
}

set PROPERTIES_ORIGIN ["COM"]
properties('MP2/aug-cc-pvtz', properties = ['dipole'])
--------------------------------------------------------------------------

    Molecular point group: c1
  Charge       = 0
  Multiplicity = 1
  Basis Set: AUG-CC-PVTZ
    Blend: AUG-CC-PVTZ
  Basis Set: (AUG-CC-PVTZ AUX)
    Blend: AUG-CC-PVTZ-JKFIT

    Orbital Energies [Eh]
    ---------------------

    Doubly Occupied:

       1A    -15.639082     2A    -15.583919     3A    -15.574728
       4A    -15.557923     5A    -15.550673     6A    -11.337003
       7A    -11.325930     8A    -11.320732     9A    -11.312286
      10A    -11.253805    11A     -1.372233    12A     -1.296075
      13A     -1.243768    14A     -1.190729    15A     -1.150540
      16A     -1.026804    17A     -0.897079    18A     -0.876264
      19A     -0.847498    20A     -0.779424    21A     -0.740202
      22A     -0.697492    23A     -0.679313    24A     -0.640304
      25A     -0.632358    26A     -0.609187    27A     -0.594215
      28A     -0.558664    29A     -0.496467    30A     -0.496040
      31A     -0.450748    32A     -0.427443    33A     -0.406402
      34A     -0.369893    35A     -0.303869

  @DF-RHF Final Energy:  -464.67867560264290

   => Energetics <=

    Nuclear Repulsion Energy =            501.4079150625608463
    One-Electron Energy =               -1625.6949996126556925
    Two-Electron Energy =                 659.6084089474518350
    Total Energy =                       -464.6786756026428975
  Basis Set: (AUG-CC-PVTZ AUX)
    Blend: AUG-CC-PVTZ-RI
    Molecular point group: c1

    Geometry (in Angstrom), charge = 0, multiplicity = 1:

       Center              X                  Y                   Z               Mass
    ------------   -----------------  -----------------  -----------------  -----------------
         N            1.955556654510     0.508913973751     0.000005040977    14.003074004430
         C            1.232386654510    -0.622437026249    -0.000002959023    12.000000000000
         C           -0.174766345490    -0.532373026249    -0.000010959023    12.000000000000
         C           -0.746184945490     0.784910473751    -0.000000159023    12.000000000000
         N           -0.023802345490     1.918094973751     0.000005040977    14.003074004430
         C            1.295283654510     1.689345973751     0.000012040977    12.000000000000
         N           -1.161006345490    -1.499085026249    -0.000016959023    14.003074004430
         C           -2.281383345490    -0.789498026249     0.000044040977    12.000000000000
         N           -2.070572345490     0.566163973751    -0.000022959023    14.003074004430
         N            1.870611654510    -1.815239026249    -0.000005959023    14.003074004430
         H            1.930823654510     2.572399973751     0.000002040977     1.007825032230
         H           -3.279000345490    -1.210727026249     0.000068040977     1.007825032230
         H           -2.771111345490     1.298253973751    -0.000083959023     1.007825032230
         H            2.879744654510    -1.833196026249     0.000009040977     1.007825032230
         H            1.341937654510    -2.674549026249     0.000002040977     1.007825032230

  Basis Set: AUG-CC-PVTZ
    Blend: AUG-CC-PVTZ
  Basis Set: (AUG-CC-PVTZ AUX)
    Blend: AUG-CC-PVTZ-JKFIT
	 Reference Energy          =    -464.6786756026428975 [Eh]
	 Singles Energy            =      -0.0000000000000000 [Eh]
	 Same-Spin Energy          =      -0.5068220759279216 [Eh]
	 Opposite-Spin Energy      =      -1.4765554735171980 [Eh]
	 Correlation Energy        =      -1.9833775494451196 [Eh]
	 Total Energy              =    -466.6620531520879922 [Eh]

	 ================> DF-SCS-MP2 Energies <==================
	-----------------------------------------------------------
	 SCS Same-Spin Scale       =       0.3333333333333333 [-]
	 SCS Opposite-Spin Scale   =       1.2000000000000000 [-]
	 SCS Same-Spin Energy      =      -0.1689406919759739 [Eh]
	 SCS Opposite-Spin Energy  =      -1.7718665682206376 [Eh]
	 SCS Correlation Energy    =      -1.9408072601966115 [Eh]
	 SCS Total Energy          =    -466.6194828628395044 [Eh]
	-----------------------------------------------------------

  Dipole Moment: [D]
     X:    -2.4246      Y:    -1.1783      Z:    -0.0000     Total:     2.6958

*** Psi4 exiting successfully. Buy a developer a beer!
