                               Psi4 1.3.2 release

  ==> Input File <==

--------------------------------------------------------------------------
#psi4
#
memory 32 gb

molecule  {
0 1
  N        2.0321504     0.5730378     0.0000060
  C        1.2282460    -0.6072470    -0.0000030
  C       -0.1789070    -0.5171830    -0.0000110
  C       -0.7103380     0.7755800     0.0000000
  N       -0.0279430     1.9332850     0.0000050
  C        1.2911430     1.7045360     0.0000120
  N       -1.1651470    -1.4838950    -0.0000170
  C       -2.2855240    -0.7743080     0.0000440
  N       -2.0747130     0.5813540    -0.0000230
  N        1.8664710    -1.8000490    -0.0000060
  H        1.9266830     2.5875900     0.0000020
  H       -3.2831410    -1.1955370     0.0000680
  H       -2.7752520     1.3134440    -0.0000840
  H        2.8756040    -1.8180060     0.0000090
  H        1.3377970    -2.6593590     0.0000020
units angstrom
no_reorient  #important for SAPT in psi4, default
symmetry c1  #important for SAPT in psi4, default
}

set PROPERTIES_ORIGIN ["COM"]
properties('MP2/aug-cc-pvtz', properties = ['dipole'])
--------------------------------------------------------------------------

    Molecular point group: c1
  Charge       = 0
  Multiplicity = 1
  Basis Set: AUG-CC-PVTZ
    Blend: AUG-CC-PVTZ
  Basis Set: (AUG-CC-PVTZ AUX)
    Blend: AUG-CC-PVTZ-JKFIT

    Orbital Energies [Eh]
    ---------------------

    Doubly Occupied:

       1A    -15.635983     2A    -15.592155     3A    -15.573948
       4A    -15.562483     5A    -15.556478     6A    -11.348701
       7A    -11.328995     8A    -11.322486     9A    -11.309093
      10A    -11.254743    11A     -1.367282    12A     -1.286713
      13A     -1.246102    14A     -1.187398    15A     -1.144586
      16A     -1.033158    17A     -0.896536    18A     -0.868394
      19A     -0.847385    20A     -0.776411    21A     -0.738882
      22A     -0.701034    23A     -0.671124    24A     -0.637555
      25A     -0.629820    26A     -0.612799    27A     -0.583066
      28A     -0.551881    29A     -0.499001    30A     -0.494427
      31A     -0.454795    32A     -0.426588    33A     -0.416522
      34A     -0.373230    35A     -0.307164

  @DF-RHF Final Energy:  -464.67173101113025

   => Energetics <=

    Nuclear Repulsion Energy =            499.4020261715359652
    One-Electron Energy =               -1621.6736784608820017
    Two-Electron Energy =                 657.5999212782157883
    Total Energy =                       -464.6717310111303050
  Basis Set: (AUG-CC-PVTZ AUX)
    Blend: AUG-CC-PVTZ-RI
    Molecular point group: c1

    Geometry (in Angstrom), charge = 0, multiplicity = 1:

       Center              X                  Y                   Z               Mass
    ------------   -----------------  -----------------  -----------------  -----------------
         N            2.024367119837     0.554952811816     0.000005919522    14.003074004430
         C            1.220462719837    -0.625331988184    -0.000003080478    12.000000000000
         C           -0.186690280163    -0.535267988184    -0.000011080478    12.000000000000
         C           -0.718121280163     0.757495011816    -0.000000080478    12.000000000000
         N           -0.035726280163     1.915200011816     0.000004919522    14.003074004430
         C            1.283359719837     1.686451011816     0.000011919522    12.000000000000
         N           -1.172930280163    -1.501979988184    -0.000017080478    14.003074004430
         C           -2.293307280163    -0.792392988184     0.000043919522    12.000000000000
         N           -2.082496280163     0.563269011816    -0.000023080478    14.003074004430
         N            1.858687719837    -1.818133988184    -0.000006080478    14.003074004430
         H            1.918899719837     2.569505011816     0.000001919522     1.007825032230
         H           -3.290924280163    -1.213621988184     0.000067919522     1.007825032230
         H           -2.783035280163     1.295359011816    -0.000084080478     1.007825032230
         H            2.867820719837    -1.836090988184     0.000008919522     1.007825032230
         H            1.330013719837    -2.677443988184     0.000001919522     1.007825032230

  Basis Set: AUG-CC-PVTZ
    Blend: AUG-CC-PVTZ
  Basis Set: (AUG-CC-PVTZ AUX)
    Blend: AUG-CC-PVTZ-JKFIT
	 Reference Energy          =    -464.6717310111302481 [Eh]
	 Singles Energy            =      -0.0000000000000000 [Eh]
	 Same-Spin Energy          =      -0.5062716211620837 [Eh]
	 Opposite-Spin Energy      =      -1.4779765267552261 [Eh]
	 Correlation Energy        =      -1.9842481479173097 [Eh]
	 Total Energy              =    -466.6559791590475470 [Eh]

	 ================> DF-SCS-MP2 Energies <==================
	-----------------------------------------------------------
	 SCS Same-Spin Scale       =       0.3333333333333333 [-]
	 SCS Opposite-Spin Scale   =       1.2000000000000000 [-]
	 SCS Same-Spin Energy      =      -0.1687572070540279 [Eh]
	 SCS Opposite-Spin Energy  =      -1.7735718321062712 [Eh]
	 SCS Correlation Energy    =      -1.9423290391602992 [Eh]
	 SCS Total Energy          =    -466.6140600502905613 [Eh]
	-----------------------------------------------------------

  Dipole Moment: [D]
     X:    -2.3767      Y:    -1.4839      Z:    -0.0000     Total:     2.8019

*** Psi4 exiting successfully. Buy a developer a beer!
