                               Psi4 1.3.2 release

  ==> Input File <==

--------------------------------------------------------------------------
#psi4
#
memory 32 gb

molecule  {
0 1
  N        1.9514160     0.5241040     0.0000050
  C        1.2282460    -0.6072470    -0.0000030
  C       -0.1789070    -0.5171830    -0.0000110
  C       -0.7272101     0.8702809    -0.0000055
  N       -0.0279430     1.9332850     0.0000050
  C        1.2911430     1.7045360     0.0000120
  N       -1.1651470    -1.4838950    -0.0000170
  C       -2.2855240    -0.7743080     0.0000440
  N       -2.0747130     0.5813540    -0.0000230
  N        1.8664710    -1.8000490    -0.0000060
  H        1.9266830     2.5875900     0.0000020
  H       -3.2831410    -1.1955370     0.0000680
  H       -2.7752520     1.3134440    -0.0000840
  H        2.8756040    -1.8180060     0.0000090
  H        1.3377970    -2.6593590     0.0000020
units angstrom
no_reorient  #important for SAPT in psi4, default
symmetry c1  #important for SAPT in psi4, default
}

set PROPERTIES_ORIGIN ["COM"]
properties('MP2/aug-cc-pvtz', properties = ['dipole'])
--------------------------------------------------------------------------

    Molecular point group: c1
  Charge       = 0
  Multiplicity = 1
  Basis Set: AUG-CC-PVTZ
    Blend: AUG-CC-PVTZ
  Basis Set: (AUG-CC-PVTZ AUX)
    Blend: AUG-CC-PVTZ-JKFIT

    Orbital Energies [Eh]
    ---------------------

    Doubly Occupied:

       1A    -15.635570     2A    -15.579967     3A    -15.573649
       4A    -15.558256     5A    -15.555785     6A    -11.332363
       7A    -11.327055     8A    -11.325307     9A    -11.316582
      10A    -11.255728    11A     -1.362979    12A     -1.300532
      13A     -1.254852    14A     -1.185555    15A     -1.159856
      16A     -1.020011    17A     -0.894519    18A     -0.884078
      19A     -0.838966    20A     -0.779059    21A     -0.736752
      22A     -0.700223    23A     -0.682994    24A     -0.636220
      25A     -0.633054    26A     -0.604217    27A     -0.588736
      28A     -0.556477    29A     -0.506385    30A     -0.499256
      31A     -0.452036    32A     -0.424771    33A     -0.405380
      34A     -0.376611    35A     -0.294729

  @DF-RHF Final Energy:  -464.66771894727810

   => Energetics <=

    Nuclear Repulsion Energy =            500.9517839790072458
    One-Electron Energy =               -1624.7619836028684404
    Two-Electron Energy =                 659.1424806765829771
    Total Energy =                       -464.6677189472781038
  Basis Set: (AUG-CC-PVTZ AUX)
    Blend: AUG-CC-PVTZ-RI
    Molecular point group: c1

    Geometry (in Angstrom), charge = 0, multiplicity = 1:

       Center              X                  Y                   Z               Mass
    ------------   -----------------  -----------------  -----------------  -----------------
         N            1.953502772486     0.502678233143     0.000005511898    14.003074004430
         C            1.230332772486    -0.628672766857    -0.000002488102    12.000000000000
         C           -0.176820227514    -0.538608766857    -0.000010488102    12.000000000000
         C           -0.725123327514     0.848855133143    -0.000004988102    12.000000000000
         N           -0.025856227514     1.911859233143     0.000005511898    14.003074004430
         C            1.293229772486     1.683110233143     0.000012511898    12.000000000000
         N           -1.163060227514    -1.505320766857    -0.000016488102    14.003074004430
         C           -2.283437227514    -0.795733766857     0.000044511898    12.000000000000
         N           -2.072626227514     0.559928233143    -0.000022488102    14.003074004430
         N            1.868557772486    -1.821474766857    -0.000005488102    14.003074004430
         H            1.928769772486     2.566164233143     0.000002511898     1.007825032230
         H           -3.281054227514    -1.216962766857     0.000068511898     1.007825032230
         H           -2.773165227514     1.292018233143    -0.000083488102     1.007825032230
         H            2.877690772486    -1.839431766857     0.000009511898     1.007825032230
         H            1.339883772486    -2.680784766857     0.000002511898     1.007825032230

  Basis Set: AUG-CC-PVTZ
    Blend: AUG-CC-PVTZ
  Basis Set: (AUG-CC-PVTZ AUX)
    Blend: AUG-CC-PVTZ-JKFIT
	 Reference Energy          =    -464.6677189472781038 [Eh]
	 Singles Energy            =      -0.0000000000000000 [Eh]
	 Same-Spin Energy          =      -0.5077784822865105 [Eh]
	 Opposite-Spin Energy      =      -1.4772823410063689 [Eh]
	 Correlation Energy        =      -1.9850608232928795 [Eh]
	 Total Energy              =    -466.6527797705709872 [Eh]

	 ================> DF-SCS-MP2 Energies <==================
	-----------------------------------------------------------
	 SCS Same-Spin Scale       =       0.3333333333333333 [-]
	 SCS Opposite-Spin Scale   =       1.2000000000000000 [-]
	 SCS Same-Spin Energy      =      -0.1692594940955035 [Eh]
	 SCS Opposite-Spin Energy  =      -1.7727388092076426 [Eh]
	 SCS Correlation Energy    =      -1.9419983033031460 [Eh]
	 SCS Total Energy          =    -466.6097172505812409 [Eh]
	-----------------------------------------------------------

  Dipole Moment: [D]
     X:    -2.3416      Y:    -1.0257      Z:    -0.0000     Total:     2.5564

*** Psi4 exiting successfully. Buy a developer a beer!
