                               Psi4 1.3.2 release

  ==> Input File <==

--------------------------------------------------------------------------
#psi4
#
memory 32 gb

molecule  {
0 1
  N        1.9514160     0.5241040     0.0000050
  C        1.2282460    -0.6072470    -0.0000030
  C       -0.1789070    -0.5171830    -0.0000110
  C       -0.7103380     0.7755800     0.0000000
  N        0.0511521     1.8828634     0.0000067
  C        1.2911430     1.7045360     0.0000120
  N       -1.1651470    -1.4838950    -0.0000170
  C       -2.2855240    -0.7743080     0.0000440
  N       -2.0747130     0.5813540    -0.0000230
  N        1.8664710    -1.8000490    -0.0000060
  H        1.9266830     2.5875900     0.0000020
  H       -3.2831410    -1.1955370     0.0000680
  H       -2.7752520     1.3134440    -0.0000840
  H        2.8756040    -1.8180060     0.0000090
  H        1.3377970    -2.6593590     0.0000020
units angstrom
no_reorient  #important for SAPT in psi4, default
symmetry c1  #important for SAPT in psi4, default
}

set PROPERTIES_ORIGIN ["COM"]
properties('MP2/aug-cc-pvtz', properties = ['dipole'])
--------------------------------------------------------------------------

    Molecular point group: c1
  Charge       = 0
  Multiplicity = 1
  Basis Set: AUG-CC-PVTZ
    Blend: AUG-CC-PVTZ
  Basis Set: (AUG-CC-PVTZ AUX)
    Blend: AUG-CC-PVTZ-JKFIT

    Orbital Energies [Eh]
    ---------------------

    Doubly Occupied:

       1A    -15.640205     2A    -15.582612     3A    -15.572973
       4A    -15.548833     5A    -15.541686     6A    -11.335493
       7A    -11.327926     8A    -11.319590     9A    -11.296803
      10A    -11.253283    11A     -1.369274    12A     -1.305165
      13A     -1.252593    14A     -1.186946    15A     -1.148616
      16A     -1.038454    17A     -0.893937    18A     -0.879710
      19A     -0.846450    20A     -0.785525    21A     -0.738790
      22A     -0.698420    23A     -0.681951    24A     -0.640727
      25A     -0.635334    26A     -0.611790    27A     -0.599981
      28A     -0.559277    29A     -0.505784    30A     -0.490544
      31A     -0.446847    32A     -0.424678    33A     -0.400987
      34A     -0.367479    35A     -0.313764

  @DF-RHF Final Energy:  -464.67846563888452

   => Energetics <=

    Nuclear Repulsion Energy =            503.7888389648745147
    One-Electron Energy =               -1630.4497555609573283
    Two-Electron Energy =                 661.9824509571983526
    Total Energy =                       -464.6784656388845178
  Basis Set: (AUG-CC-PVTZ AUX)
    Blend: AUG-CC-PVTZ-RI
    Molecular point group: c1

    Geometry (in Angstrom), charge = 0, multiplicity = 1:

       Center              X                  Y                   Z               Mass
    ------------   -----------------  -----------------  -----------------  -----------------
         N            1.943802690035     0.516320638704     0.000004846943    14.003074004430
         C            1.220632690035    -0.615030361296    -0.000003153057    12.000000000000
         C           -0.186520309965    -0.524966361296    -0.000011153057    12.000000000000
         C           -0.717951309965     0.767796638704    -0.000000153057    12.000000000000
         N            0.043538790035     1.875080038704     0.000006546943    14.003074004430
         C            1.283529690035     1.696752638704     0.000011846943    12.000000000000
         N           -1.172760309965    -1.491678361296    -0.000017153057    14.003074004430
         C           -2.293137309965    -0.782091361296     0.000043846943    12.000000000000
         N           -2.082326309965     0.573570638704    -0.000023153057    14.003074004430
         N            1.858857690035    -1.807832361296    -0.000006153057    14.003074004430
         H            1.919069690035     2.579806638704     0.000001846943     1.007825032230
         H           -3.290754309965    -1.203320361296     0.000067846943     1.007825032230
         H           -2.782865309965     1.305660638704    -0.000084153057     1.007825032230
         H            2.867990690035    -1.825789361296     0.000008846943     1.007825032230
         H            1.330183690035    -2.667142361296     0.000001846943     1.007825032230

  Basis Set: AUG-CC-PVTZ
    Blend: AUG-CC-PVTZ
  Basis Set: (AUG-CC-PVTZ AUX)
    Blend: AUG-CC-PVTZ-JKFIT
	 Reference Energy          =    -464.6784656388845178 [Eh]
	 Singles Energy            =      -0.0000000000000000 [Eh]
	 Same-Spin Energy          =      -0.5055661252474450 [Eh]
	 Opposite-Spin Energy      =      -1.4737519232093135 [Eh]
	 Correlation Energy        =      -1.9793180484567585 [Eh]
	 Total Energy              =    -466.6577836873412934 [Eh]

	 ================> DF-SCS-MP2 Energies <==================
	-----------------------------------------------------------
	 SCS Same-Spin Scale       =       0.3333333333333333 [-]
	 SCS Opposite-Spin Scale   =       1.2000000000000000 [-]
	 SCS Same-Spin Energy      =      -0.1685220417491483 [Eh]
	 SCS Opposite-Spin Energy  =      -1.7685023078511761 [Eh]
	 SCS Correlation Energy    =      -1.9370243496003245 [Eh]
	 SCS Total Energy          =    -466.6154899884848533 [Eh]
	-----------------------------------------------------------

  Dipole Moment: [D]
     X:    -2.5382      Y:    -1.0049      Z:    -0.0000     Total:     2.7299

*** Psi4 exiting successfully. Buy a developer a beer!
