                               Psi4 1.3.2 release

  ==> Input File <==

--------------------------------------------------------------------------
#psi4
#
memory 32 gb

molecule  {
0 1
  N        1.9514160     0.5241040     0.0000050
  C        1.2185357    -0.7051856    -0.0000042
  C       -0.1789070    -0.5171830    -0.0000110
  C       -0.7103380     0.7755800     0.0000000
  N       -0.0279430     1.9332850     0.0000050
  C        1.2911430     1.7045360     0.0000120
  N       -1.1651470    -1.4838950    -0.0000170
  C       -2.2855240    -0.7743080     0.0000440
  N       -2.0747130     0.5813540    -0.0000230
  N        1.8664710    -1.8000490    -0.0000060
  H        1.9266830     2.5875900     0.0000020
  H       -3.2831410    -1.1955370     0.0000680
  H       -2.7752520     1.3134440    -0.0000840
  H        2.8756040    -1.8180060     0.0000090
  H        1.3377970    -2.6593590     0.0000020
units angstrom
no_reorient  #important for SAPT in psi4, default
symmetry c1  #important for SAPT in psi4, default
}

set PROPERTIES_ORIGIN ["COM"]
properties('MP2/aug-cc-pvtz', properties = ['dipole'])
--------------------------------------------------------------------------

    Molecular point group: c1
  Charge       = 0
  Multiplicity = 1
  Basis Set: AUG-CC-PVTZ
    Blend: AUG-CC-PVTZ
  Basis Set: (AUG-CC-PVTZ AUX)
    Blend: AUG-CC-PVTZ-JKFIT

    Orbital Energies [Eh]
    ---------------------

    Doubly Occupied:

       1A    -15.631707     2A    -15.603622     3A    -15.567952
       4A    -15.548258     5A    -15.547259     6A    -11.341949
       7A    -11.322519     8A    -11.317500     9A    -11.305247
      10A    -11.249557    11A     -1.362850    12A     -1.305709
      13A     -1.254723    14A     -1.186846    15A     -1.133175
      16A     -1.028388    17A     -0.896139    18A     -0.867013
      19A     -0.842218    20A     -0.788879    21A     -0.755086
      22A     -0.698645    23A     -0.671536    24A     -0.644172
      25A     -0.634951    26A     -0.604042    27A     -0.584446
      28A     -0.564957    29A     -0.501392    30A     -0.490513
      31A     -0.439846    32A     -0.426159    33A     -0.402427
      34A     -0.363635    35A     -0.301385

  @DF-RHF Final Energy:  -464.66749384881160

   => Energetics <=

    Nuclear Repulsion Energy =            501.3042226139474451
    One-Electron Energy =               -1625.5740284134708418
    Two-Electron Energy =                 659.6023119507118508
    Total Energy =                       -464.6674938488116595
  Basis Set: (AUG-CC-PVTZ AUX)
    Blend: AUG-CC-PVTZ-RI
    Molecular point group: c1

    Geometry (in Angstrom), charge = 0, multiplicity = 1:

       Center              X                  Y                   Z               Mass
    ------------   -----------------  -----------------  -----------------  -----------------
         N            1.952866424915     0.519794834829     0.000005129830    14.003074004430
         C            1.219986124915    -0.709494765171    -0.000004070170    12.000000000000
         C           -0.177456575085    -0.521492165171    -0.000010870170    12.000000000000
         C           -0.708887575085     0.771270834829     0.000000129830    12.000000000000
         N           -0.026492575085     1.928975834829     0.000005129830    14.003074004430
         C            1.292593424915     1.700226834829     0.000012129830    12.000000000000
         N           -1.163696575085    -1.488204165171    -0.000016870170    14.003074004430
         C           -2.284073575085    -0.778617165171     0.000044129830    12.000000000000
         N           -2.073262575085     0.577044834829    -0.000022870170    14.003074004430
         N            1.867921424915    -1.804358165171    -0.000005870170    14.003074004430
         H            1.928133424915     2.583280834829     0.000002129830     1.007825032230
         H           -3.281690575085    -1.199846165171     0.000068129830     1.007825032230
         H           -2.773801575085     1.309134834829    -0.000083870170     1.007825032230
         H            2.877054424915    -1.822315165171     0.000009129830     1.007825032230
         H            1.339247424915    -2.663668165171     0.000002129830     1.007825032230

  Basis Set: AUG-CC-PVTZ
    Blend: AUG-CC-PVTZ
  Basis Set: (AUG-CC-PVTZ AUX)
    Blend: AUG-CC-PVTZ-JKFIT
	 Reference Energy          =    -464.6674938488116027 [Eh]
	 Singles Energy            =      -0.0000000000000000 [Eh]
	 Same-Spin Energy          =      -0.5065683243436189 [Eh]
	 Opposite-Spin Energy      =      -1.4771267434931210 [Eh]
	 Correlation Energy        =      -1.9836950678367398 [Eh]
	 Total Energy              =    -466.6511889166483229 [Eh]

	 ================> DF-SCS-MP2 Energies <==================
	-----------------------------------------------------------
	 SCS Same-Spin Scale       =       0.3333333333333333 [-]
	 SCS Opposite-Spin Scale   =       1.2000000000000000 [-]
	 SCS Same-Spin Energy      =      -0.1688561081145396 [Eh]
	 SCS Opposite-Spin Energy  =      -1.7725520921917453 [Eh]
	 SCS Correlation Energy    =      -1.9414082003062849 [Eh]
	 SCS Total Energy          =    -466.6089020491178871 [Eh]
	-----------------------------------------------------------

  Dipole Moment: [D]
     X:    -1.8856      Y:    -1.9599      Z:    -0.0000     Total:     2.7197

*** Psi4 exiting successfully. Buy a developer a beer!
