                               Psi4 1.4a3.dev225

  ==> Input File <==

--------------------------------------------------------------------------
#psi4
#
memory 32 gb

molecule  {
0 1
  N        1.9483950     0.5259860     0.0099940
  C        1.2281250    -0.6055780    -0.0011110
  C       -0.1777080    -0.5183570    -0.0133480
  C       -0.7121930     0.7746180    -0.0067610
  N       -0.0315150     1.9321470    -0.0030770
  C        1.2882650     1.7066530     0.0061850
  N       -1.1633520    -1.4857590     0.0015620
  C       -2.2839740    -0.7772230     0.0077650
  N       -2.0759200     0.5789190     0.0016180
  N        1.8765300    -1.8041700    -0.0655800
  H        1.9224110     2.5904960     0.0146870
  H       -3.2349203    -1.1804612     0.0166652
  H       -2.7777110     1.3098630     0.0041890
  H        2.8553720    -1.7872280     0.1925460
  H        1.3468110    -2.6236890     0.2034770
units angstrom
no_reorient  #important for SAPT in psi4, default
symmetry c1  #important for SAPT in psi4, default
}

set PROPERTIES_ORIGIN ["COM"]
properties('MP2/aug-cc-pvtz', properties = ['dipole'])
--------------------------------------------------------------------------

    Molecular point group: c1
  Charge       = 0
  Multiplicity = 1
  Basis Set: AUG-CC-PVTZ
    Blend: AUG-CC-PVTZ
  Basis Set: (AUG-CC-PVTZ AUX)
    Blend: AUG-CC-PVTZ-JKFIT

    Orbital Energies [Eh]
    ---------------------

    Doubly Occupied:

       1A    -15.635878     2A    -15.584141     3A    -15.572688
       4A    -15.562535     5A    -15.554255     6A    -11.338042
       7A    -11.323092     8A    -11.320193     9A    -11.313919
      10A    -11.254913    11A     -1.367976    12A     -1.298343
      13A     -1.245561    14A     -1.186641    15A     -1.152634
      16A     -1.034954    17A     -0.898235    18A     -0.877057
      19A     -0.849654    20A     -0.778930    21A     -0.735535
      22A     -0.699775    23A     -0.674550    24A     -0.640521
      25A     -0.633987    26A     -0.613443    27A     -0.592904
      28A     -0.557622    29A     -0.498862    30A     -0.498358
      31A     -0.454485    32A     -0.427419    33A     -0.411956
      34A     -0.375223    35A     -0.311289

  @DF-RHF Final Energy:  -464.68086511017657

   => Energetics <=

    Nuclear Repulsion Energy =            501.9583497954566269
    One-Electron Energy =               -1626.7272894192226431
    Two-Electron Energy =                 660.0880745135895040
    Total Energy =                       -464.6808651101765690
  Basis Set: (AUG-CC-PVTZ AUX)
    Blend: AUG-CC-PVTZ-RI
    Molecular point group: c1

    Geometry (in Angstrom), charge = 0, multiplicity = 1:

       Center              X                  Y                   Z               Mass
    ------------   -----------------  -----------------  -----------------  -----------------
         N            1.948523435307     0.513279653774     0.013172208549    14.003074004430
         C            1.228253435307    -0.618284346226     0.002067208549    12.000000000000
         C           -0.177579564693    -0.531063346226    -0.010169791451    12.000000000000
         C           -0.712064564693     0.761911653774    -0.003582791451    12.000000000000
         N           -0.031386564693     1.919440653774     0.000101208549    14.003074004430
         C            1.288393435307     1.693946653774     0.009363208549    12.000000000000
         N           -1.163223564693    -1.498465346226     0.004740208549    14.003074004430
         C           -2.283845564693    -0.789929346226     0.010943208549    12.000000000000
         N           -2.075791564693     0.566212653774     0.004796208549    14.003074004430
         N            1.876658435307    -1.816876346226    -0.062401791451    14.003074004430
         H            1.922539435307     2.577789653774     0.017865208549     1.007825032230
         H           -3.234791864693    -1.193167546226     0.019843408549     1.007825032230
         H           -2.777582564693     1.297156653774     0.007367208549     1.007825032230
         H            2.855500435307    -1.799934346226     0.195724208549     1.007825032230
         H            1.346939435307    -2.636395346226     0.206655208549     1.007825032230

  Basis Set: AUG-CC-PVTZ
    Blend: AUG-CC-PVTZ
  Basis Set: (AUG-CC-PVTZ AUX)
    Blend: AUG-CC-PVTZ-JKFIT
	 Reference Energy          =    -464.6808651101765690 [Eh]
	 Singles Energy            =      -0.0000000000000000 [Eh]
	 Same-Spin Energy          =      -0.5062415852766586 [Eh]
	 Opposite-Spin Energy      =      -1.4762036780648886 [Eh]
	 Correlation Energy        =      -1.9824452633415472 [Eh]
	 Total Energy              =    -466.6633103735181294 [Eh]

	 ================> DF-SCS-MP2 Energies <==================
	-----------------------------------------------------------
	 SCS Same-Spin Scale       =       0.3333333333333333 [-]
	 SCS Opposite-Spin Scale   =       1.2000000000000000 [-]
	 SCS Same-Spin Energy      =      -0.1687471950922195 [Eh]
	 SCS Opposite-Spin Energy  =      -1.7714444136778662 [Eh]
	 SCS Correlation Energy    =      -1.9401916087700857 [Eh]
	 SCS Total Energy          =    -466.6210567189466474 [Eh]
	-----------------------------------------------------------

  Dipole Moment: [D]
     X:    -2.4594      Y:    -0.8564      Z:     0.7200     Total:     2.7020

*** Psi4 exiting successfully. Buy a developer a beer!
