                               Psi4 1.3.2 release

  ==> Input File <==

--------------------------------------------------------------------------
#psi4
#
memory 32 gb

molecule  {
0 1
  N        1.9514160     0.5241040     0.0000050
  C        1.2282460    -0.6072470    -0.0000030
  C       -0.1789070    -0.5171830    -0.0000110
  C       -0.7103380     0.7755800     0.0000000
  N       -0.0279430     1.9332850     0.0000050
  C        1.2911430     1.7045360     0.0000120
  N       -1.1905937    -1.5225633    -0.0000136
  C       -2.2855240    -0.7743080     0.0000440
  N       -2.0747130     0.5813540    -0.0000230
  N        1.8664710    -1.8000490    -0.0000060
  H        1.9266830     2.5875900     0.0000020
  H       -3.2831410    -1.1955370     0.0000680
  H       -2.7752520     1.3134440    -0.0000840
  H        2.8756040    -1.8180060     0.0000090
  H        1.3377970    -2.6593590     0.0000020
units angstrom
no_reorient  #important for SAPT in psi4, default
symmetry c1  #important for SAPT in psi4, default
}

set PROPERTIES_ORIGIN ["COM"]
properties('MP2/aug-cc-pvtz', properties = ['dipole'])
--------------------------------------------------------------------------

    Molecular point group: c1
  Charge       = 0
  Multiplicity = 1
  Basis Set: AUG-CC-PVTZ
    Blend: AUG-CC-PVTZ
  Basis Set: (AUG-CC-PVTZ AUX)
    Blend: AUG-CC-PVTZ-JKFIT

    Orbital Energies [Eh]
    ---------------------

    Doubly Occupied:

       1A    -15.634809     2A    -15.585426     3A    -15.576688
       4A    -15.560574     5A    -15.552192     6A    -11.339143
       7A    -11.328379     8A    -11.321010     9A    -11.313623
      10A    -11.255587    11A     -1.362796    12A     -1.297469
      13A     -1.244731    14A     -1.181694    15A     -1.151128
      16A     -1.032915    17A     -0.894039    18A     -0.875130
      19A     -0.845157    20A     -0.778724    21A     -0.737088
      22A     -0.700060    23A     -0.672909    24A     -0.636151
      25A     -0.629658    26A     -0.609626    27A     -0.587892
      28A     -0.558475    29A     -0.500461    30A     -0.496544
      31A     -0.452189    32A     -0.421409    33A     -0.413053
      34A     -0.373305    35A     -0.311620

  @DF-RHF Final Energy:  -464.67961360879076

   => Energetics <=

    Nuclear Repulsion Energy =            500.5737712941316317
    One-Electron Energy =               -1624.0434589365211195
    Two-Electron Energy =                 658.7900740335987848
    Total Energy =                       -464.6796136087907598
  Basis Set: (AUG-CC-PVTZ AUX)
    Blend: AUG-CC-PVTZ-RI
    Molecular point group: c1

    Geometry (in Angstrom), charge = 0, multiplicity = 1:

       Center              X                  Y                   Z               Mass
    ------------   -----------------  -----------------  -----------------  -----------------
         N            1.954642066836     0.515102002261     0.000004670679    14.003074004430
         C            1.231472066836    -0.616248997739    -0.000003329321    12.000000000000
         C           -0.175680933164    -0.526184997739    -0.000011329321    12.000000000000
         C           -0.707111933164     0.766578002261    -0.000000329321    12.000000000000
         N           -0.024716933164     1.924283002261     0.000004670679    14.003074004430
         C            1.294369066836     1.695534002261     0.000011670679    12.000000000000
         N           -1.187367633164    -1.531565297739    -0.000013929321    14.003074004430
         C           -2.282297933164    -0.783309997739     0.000043670679    12.000000000000
         N           -2.071486933164     0.572352002261    -0.000023329321    14.003074004430
         N            1.869697066836    -1.809050997739    -0.000006329321    14.003074004430
         H            1.929909066836     2.578588002261     0.000001670679     1.007825032230
         H           -3.279914933164    -1.204538997739     0.000067670679     1.007825032230
         H           -2.772025933164     1.304442002261    -0.000084329321     1.007825032230
         H            2.878830066836    -1.827007997739     0.000008670679     1.007825032230
         H            1.341023066836    -2.668360997739     0.000001670679     1.007825032230

  Basis Set: AUG-CC-PVTZ
    Blend: AUG-CC-PVTZ
  Basis Set: (AUG-CC-PVTZ AUX)
    Blend: AUG-CC-PVTZ-JKFIT
	 Reference Energy          =    -464.6796136087907598 [Eh]
	 Singles Energy            =      -0.0000000000000000 [Eh]
	 Same-Spin Energy          =      -0.5058648335653559 [Eh]
	 Opposite-Spin Energy      =      -1.4766508913493874 [Eh]
	 Correlation Energy        =      -1.9825157249147434 [Eh]
	 Total Energy              =    -466.6621293337054794 [Eh]

	 ================> DF-SCS-MP2 Energies <==================
	-----------------------------------------------------------
	 SCS Same-Spin Scale       =       0.3333333333333333 [-]
	 SCS Opposite-Spin Scale   =       1.2000000000000000 [-]
	 SCS Same-Spin Energy      =      -0.1686216111884520 [Eh]
	 SCS Opposite-Spin Energy  =      -1.7719810696192648 [Eh]
	 SCS Correlation Energy    =      -1.9406026808077168 [Eh]
	 SCS Total Energy          =    -466.6202162895984884 [Eh]
	-----------------------------------------------------------

  Dipole Moment: [D]
     X:    -2.1833      Y:    -1.1077      Z:    -0.0000     Total:     2.4482

*** Psi4 exiting successfully. Buy a developer a beer!
