                               Psi4 1.3.2 release

  ==> Input File <==

--------------------------------------------------------------------------
#psi4
#
memory 32 gb

molecule  {
0 1
  N        1.9514160     0.5241040     0.0000050
  C        1.2111232    -0.7538412    -0.0000032
  C       -0.1789070    -0.5171830    -0.0000110
  C       -0.7103380     0.7755800     0.0000000
  N       -0.0279430     1.9332850     0.0000050
  C        1.2911430     1.7045360     0.0000120
  N       -1.1651470    -1.4838950    -0.0000170
  C       -2.2855240    -0.7743080     0.0000440
  N       -2.0747130     0.5813540    -0.0000230
  N        1.8664710    -1.8000490    -0.0000060
  H        1.9266830     2.5875900     0.0000020
  H       -3.2831410    -1.1955370     0.0000680
  H       -2.7752520     1.3134440    -0.0000840
  H        2.8756040    -1.8180060     0.0000090
  H        1.3377970    -2.6593590     0.0000020
units angstrom
no_reorient  #important for SAPT in psi4, default
symmetry c1  #important for SAPT in psi4, default
}

set PROPERTIES_ORIGIN ["COM"]
properties('MP2/aug-cc-pvtz', properties = ['dipole'])
--------------------------------------------------------------------------

    Molecular point group: c1
  Charge       = 0
  Multiplicity = 1
  Basis Set: AUG-CC-PVTZ
    Blend: AUG-CC-PVTZ
  Basis Set: (AUG-CC-PVTZ AUX)
    Blend: AUG-CC-PVTZ-JKFIT

    Orbital Energies [Eh]
    ---------------------

    Doubly Occupied:

       1A    -15.630269     2A    -15.612186     3A    -15.566093
       4A    -15.545074     5A    -15.542881     6A    -11.342934
       7A    -11.320257     8A    -11.317138     9A    -11.301882
      10A    -11.248285    11A     -1.361765    12A     -1.321638
      13A     -1.252495    14A     -1.186219    15A     -1.123534
      16A     -1.026536    17A     -0.898253    18A     -0.863891
      19A     -0.840151    20A     -0.796471    21A     -0.764334
      22A     -0.696114    23A     -0.669252    24A     -0.648175
      25A     -0.634509    26A     -0.597619    27A     -0.581126
      28A     -0.573027    29A     -0.501304    30A     -0.487537
      31A     -0.433557    32A     -0.426264    33A     -0.397286
      34A     -0.359569    35A     -0.298045

  @DF-RHF Final Energy:  -464.65039484236360

   => Energetics <=

    Nuclear Repulsion Energy =            501.1314350227895602
    One-Electron Energy =               -1625.2323215113256083
    Two-Electron Energy =                 659.4504916461725088
    Total Energy =                       -464.6503948423636530
  Basis Set: (AUG-CC-PVTZ AUX)
    Blend: AUG-CC-PVTZ-RI
    Molecular point group: c1

    Geometry (in Angstrom), charge = 0, multiplicity = 1:

       Center              X                  Y                   Z               Mass
    ------------   -----------------  -----------------  -----------------  -----------------
         N            1.953525047938     0.524118031915     0.000005040977    14.003074004430
         C            1.213232247938    -0.753827168085    -0.000003159023    12.000000000000
         C           -0.176797952062    -0.517168968085    -0.000010959023    12.000000000000
         C           -0.708228952062     0.775594031915     0.000000040977    12.000000000000
         N           -0.025833952062     1.933299031915     0.000005040977    14.003074004430
         C            1.293252047938     1.704550031915     0.000012040977    12.000000000000
         N           -1.163037952062    -1.483880968085    -0.000016959023    14.003074004430
         C           -2.283414952062    -0.774293968085     0.000044040977    12.000000000000
         N           -2.072603952062     0.581368031915    -0.000022959023    14.003074004430
         N            1.868580047938    -1.800034968085    -0.000005959023    14.003074004430
         H            1.928792047938     2.587604031915     0.000002040977     1.007825032230
         H           -3.281031952062    -1.195522968085     0.000068040977     1.007825032230
         H           -2.773142952062     1.313458031915    -0.000083959023     1.007825032230
         H            2.877713047938    -1.817991968085     0.000009040977     1.007825032230
         H            1.339906047938    -2.659344968085     0.000002040977     1.007825032230

  Basis Set: AUG-CC-PVTZ
    Blend: AUG-CC-PVTZ
  Basis Set: (AUG-CC-PVTZ AUX)
    Blend: AUG-CC-PVTZ-JKFIT
	 Reference Energy          =    -464.6503948423635961 [Eh]
	 Singles Energy            =      -0.0000000000000000 [Eh]
	 Same-Spin Energy          =      -0.5068004556184535 [Eh]
	 Opposite-Spin Energy      =      -1.4779282129324192 [Eh]
	 Correlation Energy        =      -1.9847286685508727 [Eh]
	 Total Energy              =    -466.6351235109144682 [Eh]

	 ================> DF-SCS-MP2 Energies <==================
	-----------------------------------------------------------
	 SCS Same-Spin Scale       =       0.3333333333333333 [-]
	 SCS Opposite-Spin Scale   =       1.2000000000000000 [-]
	 SCS Same-Spin Energy      =      -0.1689334852061512 [Eh]
	 SCS Opposite-Spin Energy  =      -1.7735138555189029 [Eh]
	 SCS Correlation Energy    =      -1.9424473407250542 [Eh]
	 SCS Total Energy          =    -466.5928421830886350 [Eh]
	-----------------------------------------------------------

  Dipole Moment: [D]
     X:    -1.7022      Y:    -2.3300      Z:    -0.0000     Total:     2.8856

*** Psi4 exiting successfully. Buy a developer a beer!
