                               Psi4 1.3.2 release

  ==> Input File <==

--------------------------------------------------------------------------
#psi4
#
memory 32 gb

molecule  {
0 1
  N        1.9514160     0.5241040     0.0000050
  C        1.2305320    -0.5580832    -0.0000030
  C       -0.1789070    -0.5171830    -0.0000110
  C       -0.7103380     0.7755800     0.0000000
  N       -0.0279430     1.9332850     0.0000050
  C        1.2911430     1.7045360     0.0000120
  N       -1.1651470    -1.4838950    -0.0000170
  C       -2.2855240    -0.7743080     0.0000440
  N       -2.0747130     0.5813540    -0.0000230
  N        1.8664710    -1.8000490    -0.0000060
  H        1.9266830     2.5875900     0.0000020
  H       -3.2831410    -1.1955370     0.0000680
  H       -2.7752520     1.3134440    -0.0000840
  H        2.8756040    -1.8180060     0.0000090
  H        1.3377970    -2.6593590     0.0000020
units angstrom
no_reorient  #important for SAPT in psi4, default
symmetry c1  #important for SAPT in psi4, default
}

set PROPERTIES_ORIGIN ["COM"]
properties('MP2/aug-cc-pvtz', properties = ['dipole'])
--------------------------------------------------------------------------

    Molecular point group: c1
  Charge       = 0
  Multiplicity = 1
  Basis Set: AUG-CC-PVTZ
    Blend: AUG-CC-PVTZ
  Basis Set: (AUG-CC-PVTZ AUX)
    Blend: AUG-CC-PVTZ-JKFIT

    Orbital Energies [Eh]
    ---------------------

    Doubly Occupied:

       1A    -15.636016     2A    -15.576332     3A    -15.573596
       4A    -15.564994     5A    -15.553870     6A    -11.336810
       7A    -11.328555     8A    -11.318445     9A    -11.316152
      10A    -11.254731    11A     -1.368341    12A     -1.304229
      13A     -1.238002    14A     -1.182915    15A     -1.156818
      16A     -1.033838    17A     -0.896031    18A     -0.879780
      19A     -0.848035    20A     -0.777068    21A     -0.731633
      22A     -0.697610    23A     -0.676372    24A     -0.639692
      25A     -0.629957    26A     -0.610918    27A     -0.591214
      28A     -0.559515    29A     -0.500455    30A     -0.492971
      31A     -0.459056    32A     -0.422176    33A     -0.413579
      34A     -0.378063    35A     -0.310414

  @DF-RHF Final Energy:  -464.67919752653427

   => Energetics <=

    Nuclear Repulsion Energy =            502.1518771673019614
    One-Electron Energy =               -1627.1457881036785693
    Two-Electron Energy =                 660.3147134098422839
    Total Energy =                       -464.6791975265342671
  Basis Set: (AUG-CC-PVTZ AUX)
    Blend: AUG-CC-PVTZ-RI
    Molecular point group: c1

    Geometry (in Angstrom), charge = 0, multiplicity = 1:

       Center              X                  Y                   Z               Mass
    ------------   -----------------  -----------------  -----------------  -----------------
         N            1.951800517410     0.506724342080     0.000005023206    14.003074004430
         C            1.230916517410    -0.575462857920    -0.000002976794    12.000000000000
         C           -0.178522482590    -0.534562657920    -0.000010976794    12.000000000000
         C           -0.709953482590     0.758200342080     0.000000023206    12.000000000000
         N           -0.027558482590     1.915905342080     0.000005023206    14.003074004430
         C            1.291527517410     1.687156342080     0.000012023206    12.000000000000
         N           -1.164762482590    -1.501274657920    -0.000016976794    14.003074004430
         C           -2.285139482590    -0.791687657920     0.000044023206    12.000000000000
         N           -2.074328482590     0.563974342080    -0.000022976794    14.003074004430
         N            1.866855517410    -1.817428657920    -0.000005976794    14.003074004430
         H            1.927067517410     2.570210342080     0.000002023206     1.007825032230
         H           -3.282756482590    -1.212916657920     0.000068023206     1.007825032230
         H           -2.774867482590     1.296064342080    -0.000083976794     1.007825032230
         H            2.875988517410    -1.835385657920     0.000009023206     1.007825032230
         H            1.338181517410    -2.676738657920     0.000002023206     1.007825032230

  Basis Set: AUG-CC-PVTZ
    Blend: AUG-CC-PVTZ
  Basis Set: (AUG-CC-PVTZ AUX)
    Blend: AUG-CC-PVTZ-JKFIT
	 Reference Energy          =    -464.6791975265342671 [Eh]
	 Singles Energy            =      -0.0000000000000000 [Eh]
	 Same-Spin Energy          =      -0.5062518405209931 [Eh]
	 Opposite-Spin Energy      =      -1.4761527280745321 [Eh]
	 Correlation Energy        =      -1.9824045685955252 [Eh]
	 Total Energy              =    -466.6616020951298083 [Eh]

	 ================> DF-SCS-MP2 Energies <==================
	-----------------------------------------------------------
	 SCS Same-Spin Scale       =       0.3333333333333333 [-]
	 SCS Opposite-Spin Scale   =       1.2000000000000000 [-]
	 SCS Same-Spin Energy      =      -0.1687506135069977 [Eh]
	 SCS Opposite-Spin Energy  =      -1.7713832736894386 [Eh]
	 SCS Correlation Energy    =      -1.9401338871964362 [Eh]
	 SCS Total Energy          =    -466.6193314137307198 [Eh]
	-----------------------------------------------------------

  Dipole Moment: [D]
     X:    -2.4398      Y:    -0.7814      Z:    -0.0000     Total:     2.5619

*** Psi4 exiting successfully. Buy a developer a beer!
