                               Psi4 1.3.2 release

  ==> Input File <==

--------------------------------------------------------------------------
#psi4
#
memory 32 gb

molecule  {
0 1
  N        1.9514160     0.5241040     0.0000050
  C        1.2282460    -0.6072470    -0.0000030
  C       -0.2243475    -0.5349422    -0.0000109
  C       -0.7103380     0.7755800     0.0000000
  N       -0.0279430     1.9332850     0.0000050
  C        1.2911430     1.7045360     0.0000120
  N       -1.1651470    -1.4838950    -0.0000170
  C       -2.2855240    -0.7743080     0.0000440
  N       -2.0747130     0.5813540    -0.0000230
  N        1.8664710    -1.8000490    -0.0000060
  H        1.9266830     2.5875900     0.0000020
  H       -3.2831410    -1.1955370     0.0000680
  H       -2.7752520     1.3134440    -0.0000840
  H        2.8756040    -1.8180060     0.0000090
  H        1.3377970    -2.6593590     0.0000020
units angstrom
no_reorient  #important for SAPT in psi4, default
symmetry c1  #important for SAPT in psi4, default
}

set PROPERTIES_ORIGIN ["COM"]
properties('MP2/aug-cc-pvtz', properties = ['dipole'])
--------------------------------------------------------------------------

    Molecular point group: c1
  Charge       = 0
  Multiplicity = 1
  Basis Set: AUG-CC-PVTZ
    Blend: AUG-CC-PVTZ
  Basis Set: (AUG-CC-PVTZ AUX)
    Blend: AUG-CC-PVTZ-JKFIT

    Orbital Energies [Eh]
    ---------------------

    Doubly Occupied:

       1A    -15.634702     2A    -15.587579     3A    -15.570438
       4A    -15.558780     5A    -15.551747     6A    -11.343228
       7A    -11.324763     8A    -11.313648     9A    -11.312205
      10A    -11.254723    11A     -1.370826    12A     -1.296231
      13A     -1.246598    14A     -1.193404    15A     -1.151307
      16A     -1.026920    17A     -0.892785    18A     -0.872173
      19A     -0.850062    20A     -0.777698    21A     -0.739216
      22A     -0.701429    23A     -0.677549    24A     -0.638830
      25A     -0.633150    26A     -0.602940    27A     -0.589274
      28A     -0.557011    29A     -0.497911    30A     -0.497656
      31A     -0.459273    32A     -0.429035    33A     -0.408087
      34A     -0.373764    35A     -0.301286

  @DF-RHF Final Energy:  -464.67767027118953

   => Energetics <=

    Nuclear Repulsion Energy =            501.8016144499467259
    One-Electron Energy =               -1626.4861179655297292
    Two-Electron Energy =                 660.0068332443934196
    Total Energy =                       -464.6776702711895268
  Basis Set: (AUG-CC-PVTZ AUX)
    Blend: AUG-CC-PVTZ-RI
    Molecular point group: c1

    Geometry (in Angstrom), charge = 0, multiplicity = 1:

       Center              X                  Y                   Z               Mass
    ------------   -----------------  -----------------  -----------------  -----------------
         N            1.956041161153     0.512670652856     0.000005014321    14.003074004430
         C            1.232871161153    -0.618680347144    -0.000002985679    12.000000000000
         C           -0.219722338847    -0.546375547144    -0.000010885679    12.000000000000
         C           -0.705712838847     0.764146652856     0.000000014321    12.000000000000
         N           -0.023317838847     1.921851652856     0.000005014321    14.003074004430
         C            1.295768161153     1.693102652856     0.000012014321    12.000000000000
         N           -1.160521838847    -1.495328347144    -0.000016985679    14.003074004430
         C           -2.280898838847    -0.785741347144     0.000044014321    12.000000000000
         N           -2.070087838847     0.569920652856    -0.000022985679    14.003074004430
         N            1.871096161153    -1.811482347144    -0.000005985679    14.003074004430
         H            1.931308161153     2.576156652856     0.000002014321     1.007825032230
         H           -3.278515838847    -1.206970347144     0.000068014321     1.007825032230
         H           -2.770626838847     1.302010652856    -0.000083985679     1.007825032230
         H            2.880229161153    -1.829439347144     0.000009014321     1.007825032230
         H            1.342422161153    -2.670792347144     0.000002014321     1.007825032230

  Basis Set: AUG-CC-PVTZ
    Blend: AUG-CC-PVTZ
  Basis Set: (AUG-CC-PVTZ AUX)
    Blend: AUG-CC-PVTZ-JKFIT
	 Reference Energy          =    -464.6776702711895268 [Eh]
	 Singles Energy            =      -0.0000000000000000 [Eh]
	 Same-Spin Energy          =      -0.5069068298708806 [Eh]
	 Opposite-Spin Energy      =      -1.4766007893981645 [Eh]
	 Correlation Energy        =      -1.9835076192690453 [Eh]
	 Total Energy              =    -466.6611778904585890 [Eh]

	 ================> DF-SCS-MP2 Energies <==================
	-----------------------------------------------------------
	 SCS Same-Spin Scale       =       0.3333333333333333 [-]
	 SCS Opposite-Spin Scale   =       1.2000000000000000 [-]
	 SCS Same-Spin Energy      =      -0.1689689432902935 [Eh]
	 SCS Opposite-Spin Energy  =      -1.7719209472777975 [Eh]
	 SCS Correlation Energy    =      -1.9408898905680911 [Eh]
	 SCS Total Energy          =    -466.6185601617576140 [Eh]
	-----------------------------------------------------------

  Dipole Moment: [D]
     X:    -2.2401      Y:    -1.2677      Z:    -0.0000     Total:     2.5739

*** Psi4 exiting successfully. Buy a developer a beer!
