                               Psi4 1.3.2 release

  ==> Input File <==

--------------------------------------------------------------------------
#psi4
#
memory 32 gb

molecule  {
0 1
  N        1.9315611     0.5365527     0.0000049
  C        1.2282460    -0.6072470    -0.0000030
  C       -0.1789070    -0.5171830    -0.0000110
  C       -0.7103380     0.7755800     0.0000000
  N       -0.0279430     1.9332850     0.0000050
  C        1.2911430     1.7045360     0.0000120
  N       -1.1651470    -1.4838950    -0.0000170
  C       -2.2855240    -0.7743080     0.0000440
  N       -2.0747130     0.5813540    -0.0000230
  N        1.8664710    -1.8000490    -0.0000060
  H        1.9266830     2.5875900     0.0000020
  H       -3.2831410    -1.1955370     0.0000680
  H       -2.7752520     1.3134440    -0.0000840
  H        2.8756040    -1.8180060     0.0000090
  H        1.3377970    -2.6593590     0.0000020
units angstrom
no_reorient  #important for SAPT in psi4, default
symmetry c1  #important for SAPT in psi4, default
}

set PROPERTIES_ORIGIN ["COM"]
properties('MP2/aug-cc-pvtz', properties = ['dipole'])
--------------------------------------------------------------------------

    Molecular point group: c1
  Charge       = 0
  Multiplicity = 1
  Basis Set: AUG-CC-PVTZ
    Blend: AUG-CC-PVTZ
  Basis Set: (AUG-CC-PVTZ AUX)
    Blend: AUG-CC-PVTZ-JKFIT

    Orbital Energies [Eh]
    ---------------------

    Doubly Occupied:

       1A    -15.633894     2A    -15.586996     3A    -15.571101
       4A    -15.557139     5A    -15.549366     6A    -11.339691
       7A    -11.326626     8A    -11.317493     9A    -11.309332
      10A    -11.252253    11A     -1.366049    12A     -1.299467
      13A     -1.245239    14A     -1.185841    15A     -1.152547
      16A     -1.032639    17A     -0.897168    18A     -0.874172
      19A     -0.845803    20A     -0.779085    21A     -0.739446
      22A     -0.699750    23A     -0.677299    24A     -0.637615
      25A     -0.633679    26A     -0.612936    27A     -0.591074
      28A     -0.559191    29A     -0.497219    30A     -0.496063
      31A     -0.450297    32A     -0.424492    33A     -0.408691
      34A     -0.373986    35A     -0.307036

  @DF-RHF Final Energy:  -464.68271375964719

   => Energetics <=

    Nuclear Repulsion Energy =            502.2968731707271672
    One-Electron Energy =               -1627.4978241314063325
    Two-Electron Energy =                 660.5182372010319796
    Total Energy =                       -464.6827137596471857
  Basis Set: (AUG-CC-PVTZ AUX)
    Blend: AUG-CC-PVTZ-RI
    Molecular point group: c1

    Geometry (in Angstrom), charge = 0, multiplicity = 1:

       Center              X                  Y                   Z               Mass
    ------------   -----------------  -----------------  -----------------  -----------------
         N            1.934207383178     0.522250655543     0.000004933575    14.003074004430
         C            1.230892283178    -0.621549044457    -0.000002966425    12.000000000000
         C           -0.176260716822    -0.531485044457    -0.000010966425    12.000000000000
         C           -0.707691716822     0.761277955543     0.000000033575    12.000000000000
         N           -0.025296716822     1.918982955543     0.000005033575    14.003074004430
         C            1.293789283178     1.690233955543     0.000012033575    12.000000000000
         N           -1.162500716822    -1.498197044457    -0.000016966425    14.003074004430
         C           -2.282877716822    -0.788610044457     0.000044033575    12.000000000000
         N           -2.072066716822     0.567051955543    -0.000022966425    14.003074004430
         N            1.869117283178    -1.814351044457    -0.000005966425    14.003074004430
         H            1.929329283178     2.573287955543     0.000002033575     1.007825032230
         H           -3.280494716822    -1.209839044457     0.000068033575     1.007825032230
         H           -2.772605716822     1.299141955543    -0.000083966425     1.007825032230
         H            2.878250283178    -1.832308044457     0.000009033575     1.007825032230
         H            1.340443283178    -2.673661044457     0.000002033575     1.007825032230

  Basis Set: AUG-CC-PVTZ
    Blend: AUG-CC-PVTZ
  Basis Set: (AUG-CC-PVTZ AUX)
    Blend: AUG-CC-PVTZ-JKFIT
	 Reference Energy          =    -464.6827137596471857 [Eh]
	 Singles Energy            =      -0.0000000000000000 [Eh]
	 Same-Spin Energy          =      -0.5062177592209263 [Eh]
	 Opposite-Spin Energy      =      -1.4756944368478733 [Eh]
	 Correlation Energy        =      -1.9819121960687995 [Eh]
	 Total Energy              =    -466.6646259557159624 [Eh]

	 ================> DF-SCS-MP2 Energies <==================
	-----------------------------------------------------------
	 SCS Same-Spin Scale       =       0.3333333333333333 [-]
	 SCS Opposite-Spin Scale   =       1.2000000000000000 [-]
	 SCS Same-Spin Energy      =      -0.1687392530736421 [Eh]
	 SCS Opposite-Spin Energy  =      -1.7708333242174479 [Eh]
	 SCS Correlation Energy    =      -1.9395725772910899 [Eh]
	 SCS Total Energy          =    -466.6222863369382594 [Eh]
	-----------------------------------------------------------

  Dipole Moment: [D]
     X:    -2.1858      Y:    -1.2347      Z:    -0.0000     Total:     2.5104

*** Psi4 exiting successfully. Buy a developer a beer!
