                               Psi4 1.3.2 release

  ==> Input File <==

--------------------------------------------------------------------------
#psi4
#
memory 32 gb

molecule  {
0 1
  N        1.9514160     0.5241040     0.0000050
  C        1.2282460    -0.6072470    -0.0000030
  C       -0.1789070    -0.5171830    -0.0000110
  C       -0.7071561     0.7517388     0.0000013
  N       -0.0279430     1.9332850     0.0000050
  C        1.2911430     1.7045360     0.0000120
  N       -1.1651470    -1.4838950    -0.0000170
  C       -2.2855240    -0.7743080     0.0000440
  N       -2.0747130     0.5813540    -0.0000230
  N        1.8664710    -1.8000490    -0.0000060
  H        1.9266830     2.5875900     0.0000020
  H       -3.2831410    -1.1955370     0.0000680
  H       -2.7752520     1.3134440    -0.0000840
  H        2.8756040    -1.8180060     0.0000090
  H        1.3377970    -2.6593590     0.0000020
units angstrom
no_reorient  #important for SAPT in psi4, default
symmetry c1  #important for SAPT in psi4, default
}

set PROPERTIES_ORIGIN ["COM"]
properties('MP2/aug-cc-pvtz', properties = ['dipole'])
--------------------------------------------------------------------------

    Molecular point group: c1
  Charge       = 0
  Multiplicity = 1
  Basis Set: AUG-CC-PVTZ
    Blend: AUG-CC-PVTZ
  Basis Set: (AUG-CC-PVTZ AUX)
    Blend: AUG-CC-PVTZ-JKFIT

    Orbital Energies [Eh]
    ---------------------

    Doubly Occupied:

       1A    -15.634276     2A    -15.587059     3A    -15.571129
       4A    -15.559659     5A    -15.550782     6A    -11.340393
       7A    -11.326641     8A    -11.315991     9A    -11.311351
      10A    -11.251603    11A     -1.367391    12A     -1.296920
      13A     -1.242801    14A     -1.185611    15A     -1.148583
      16A     -1.035433    17A     -0.895465    18A     -0.873095
      19A     -0.847751    20A     -0.778397    21A     -0.738877
      22A     -0.700402    23A     -0.672609    24A     -0.638369
      25A     -0.632862    26A     -0.615999    27A     -0.588096
      28A     -0.558407    29A     -0.496220    30A     -0.494594
      31A     -0.452539    32A     -0.424112    33A     -0.411253
      34A     -0.372418    35A     -0.310965

  @DF-RHF Final Energy:  -464.68170232260502

   => Energetics <=

    Nuclear Repulsion Energy =            502.0403881531578349
    One-Electron Energy =               -1626.9880758953540862
    Two-Electron Energy =                 660.2659854195911748
    Total Energy =                       -464.6817023226050196
  Basis Set: (AUG-CC-PVTZ AUX)
    Blend: AUG-CC-PVTZ-RI
    Molecular point group: c1

    Geometry (in Angstrom), charge = 0, multiplicity = 1:

       Center              X                  Y                   Z               Mass
    ------------   -----------------  -----------------  -----------------  -----------------
         N            1.951720913987     0.513211056934     0.000004907698    14.003074004430
         C            1.228550913987    -0.618139943066    -0.000003092302    12.000000000000
         C           -0.178602086013    -0.528075943066    -0.000011092302    12.000000000000
         C           -0.706851186013     0.740845856934     0.000001207698    12.000000000000
         N           -0.027638086013     1.922392056934     0.000004907698    14.003074004430
         C            1.291447913987     1.693643056934     0.000011907698    12.000000000000
         N           -1.164842086013    -1.494787943066    -0.000017092302    14.003074004430
         C           -2.285219086013    -0.785200943066     0.000043907698    12.000000000000
         N           -2.074408086013     0.570461056934    -0.000023092302    14.003074004430
         N            1.866775913987    -1.810941943066    -0.000006092302    14.003074004430
         H            1.926987913987     2.576697056934     0.000001907698     1.007825032230
         H           -3.282836086013    -1.206429943066     0.000067907698     1.007825032230
         H           -2.774947086013     1.302551056934    -0.000084092302     1.007825032230
         H            2.875908913987    -1.828898943066     0.000008907698     1.007825032230
         H            1.338101913987    -2.670251943066     0.000001907698     1.007825032230

  Basis Set: AUG-CC-PVTZ
    Blend: AUG-CC-PVTZ
  Basis Set: (AUG-CC-PVTZ AUX)
    Blend: AUG-CC-PVTZ-JKFIT
	 Reference Energy          =    -464.6817023226050196 [Eh]
	 Singles Energy            =      -0.0000000000000000 [Eh]
	 Same-Spin Energy          =      -0.5059610394825280 [Eh]
	 Opposite-Spin Energy      =      -1.4761875774089708 [Eh]
	 Correlation Energy        =      -1.9821486168914988 [Eh]
	 Total Energy              =    -466.6638509394965126 [Eh]

	 ================> DF-SCS-MP2 Energies <==================
	-----------------------------------------------------------
	 SCS Same-Spin Scale       =       0.3333333333333333 [-]
	 SCS Opposite-Spin Scale   =       1.2000000000000000 [-]
	 SCS Same-Spin Energy      =      -0.1686536798275093 [Eh]
	 SCS Opposite-Spin Energy  =      -1.7714250928907649 [Eh]
	 SCS Correlation Energy    =      -1.9400787727182742 [Eh]
	 SCS Total Energy          =    -466.6217810953232856 [Eh]
	-----------------------------------------------------------

  Dipole Moment: [D]
     X:    -2.2329      Y:    -1.2188      Z:    -0.0000     Total:     2.5438

*** Psi4 exiting successfully. Buy a developer a beer!
