                               Psi4 1.3.2 release

  ==> Input File <==

--------------------------------------------------------------------------
#psi4
#
memory 32 gb

molecule  {
0 1
  N        1.9514160     0.5241040     0.0000050
  C        1.2681701    -0.6317961    -0.0000031
  C       -0.1789070    -0.5171830    -0.0000110
  C       -0.7103380     0.7755800     0.0000000
  N       -0.0279430     1.9332850     0.0000050
  C        1.2911430     1.7045360     0.0000120
  N       -1.1651470    -1.4838950    -0.0000170
  C       -2.2855240    -0.7743080     0.0000440
  N       -2.0747130     0.5813540    -0.0000230
  N        1.8664710    -1.8000490    -0.0000060
  H        1.9266830     2.5875900     0.0000020
  H       -3.2831410    -1.1955370     0.0000680
  H       -2.7752520     1.3134440    -0.0000840
  H        2.8756040    -1.8180060     0.0000090
  H        1.3377970    -2.6593590     0.0000020
units angstrom
no_reorient  #important for SAPT in psi4, default
symmetry c1  #important for SAPT in psi4, default
}

set PROPERTIES_ORIGIN ["COM"]
properties('MP2/aug-cc-pvtz', properties = ['dipole'])
--------------------------------------------------------------------------

    Molecular point group: c1
  Charge       = 0
  Multiplicity = 1
  Basis Set: AUG-CC-PVTZ
    Blend: AUG-CC-PVTZ
  Basis Set: (AUG-CC-PVTZ AUX)
    Blend: AUG-CC-PVTZ-JKFIT

    Orbital Energies [Eh]
    ---------------------

    Doubly Occupied:

       1A    -15.631795     2A    -15.594252     3A    -15.569201
       4A    -15.555903     5A    -15.548503     6A    -11.341959
       7A    -11.322412     8A    -11.313364     9A    -11.311423
      10A    -11.252925    11A     -1.362537    12A     -1.301420
      13A     -1.252715    14A     -1.185859    15A     -1.151156
      16A     -1.024166    17A     -0.893404    18A     -0.870598
      19A     -0.842898    20A     -0.783166    21A     -0.745872
      22A     -0.702190    23A     -0.677547    24A     -0.635865
      25A     -0.634469    26A     -0.606184    27A     -0.587951
      28A     -0.563152    29A     -0.499128    30A     -0.493585
      31A     -0.448198    32A     -0.423876    33A     -0.405533
      34A     -0.372123    35A     -0.301777

  @DF-RHF Final Energy:  -464.67890697530981

   => Energetics <=

    Nuclear Repulsion Energy =            501.3805943493246104
    One-Electron Energy =               -1625.7047907960027260
    Two-Electron Energy =                 659.6452894713683008
    Total Energy =                       -464.6789069753098147
  Basis Set: (AUG-CC-PVTZ AUX)
    Blend: AUG-CC-PVTZ-RI
    Molecular point group: c1

    Geometry (in Angstrom), charge = 0, multiplicity = 1:

       Center              X                  Y                   Z               Mass
    ------------   -----------------  -----------------  -----------------  -----------------
         N            1.948456258491     0.513273955988     0.000005032092    14.003074004430
         C            1.265210358491    -0.642626144012    -0.000003067908    12.000000000000
         C           -0.181866741509    -0.528013044012    -0.000010967908    12.000000000000
         C           -0.713297741509     0.764749955988     0.000000032092    12.000000000000
         N           -0.030902741509     1.922454955988     0.000005032092    14.003074004430
         C            1.288183258491     1.693705955988     0.000012032092    12.000000000000
         N           -1.168106741509    -1.494725044012    -0.000016967908    14.003074004430
         C           -2.288483741509    -0.785138044012     0.000044032092    12.000000000000
         N           -2.077672741509     0.570523955988    -0.000022967908    14.003074004430
         N            1.863511258491    -1.810879044012    -0.000005967908    14.003074004430
         H            1.923723258491     2.576759955988     0.000002032092     1.007825032230
         H           -3.286100741509    -1.206367044012     0.000068032092     1.007825032230
         H           -2.778211741509     1.302613955988    -0.000083967908     1.007825032230
         H            2.872644258491    -1.828836044012     0.000009032092     1.007825032230
         H            1.334837258491    -2.670189044012     0.000002032092     1.007825032230

  Basis Set: AUG-CC-PVTZ
    Blend: AUG-CC-PVTZ
  Basis Set: (AUG-CC-PVTZ AUX)
    Blend: AUG-CC-PVTZ-JKFIT
	 Reference Energy          =    -464.6789069753098147 [Eh]
	 Singles Energy            =      -0.0000000000000000 [Eh]
	 Same-Spin Energy          =      -0.5063491729663671 [Eh]
	 Opposite-Spin Energy      =      -1.4761571927342789 [Eh]
	 Correlation Energy        =      -1.9825063657006461 [Eh]
	 Total Energy              =    -466.6614133410104728 [Eh]

	 ================> DF-SCS-MP2 Energies <==================
	-----------------------------------------------------------
	 SCS Same-Spin Scale       =       0.3333333333333333 [-]
	 SCS Opposite-Spin Scale   =       1.2000000000000000 [-]
	 SCS Same-Spin Energy      =      -0.1687830576554557 [Eh]
	 SCS Opposite-Spin Energy  =      -1.7713886312811347 [Eh]
	 SCS Correlation Energy    =      -1.9401716889365903 [Eh]
	 SCS Total Energy          =    -466.6190786642463877 [Eh]
	-----------------------------------------------------------

  Dipole Moment: [D]
     X:    -1.9739      Y:    -1.5064      Z:    -0.0000     Total:     2.4830

*** Psi4 exiting successfully. Buy a developer a beer!
