                               Psi4 1.4a3.dev225

  ==> Input File <==

--------------------------------------------------------------------------
#psi4
#
memory 32 gb

molecule  {
0 1
  N        1.9483950     0.5259860     0.0099940
  C        1.2281250    -0.6055780    -0.0011110
  C       -0.1777080    -0.5183570    -0.0133480
  C       -0.7121930     0.7746180    -0.0067610
  N       -0.0315150     1.9321470    -0.0030770
  C        1.2882650     1.7066530     0.0061850
  N       -1.1633520    -1.4857590     0.0015620
  C       -2.2839740    -0.7772230     0.0077650
  N       -2.0759200     0.5789190     0.0016180
  N        1.8765300    -1.8041700    -0.0655800
  H        1.9107522     2.5742465     0.0145307
  H       -3.2809510    -1.1999800     0.0170960
  H       -2.7777110     1.3098630     0.0041890
  H        2.8553720    -1.7872280     0.1925460
  H        1.3468110    -2.6236890     0.2034770
units angstrom
no_reorient  #important for SAPT in psi4, default
symmetry c1  #important for SAPT in psi4, default
}

set PROPERTIES_ORIGIN ["COM"]
properties('MP2/aug-cc-pvtz', properties = ['dipole'])
--------------------------------------------------------------------------

    Molecular point group: c1
  Charge       = 0
  Multiplicity = 1
  Basis Set: AUG-CC-PVTZ
    Blend: AUG-CC-PVTZ
  Basis Set: (AUG-CC-PVTZ AUX)
    Blend: AUG-CC-PVTZ-JKFIT

    Orbital Energies [Eh]
    ---------------------

    Doubly Occupied:

       1A    -15.636138     2A    -15.584070     3A    -15.572788
       4A    -15.562452     5A    -15.554130     6A    -11.337941
       7A    -11.328495     8A    -11.320186     9A    -11.311665
      10A    -11.255066    11A     -1.368012    12A     -1.298307
      13A     -1.245557    14A     -1.186788    15A     -1.152536
      16A     -1.033910    17A     -0.895317    18A     -0.878187
      19A     -0.847656    20A     -0.776742    21A     -0.735252
      22A     -0.698565    23A     -0.674181    24A     -0.640197
      25A     -0.631712    26A     -0.611676    27A     -0.593388
      28A     -0.557612    29A     -0.499400    30A     -0.498375
      31A     -0.454633    32A     -0.427526    33A     -0.411902
      34A     -0.375175    35A     -0.311249

  @DF-RHF Final Energy:  -464.68184734179897

   => Energetics <=

    Nuclear Repulsion Energy =            501.7897576220165092
    One-Electron Energy =               -1626.4096375718427225
    Two-Electron Energy =                 659.9380326080271288
    Total Energy =                       -464.6818473417989708
  Basis Set: (AUG-CC-PVTZ AUX)
    Blend: AUG-CC-PVTZ-RI
    Molecular point group: c1

    Geometry (in Angstrom), charge = 0, multiplicity = 1:

       Center              X                  Y                   Z               Mass
    ------------   -----------------  -----------------  -----------------  -----------------
         N            1.948953935026     0.513546569644     0.013170160132    14.003074004430
         C            1.228683935026    -0.618017430356     0.002065160132    12.000000000000
         C           -0.177149064974    -0.530796430356    -0.010171839868    12.000000000000
         C           -0.711634064974     0.762178569644    -0.003584839868    12.000000000000
         N           -0.030956064974     1.919707569644     0.000099160132    14.003074004430
         C            1.288823935026     1.694213569644     0.009361160132    12.000000000000
         N           -1.162793064974    -1.498198430356     0.004738160132    14.003074004430
         C           -2.283415064974    -0.789662430356     0.010941160132    12.000000000000
         N           -2.075361064974     0.566479569644     0.004794160132    14.003074004430
         N            1.877088935026    -1.816609430356    -0.062403839868    14.003074004430
         H            1.911311135026     2.561807069644     0.017706860132     1.007825032230
         H           -3.280392064974    -1.212419430356     0.020272160132     1.007825032230
         H           -2.777152064974     1.297423569644     0.007365160132     1.007825032230
         H            2.855930935026    -1.799667430356     0.195722160132     1.007825032230
         H            1.347369935026    -2.636128430356     0.206653160132     1.007825032230

  Basis Set: AUG-CC-PVTZ
    Blend: AUG-CC-PVTZ
  Basis Set: (AUG-CC-PVTZ AUX)
    Blend: AUG-CC-PVTZ-JKFIT
	 Reference Energy          =    -464.6818473417989708 [Eh]
	 Singles Energy            =      -0.0000000000000000 [Eh]
	 Same-Spin Energy          =      -0.5062970932889315 [Eh]
	 Opposite-Spin Energy      =      -1.4763410912333104 [Eh]
	 Correlation Energy        =      -1.9826381845222418 [Eh]
	 Total Energy              =    -466.6644855263211866 [Eh]

	 ================> DF-SCS-MP2 Energies <==================
	-----------------------------------------------------------
	 SCS Same-Spin Scale       =       0.3333333333333333 [-]
	 SCS Opposite-Spin Scale   =       1.2000000000000000 [-]
	 SCS Same-Spin Energy      =      -0.1687656977629771 [Eh]
	 SCS Opposite-Spin Energy  =      -1.7716093094799723 [Eh]
	 SCS Correlation Energy    =      -1.9403750072429495 [Eh]
	 SCS Total Energy          =    -466.6222223490419196 [Eh]
	-----------------------------------------------------------

  Dipole Moment: [D]
     X:    -2.4604      Y:    -0.8569      Z:     0.7201     Total:     2.7030

*** Psi4 exiting successfully. Buy a developer a beer!
