                               Psi4 1.3.2 release

  ==> Input File <==

--------------------------------------------------------------------------
#psi4
#
memory 32 gb

molecule  {
0 1
  N        1.9514160     0.5241040     0.0000050
  C        1.2282460    -0.6072470    -0.0000030
  C       -0.1789070    -0.5171830    -0.0000110
  C       -0.7103380     0.7755800     0.0000000
  N       -0.0279430     1.9332850     0.0000050
  C        1.2911430     1.7045360     0.0000120
  N       -1.1651470    -1.4838950    -0.0000170
  C       -2.2855240    -0.7743080     0.0000440
  N       -2.0747130     0.5813540    -0.0000230
  N        1.9608261    -1.9763927    -0.0000064
  H        1.9266830     2.5875900     0.0000020
  H       -3.2831410    -1.1955370     0.0000680
  H       -2.7752520     1.3134440    -0.0000840
  H        2.8756040    -1.8180060     0.0000090
  H        1.3377970    -2.6593590     0.0000020
units angstrom
no_reorient  #important for SAPT in psi4, default
symmetry c1  #important for SAPT in psi4, default
}

set PROPERTIES_ORIGIN ["COM"]
properties('MP2/aug-cc-pvtz', properties = ['dipole'])
--------------------------------------------------------------------------

    Molecular point group: c1
  Charge       = 0
  Multiplicity = 1
  Basis Set: AUG-CC-PVTZ
    Blend: AUG-CC-PVTZ
  Basis Set: (AUG-CC-PVTZ AUX)
    Blend: AUG-CC-PVTZ-JKFIT

    Orbital Energies [Eh]
    ---------------------

    Doubly Occupied:

       1A    -15.641561     2A    -15.577075     3A    -15.573547
       4A    -15.566337     5A    -15.563661     6A    -11.350715
       7A    -11.334995     8A    -11.327713     9A    -11.319780
      10A    -11.265239    11A     -1.373726    12A     -1.295973
      13A     -1.228171    14A     -1.184693    15A     -1.157514
      16A     -1.042430    17A     -0.900061    18A     -0.879619
      19A     -0.853286    20A     -0.778854    21A     -0.747006
      22A     -0.712566    23A     -0.681744    24A     -0.642742
      25A     -0.632146    26A     -0.607769    27A     -0.581468
      28A     -0.549362    29A     -0.504933    30A     -0.485922
      31A     -0.460979    32A     -0.423864    33A     -0.417152
      34A     -0.380455    35A     -0.321521

  @DF-RHF Final Energy:  -464.63679112008447

   => Energetics <=

    Nuclear Repulsion Energy =            497.2959299563883064
    One-Electron Energy =               -1617.1362829050376604
    Two-Electron Energy =                 655.2035618285648297
    Total Energy =                       -464.6367911200844674
  Basis Set: (AUG-CC-PVTZ AUX)
    Blend: AUG-CC-PVTZ-RI
    Molecular point group: c1

    Geometry (in Angstrom), charge = 0, multiplicity = 1:

       Center              X                  Y                   Z               Mass
    ------------   -----------------  -----------------  -----------------  -----------------
         N            1.942220462734     0.529376823785     0.000005064680    14.003074004430
         C            1.219050462734    -0.601974176215    -0.000002935320    12.000000000000
         C           -0.188102537266    -0.511910176215    -0.000010935320    12.000000000000
         C           -0.719533537266     0.780852823785     0.000000064680    12.000000000000
         N           -0.037138537266     1.938557823785     0.000005064680    14.003074004430
         C            1.281947462734     1.709808823785     0.000012064680    12.000000000000
         N           -1.174342537266    -1.478622176215    -0.000016935320    14.003074004430
         C           -2.294719537266    -0.769035176215     0.000044064680    12.000000000000
         N           -2.083908537266     0.586626823785    -0.000022935320    14.003074004430
         N            1.951630562734    -1.971119876215    -0.000006335320    14.003074004430
         H            1.917487462734     2.592862823785     0.000002064680     1.007825032230
         H           -3.292336537266    -1.190264176215     0.000068064680     1.007825032230
         H           -2.784447537266     1.318716823785    -0.000083935320     1.007825032230
         H            2.866408462734    -1.812733176215     0.000009064680     1.007825032230
         H            1.328601462734    -2.654086176215     0.000002064680     1.007825032230

  Basis Set: AUG-CC-PVTZ
    Blend: AUG-CC-PVTZ
  Basis Set: (AUG-CC-PVTZ AUX)
    Blend: AUG-CC-PVTZ-JKFIT
	 Reference Energy          =    -464.6367911200844674 [Eh]
	 Singles Energy            =      -0.0000000000000000 [Eh]
	 Same-Spin Energy          =      -0.5063629490167310 [Eh]
	 Opposite-Spin Energy      =      -1.4780697807578584 [Eh]
	 Correlation Energy        =      -1.9844327297745894 [Eh]
	 Total Energy              =    -466.6212238498590636 [Eh]

	 ================> DF-SCS-MP2 Energies <==================
	-----------------------------------------------------------
	 SCS Same-Spin Scale       =       0.3333333333333333 [-]
	 SCS Opposite-Spin Scale   =       1.2000000000000000 [-]
	 SCS Same-Spin Energy      =      -0.1687876496722436 [Eh]
	 SCS Opposite-Spin Energy  =      -1.7736837369094300 [Eh]
	 SCS Correlation Energy    =      -1.9424713865816736 [Eh]
	 SCS Total Energy          =    -466.5792625066661685 [Eh]
	-----------------------------------------------------------

  Dipole Moment: [D]
     X:    -3.0785      Y:     0.0187      Z:    -0.0000     Total:     3.0786

*** Psi4 exiting successfully. Buy a developer a beer!
