                               Psi4 1.3.2 release

  ==> Input File <==

--------------------------------------------------------------------------
#psi4
#
memory 32 gb

molecule  {
0 1
  N        1.9514160     0.5241040     0.0000050
  C        1.2282460    -0.6072470    -0.0000030
  C       -0.1789070    -0.5171830    -0.0000110
  C       -0.7103380     0.7755800     0.0000000
  N       -0.0279430     1.9332850     0.0000050
  C        1.2911430     1.7045360     0.0000120
  N       -1.1651470    -1.4838950    -0.0000170
  C       -2.2855240    -0.7743080     0.0000440
  N       -2.0747130     0.5813540    -0.0000230
  N        1.8664710    -1.8000490    -0.0000060
  H        2.0435126     2.7499194     0.0000002
  H       -3.2831410    -1.1955370     0.0000680
  H       -2.7752520     1.3134440    -0.0000840
  H        2.8756040    -1.8180060     0.0000090
  H        1.3377970    -2.6593590     0.0000020
units angstrom
no_reorient  #important for SAPT in psi4, default
symmetry c1  #important for SAPT in psi4, default
}

set PROPERTIES_ORIGIN ["COM"]
properties('MP2/aug-cc-pvtz', properties = ['dipole'])
--------------------------------------------------------------------------

    Molecular point group: c1
  Charge       = 0
  Multiplicity = 1
  Basis Set: AUG-CC-PVTZ
    Blend: AUG-CC-PVTZ
  Basis Set: (AUG-CC-PVTZ AUX)
    Blend: AUG-CC-PVTZ-JKFIT

    Orbital Energies [Eh]
    ---------------------

    Doubly Occupied:

       1A    -15.635641     2A    -15.586742     3A    -15.572528
       4A    -15.561852     5A    -15.554176     6A    -11.340788
       7A    -11.333366     8A    -11.327477     9A    -11.320000
      10A    -11.253755    11A     -1.367304    12A     -1.298438
      13A     -1.246286    14A     -1.186445    15A     -1.152887
      16A     -1.030566    17A     -0.893859    18A     -0.866799
      19A     -0.847213    20A     -0.776839    21A     -0.736156
      22A     -0.691980    23A     -0.676527    24A     -0.638851
      25A     -0.629925    26A     -0.613968    27A     -0.567635
      28A     -0.559348    29A     -0.498227    30A     -0.489584
      31A     -0.447574    32A     -0.425176    33A     -0.412218
      34A     -0.374607    35A     -0.308685

  @DF-RHF Final Energy:  -464.65946011507333

   => Energetics <=

    Nuclear Repulsion Energy =            500.8202081630548150
    One-Electron Energy =               -1624.5124886633755068
    Two-Electron Energy =                 659.0328203852474189
    Total Energy =                       -464.6594601150733297
  Basis Set: (AUG-CC-PVTZ AUX)
    Blend: AUG-CC-PVTZ-RI
    Molecular point group: c1

    Geometry (in Angstrom), charge = 0, multiplicity = 1:

       Center              X                  Y                   Z               Mass
    ------------   -----------------  -----------------  -----------------  -----------------
         N            1.951131811083     0.509881334127     0.000005036639    14.003074004430
         C            1.227961811083    -0.621469665873    -0.000002963361    12.000000000000
         C           -0.179191188917    -0.531405665873    -0.000010963361    12.000000000000
         C           -0.710622188917     0.761357334127     0.000000036639    12.000000000000
         N           -0.028227188917     1.919062334127     0.000005036639    14.003074004430
         C            1.290858811083     1.690313334127     0.000012036639    12.000000000000
         N           -1.165431188917    -1.498117665873    -0.000016963361    14.003074004430
         C           -2.285808188917    -0.788530665873     0.000044036639    12.000000000000
         N           -2.074997188917     0.567131334127    -0.000022963361    14.003074004430
         N            1.866186811083    -1.814271665873    -0.000005963361    14.003074004430
         H            2.043228411083     2.735696734127     0.000000236639     1.007825032230
         H           -3.283425188917    -1.209759665873     0.000068036639     1.007825032230
         H           -2.775536188917     1.299221334127    -0.000083963361     1.007825032230
         H            2.875319811083    -1.832228665873     0.000009036639     1.007825032230
         H            1.337512811083    -2.673581665873     0.000002036639     1.007825032230

  Basis Set: AUG-CC-PVTZ
    Blend: AUG-CC-PVTZ
  Basis Set: (AUG-CC-PVTZ AUX)
    Blend: AUG-CC-PVTZ-JKFIT
	 Reference Energy          =    -464.6594601150733297 [Eh]
	 Singles Energy            =      -0.0000000000000000 [Eh]
	 Same-Spin Energy          =      -0.5069874662218802 [Eh]
	 Opposite-Spin Energy      =      -1.4784688153807304 [Eh]
	 Correlation Energy        =      -1.9854562816026107 [Eh]
	 Total Energy              =    -466.6449163966759670 [Eh]

	 ================> DF-SCS-MP2 Energies <==================
	-----------------------------------------------------------
	 SCS Same-Spin Scale       =       0.3333333333333333 [-]
	 SCS Opposite-Spin Scale   =       1.2000000000000000 [-]
	 SCS Same-Spin Energy      =      -0.1689958220739601 [Eh]
	 SCS Opposite-Spin Energy  =      -1.7741625784568764 [Eh]
	 SCS Correlation Energy    =      -1.9431584005308364 [Eh]
	 SCS Total Energy          =    -466.6026185156041493 [Eh]
	-----------------------------------------------------------

  Dipole Moment: [D]
     X:    -2.3187      Y:    -1.2899      Z:    -0.0000     Total:     2.6533

*** Psi4 exiting successfully. Buy a developer a beer!
