                               Psi4 1.3.2 release

  ==> Input File <==

--------------------------------------------------------------------------
#psi4
#
memory 32 gb

molecule  {
0 1
  N        1.8291960     0.5934982     0.0000045
  C        1.2282460    -0.6072470    -0.0000030
  C       -0.1789070    -0.5171830    -0.0000110
  C       -0.7103380     0.7755800     0.0000000
  N       -0.0279430     1.9332850     0.0000050
  C        1.2911430     1.7045360     0.0000120
  N       -1.1651470    -1.4838950    -0.0000170
  C       -2.2855240    -0.7743080     0.0000440
  N       -2.0747130     0.5813540    -0.0000230
  N        1.8664710    -1.8000490    -0.0000060
  H        1.9266830     2.5875900     0.0000020
  H       -3.2831410    -1.1955370     0.0000680
  H       -2.7752520     1.3134440    -0.0000840
  H        2.8756040    -1.8180060     0.0000090
  H        1.3377970    -2.6593590     0.0000020
units angstrom
no_reorient  #important for SAPT in psi4, default
symmetry c1  #important for SAPT in psi4, default
}

set PROPERTIES_ORIGIN ["COM"]
properties('MP2/aug-cc-pvtz', properties = ['dipole'])
--------------------------------------------------------------------------

    Molecular point group: c1
  Charge       = 0
  Multiplicity = 1
  Basis Set: AUG-CC-PVTZ
    Blend: AUG-CC-PVTZ
  Basis Set: (AUG-CC-PVTZ AUX)
    Blend: AUG-CC-PVTZ-JKFIT

    Orbital Energies [Eh]
    ---------------------

    Doubly Occupied:

       1A    -15.630297     2A    -15.593388     3A    -15.567956
       4A    -15.545373     5A    -15.537079     6A    -11.344604
       7A    -11.326419     8A    -11.313974     9A    -11.293070
      10A    -11.249714    11A     -1.365928    12A     -1.313013
      13A     -1.246976    14A     -1.187618    15A     -1.155342
      16A     -1.037059    17A     -0.909794    18A     -0.867301
      19A     -0.842787    20A     -0.781480    21A     -0.745683
      22A     -0.701207    23A     -0.684902    24A     -0.640389
      25A     -0.638040    26A     -0.613081    27A     -0.595157
      28A     -0.566035    29A     -0.500681    30A     -0.491779
      31A     -0.439562    32A     -0.425757    33A     -0.393924
      34A     -0.377256    35A     -0.303905

  @DF-RHF Final Energy:  -464.66914039013500

   => Energetics <=

    Nuclear Repulsion Energy =            504.8943882448859313
    One-Electron Energy =               -1632.6740005109545564
    Two-Electron Energy =                 663.1104718759336265
    Total Energy =                       -464.6691403901349986
  Basis Set: (AUG-CC-PVTZ AUX)
    Blend: AUG-CC-PVTZ-RI
    Molecular point group: c1

    Geometry (in Angstrom), charge = 0, multiplicity = 1:

       Center              X                  Y                   Z               Mass
    ------------   -----------------  -----------------  -----------------  -----------------
         N            1.842455969667     0.573291783018     0.000004575049    14.003074004430
         C            1.241505969667    -0.627453416982    -0.000002924951    12.000000000000
         C           -0.165647030333    -0.537389416982    -0.000010924951    12.000000000000
         C           -0.697078030333     0.755373583018     0.000000075049    12.000000000000
         N           -0.014683030333     1.913078583018     0.000005075049    14.003074004430
         C            1.304402969667     1.684329583018     0.000012075049    12.000000000000
         N           -1.151887030333    -1.504101416982    -0.000016924951    14.003074004430
         C           -2.272264030333    -0.794514416982     0.000044075049    12.000000000000
         N           -2.061453030333     0.561147583018    -0.000022924951    14.003074004430
         N            1.879730969667    -1.820255416982    -0.000005924951    14.003074004430
         H            1.939942969667     2.567383583018     0.000002075049     1.007825032230
         H           -3.269881030333    -1.215743416982     0.000068075049     1.007825032230
         H           -2.761992030333     1.293237583018    -0.000083924951     1.007825032230
         H            2.888863969667    -1.838212416982     0.000009075049     1.007825032230
         H            1.351056969667    -2.679565416982     0.000002075049     1.007825032230

  Basis Set: AUG-CC-PVTZ
    Blend: AUG-CC-PVTZ
  Basis Set: (AUG-CC-PVTZ AUX)
    Blend: AUG-CC-PVTZ-JKFIT
	 Reference Energy          =    -464.6691403901349986 [Eh]
	 Singles Energy            =      -0.0000000000000000 [Eh]
	 Same-Spin Energy          =      -0.5062031321860649 [Eh]
	 Opposite-Spin Energy      =      -1.4740119101060980 [Eh]
	 Correlation Energy        =      -1.9802150422921629 [Eh]
	 Total Energy              =    -466.6493554324271713 [Eh]

	 ================> DF-SCS-MP2 Energies <==================
	-----------------------------------------------------------
	 SCS Same-Spin Scale       =       0.3333333333333333 [-]
	 SCS Opposite-Spin Scale   =       1.2000000000000000 [-]
	 SCS Same-Spin Energy      =      -0.1687343773953550 [Eh]
	 SCS Opposite-Spin Energy  =      -1.7688142921273176 [Eh]
	 SCS Correlation Energy    =      -1.9375486695226725 [Eh]
	 SCS Total Energy          =    -466.6066890596576968 [Eh]
	-----------------------------------------------------------

  Dipole Moment: [D]
     X:    -1.8052      Y:    -1.4883      Z:    -0.0000     Total:     2.3396

*** Psi4 exiting successfully. Buy a developer a beer!
