                               Psi4 1.3.2 release

  ==> Input File <==

--------------------------------------------------------------------------
#psi4
#
memory 32 gb

molecule  {
0 1
  N        1.9514160     0.5241040     0.0000050
  C        1.2282460    -0.6072470    -0.0000030
  C       -0.1789070    -0.5171830    -0.0000110
  C       -0.6975100     0.6319000     0.0000080
  N       -0.0279430     1.9332850     0.0000050
  C        1.2911430     1.7045360     0.0000120
  N       -1.1651470    -1.4838950    -0.0000170
  C       -2.2855240    -0.7743080     0.0000440
  N       -2.0747130     0.5813540    -0.0000230
  N        1.8664710    -1.8000490    -0.0000060
  H        1.9266830     2.5875900     0.0000020
  H       -3.2831410    -1.1955370     0.0000680
  H       -2.7752520     1.3134440    -0.0000840
  H        2.8756040    -1.8180060     0.0000090
  H        1.3377970    -2.6593590     0.0000020
units angstrom
no_reorient  #important for SAPT in psi4, default
symmetry c1  #important for SAPT in psi4, default
}

set PROPERTIES_ORIGIN ["COM"]
properties('MP2/aug-cc-pvtz', properties = ['dipole'])
--------------------------------------------------------------------------

    Molecular point group: c1
  Charge       = 0
  Multiplicity = 1
  Basis Set: AUG-CC-PVTZ
    Blend: AUG-CC-PVTZ
  Basis Set: (AUG-CC-PVTZ AUX)
    Blend: AUG-CC-PVTZ-JKFIT

    Orbital Energies [Eh]
    ---------------------

    Doubly Occupied:

       1A    -15.632045     2A    -15.594025     3A    -15.567982
       4A    -15.560355     5A    -15.547082     6A    -11.347932
       7A    -11.326721     8A    -11.306457     9A    -11.303386
      10A    -11.243142    11A     -1.374943    12A     -1.296841
      13A     -1.232113    14A     -1.186411    15A     -1.135079
      16A     -1.053385    17A     -0.900949    18A     -0.863295
      19A     -0.851135    20A     -0.779314    21A     -0.742415
      22A     -0.704906    23A     -0.657944    24A     -0.643949
      25A     -0.641465    26A     -0.622992    27A     -0.576110
      28A     -0.560429    29A     -0.491558    30A     -0.484982
      31A     -0.448593    32A     -0.423878    33A     -0.411490
      34A     -0.371489    35A     -0.326392

  @DF-RHF Final Energy:  -464.65266212435233

   => Energetics <=

    Nuclear Repulsion Energy =            503.2979141109900070
    One-Electron Energy =               -1629.4787841908569135
    Two-Electron Energy =                 661.5282079555146311
    Total Energy =                       -464.6526621243523323
  Basis Set: (AUG-CC-PVTZ AUX)
    Blend: AUG-CC-PVTZ-RI
    Molecular point group: c1

    Geometry (in Angstrom), charge = 0, multiplicity = 1:

       Center              X                  Y                   Z               Mass
    ------------   -----------------  -----------------  -----------------  -----------------
         N            1.950863828854     0.523859096439     0.000004312382    14.003074004430
         C            1.227693828854    -0.607491903561    -0.000003687618    12.000000000000
         C           -0.179459171146    -0.517427903561    -0.000011687618    12.000000000000
         C           -0.698062171146     0.631655096439     0.000007312382    12.000000000000
         N           -0.028495171146     1.933040096439     0.000004312382    14.003074004430
         C            1.290590828854     1.704291096439     0.000011312382    12.000000000000
         N           -1.165699171146    -1.484139903561    -0.000017687618    14.003074004430
         C           -2.286076171146    -0.774552903561     0.000043312382    12.000000000000
         N           -2.075265171146     0.581109096439    -0.000023687618    14.003074004430
         N            1.865918828854    -1.800293903561    -0.000006687618    14.003074004430
         H            1.926130828854     2.587345096439     0.000001312382     1.007825032230
         H           -3.283693171146    -1.195781903561     0.000067312382     1.007825032230
         H           -2.775804171146     1.313199096439    -0.000084687618     1.007825032230
         H            2.875051828854    -1.818250903561     0.000008312382     1.007825032230
         H            1.337244828854    -2.659603903561     0.000001312382     1.007825032230

  Basis Set: AUG-CC-PVTZ
    Blend: AUG-CC-PVTZ
  Basis Set: (AUG-CC-PVTZ AUX)
    Blend: AUG-CC-PVTZ-JKFIT
	 Reference Energy          =    -464.6526621243523323 [Eh]
	 Singles Energy            =      -0.0000000000000000 [Eh]
	 Same-Spin Energy          =      -0.5045701272604393 [Eh]
	 Opposite-Spin Energy      =      -1.4770327744969516 [Eh]
	 Correlation Energy        =      -1.9816029017573908 [Eh]
	 Total Energy              =    -466.6342650261097447 [Eh]

	 ================> DF-SCS-MP2 Energies <==================
	-----------------------------------------------------------
	 SCS Same-Spin Scale       =       0.3333333333333333 [-]
	 SCS Opposite-Spin Scale   =       1.2000000000000000 [-]
	 SCS Same-Spin Energy      =      -0.1681900424201464 [Eh]
	 SCS Opposite-Spin Energy  =      -1.7724393293963419 [Eh]
	 SCS Correlation Energy    =      -1.9406293718164882 [Eh]
	 SCS Total Energy          =    -466.5932914961688311 [Eh]
	-----------------------------------------------------------

  Dipole Moment: [D]
     X:    -2.1137      Y:    -1.3873      Z:    -0.0000     Total:     2.5283

*** Psi4 exiting successfully. Buy a developer a beer!
