                               Psi4 1.3.2 release

  ==> Input File <==

--------------------------------------------------------------------------
#psi4
#
memory 32 gb

molecule  {
0 1
  N        1.9710507     0.5113106     0.0000051
  C        1.2282460    -0.6072470    -0.0000030
  C       -0.1789070    -0.5171830    -0.0000110
  C       -0.7103380     0.7755800     0.0000000
  N       -0.0279430     1.9332850     0.0000050
  C        1.2911430     1.7045360     0.0000120
  N       -1.1651470    -1.4838950    -0.0000170
  C       -2.2855240    -0.7743080     0.0000440
  N       -2.0747130     0.5813540    -0.0000230
  N        1.8664710    -1.8000490    -0.0000060
  H        1.9266830     2.5875900     0.0000020
  H       -3.2831410    -1.1955370     0.0000680
  H       -2.7752520     1.3134440    -0.0000840
  H        2.8756040    -1.8180060     0.0000090
  H        1.3377970    -2.6593590     0.0000020
units angstrom
no_reorient  #important for SAPT in psi4, default
symmetry c1  #important for SAPT in psi4, default
}

set PROPERTIES_ORIGIN ["COM"]
properties('MP2/aug-cc-pvtz', properties = ['dipole'])
--------------------------------------------------------------------------

    Molecular point group: c1
  Charge       = 0
  Multiplicity = 1
  Basis Set: AUG-CC-PVTZ
    Blend: AUG-CC-PVTZ
  Basis Set: (AUG-CC-PVTZ AUX)
    Blend: AUG-CC-PVTZ-JKFIT

    Orbital Energies [Eh]
    ---------------------

    Doubly Occupied:

       1A    -15.635308     2A    -15.584237     3A    -15.572318
       4A    -15.561647     5A    -15.553947     6A    -11.337959
       7A    -11.326753     8A    -11.318793     9A    -11.315349
      10A    -11.253371    11A     -1.366481    12A     -1.295286
      13A     -1.245379    14A     -1.185400    15A     -1.149326
      16A     -1.031559    17A     -0.892477    18A     -0.876640
      19A     -0.846899    20A     -0.777667    21A     -0.737244
      22A     -0.699591    23A     -0.673807    24A     -0.637773
      25A     -0.631467    26A     -0.612951    27A     -0.588111
      28A     -0.556887    29A     -0.497891    30A     -0.496487
      31A     -0.455088    32A     -0.424047    33A     -0.412346
      34A     -0.372144    35A     -0.308215

  @DF-RHF Final Energy:  -464.68042909946530

   => Energetics <=

    Nuclear Repulsion Energy =            501.3378356351153684
    One-Electron Energy =               -1625.5748350935082271
    Two-Electron Energy =                 659.5565703589275017
    Total Energy =                       -464.6804290994653002
  Basis Set: (AUG-CC-PVTZ AUX)
    Blend: AUG-CC-PVTZ-RI
    Molecular point group: c1

    Geometry (in Angstrom), charge = 0, multiplicity = 1:

       Center              X                  Y                   Z               Mass
    ------------   -----------------  -----------------  -----------------  -----------------
         N            1.969602519010     0.499625773088     0.000005112838    14.003074004430
         C            1.226797819010    -0.618931826912    -0.000002987162    12.000000000000
         C           -0.180355180990    -0.528867826912    -0.000010987162    12.000000000000
         C           -0.711786180990     0.763895173088     0.000000012838    12.000000000000
         N           -0.029391180990     1.921600173088     0.000005012838    14.003074004430
         C            1.289694819010     1.692851173088     0.000012012838    12.000000000000
         N           -1.166595180990    -1.495579826912    -0.000016987162    14.003074004430
         C           -2.286972180990    -0.785992826912     0.000044012838    12.000000000000
         N           -2.076161180990     0.569669173088    -0.000022987162    14.003074004430
         N            1.865022819010    -1.811733826912    -0.000005987162    14.003074004430
         H            1.925234819010     2.575905173088     0.000002012838     1.007825032230
         H           -3.284589180990    -1.207221826912     0.000068012838     1.007825032230
         H           -2.776700180990     1.301759173088    -0.000083987162     1.007825032230
         H            2.874155819010    -1.829690826912     0.000009012838     1.007825032230
         H            1.336348819010    -2.671043826912     0.000002012838     1.007825032230

  Basis Set: AUG-CC-PVTZ
    Blend: AUG-CC-PVTZ
  Basis Set: (AUG-CC-PVTZ AUX)
    Blend: AUG-CC-PVTZ-JKFIT
	 Reference Energy          =    -464.6804290994653002 [Eh]
	 Singles Energy            =      -0.0000000000000000 [Eh]
	 Same-Spin Energy          =      -0.5064181826801325 [Eh]
	 Opposite-Spin Energy      =      -1.4768696318685022 [Eh]
	 Correlation Energy        =      -1.9832878145486346 [Eh]
	 Total Energy              =    -466.6637169140139463 [Eh]

	 ================> DF-SCS-MP2 Energies <==================
	-----------------------------------------------------------
	 SCS Same-Spin Scale       =       0.3333333333333333 [-]
	 SCS Opposite-Spin Scale   =       1.2000000000000000 [-]
	 SCS Same-Spin Energy      =      -0.1688060608933775 [Eh]
	 SCS Opposite-Spin Energy  =      -1.7722435582422025 [Eh]
	 SCS Correlation Energy    =      -1.9410496191355799 [Eh]
	 SCS Total Energy          =    -466.6214787186008834 [Eh]
	-----------------------------------------------------------

  Dipole Moment: [D]
     X:    -2.3239      Y:    -1.1314      Z:    -0.0000     Total:     2.5847

*** Psi4 exiting successfully. Buy a developer a beer!
