                               Psi4 1.3.2 release

  ==> Input File <==

--------------------------------------------------------------------------
#psi4
#
memory 32 gb

molecule  {
0 1
  N        1.9514160     0.5241040     0.0000050
  C        1.3089267    -0.6549369    -0.0000032
  C       -0.1789070    -0.5171830    -0.0000110
  C       -0.7103380     0.7755800     0.0000000
  N       -0.0279430     1.9332850     0.0000050
  C        1.2911430     1.7045360     0.0000120
  N       -1.1651470    -1.4838950    -0.0000170
  C       -2.2855240    -0.7743080     0.0000440
  N       -2.0747130     0.5813540    -0.0000230
  N        1.8664710    -1.8000490    -0.0000060
  H        1.9266830     2.5875900     0.0000020
  H       -3.2831410    -1.1955370     0.0000680
  H       -2.7752520     1.3134440    -0.0000840
  H        2.8756040    -1.8180060     0.0000090
  H        1.3377970    -2.6593590     0.0000020
units angstrom
no_reorient  #important for SAPT in psi4, default
symmetry c1  #important for SAPT in psi4, default
}

set PROPERTIES_ORIGIN ["COM"]
properties('MP2/aug-cc-pvtz', properties = ['dipole'])
--------------------------------------------------------------------------

    Molecular point group: c1
  Charge       = 0
  Multiplicity = 1
  Basis Set: AUG-CC-PVTZ
    Blend: AUG-CC-PVTZ
  Basis Set: (AUG-CC-PVTZ AUX)
    Blend: AUG-CC-PVTZ-JKFIT

    Orbital Energies [Eh]
    ---------------------

    Doubly Occupied:

       1A    -15.629075     2A    -15.602687     3A    -15.566766
       4A    -15.552398     5A    -15.545361     6A    -11.344823
       7A    -11.318314     8A    -11.310587     9A    -11.308753
      10A    -11.252764    11A     -1.359211    12A     -1.311210
      13A     -1.257395    14A     -1.185125    15A     -1.150292
      16A     -1.016915    17A     -0.893633    18A     -0.865976
      19A     -0.839337    20A     -0.789480    21A     -0.753627
      22A     -0.706250    23A     -0.677579    24A     -0.636749
      25A     -0.631847    26A     -0.598769    27A     -0.585416
      28A     -0.570470    29A     -0.500815    30A     -0.490283
      31A     -0.443832    32A     -0.422714    33A     -0.399558
      34A     -0.371140    35A     -0.296222

  @DF-RHF Final Energy:  -464.66926980286644

   => Energetics <=

    Nuclear Repulsion Energy =            500.9896138206128740
    One-Electron Energy =               -1624.9470265891748113
    Two-Electron Energy =                 659.2881429656954424
    Total Energy =                       -464.6692698028664381
  Basis Set: (AUG-CC-PVTZ AUX)
    Blend: AUG-CC-PVTZ-RI
    Molecular point group: c1

    Geometry (in Angstrom), charge = 0, multiplicity = 1:

       Center              X                  Y                   Z               Mass
    ------------   -----------------  -----------------  -----------------  -----------------
         N            1.944834911424     0.515330085994     0.000005040977    14.003074004430
         C            1.302345611424    -0.663710814006    -0.000003159023    12.000000000000
         C           -0.185488088576    -0.525956914006    -0.000010959023    12.000000000000
         C           -0.716919088576     0.766806085994     0.000000040977    12.000000000000
         N           -0.034524088576     1.924511085994     0.000005040977    14.003074004430
         C            1.284561911424     1.695762085994     0.000012040977    12.000000000000
         N           -1.171728088576    -1.492668914006    -0.000016959023    14.003074004430
         C           -2.292105088576    -0.783081914006     0.000044040977    12.000000000000
         N           -2.081294088576     0.572580085994    -0.000022959023    14.003074004430
         N            1.859889911424    -1.808822914006    -0.000005959023    14.003074004430
         H            1.920101911424     2.578816085994     0.000002040977     1.007825032230
         H           -3.289722088576    -1.204310914006     0.000068040977     1.007825032230
         H           -2.781833088576     1.304670085994    -0.000083959023     1.007825032230
         H            2.869022911424    -1.826779914006     0.000009040977     1.007825032230
         H            1.331215911424    -2.668132914006     0.000002040977     1.007825032230

  Basis Set: AUG-CC-PVTZ
    Blend: AUG-CC-PVTZ
  Basis Set: (AUG-CC-PVTZ AUX)
    Blend: AUG-CC-PVTZ-JKFIT
	 Reference Energy          =    -464.6692698028664381 [Eh]
	 Singles Energy            =      -0.0000000000000000 [Eh]
	 Same-Spin Energy          =      -0.5064407161923575 [Eh]
	 Opposite-Spin Energy      =      -1.4762741184994519 [Eh]
	 Correlation Energy        =      -1.9827148346918095 [Eh]
	 Total Energy              =    -466.6519846375582574 [Eh]

	 ================> DF-SCS-MP2 Energies <==================
	-----------------------------------------------------------
	 SCS Same-Spin Scale       =       0.3333333333333333 [-]
	 SCS Opposite-Spin Scale   =       1.2000000000000000 [-]
	 SCS Same-Spin Energy      =      -0.1688135720641192 [Eh]
	 SCS Opposite-Spin Energy  =      -1.7715289421993423 [Eh]
	 SCS Correlation Energy    =      -1.9403425142634614 [Eh]
	 SCS Total Energy          =    -466.6096123171299155 [Eh]
	-----------------------------------------------------------

  Dipole Moment: [D]
     X:    -1.6946      Y:    -1.8227      Z:    -0.0000     Total:     2.4887

*** Psi4 exiting successfully. Buy a developer a beer!
