                               Psi4 1.3.2 release

  ==> Input File <==

--------------------------------------------------------------------------
#psi4
#
memory 32 gb

molecule  {
0 1
  N        1.9514160     0.5241040     0.0000050
  C        1.2282460    -0.6072470    -0.0000030
  C       -0.1789070    -0.5171830    -0.0000110
  C       -0.7001130     0.6799329     0.0000053
  N       -0.0279430     1.9332850     0.0000050
  C        1.2911430     1.7045360     0.0000120
  N       -1.1651470    -1.4838950    -0.0000170
  C       -2.2855240    -0.7743080     0.0000440
  N       -2.0747130     0.5813540    -0.0000230
  N        1.8664710    -1.8000490    -0.0000060
  H        1.9266830     2.5875900     0.0000020
  H       -3.2831410    -1.1955370     0.0000680
  H       -2.7752520     1.3134440    -0.0000840
  H        2.8756040    -1.8180060     0.0000090
  H        1.3377970    -2.6593590     0.0000020
units angstrom
no_reorient  #important for SAPT in psi4, default
symmetry c1  #important for SAPT in psi4, default
}

set PROPERTIES_ORIGIN ["COM"]
properties('MP2/aug-cc-pvtz', properties = ['dipole'])
--------------------------------------------------------------------------

    Molecular point group: c1
  Charge       = 0
  Multiplicity = 1
  Basis Set: AUG-CC-PVTZ
    Blend: AUG-CC-PVTZ
  Basis Set: (AUG-CC-PVTZ AUX)
    Blend: AUG-CC-PVTZ-JKFIT

    Orbital Energies [Eh]
    ---------------------

    Doubly Occupied:

       1A    -15.633040     2A    -15.591303     3A    -15.569243
       4A    -15.560206     5A    -15.548396     6A    -11.345018
       7A    -11.326620     8A    -11.308715     9A    -11.308347
      10A    -11.246968    11A     -1.371545    12A     -1.296600
      13A     -1.235989    14A     -1.185898    15A     -1.140586
      16A     -1.046117    17A     -0.898458    18A     -0.866636
      19A     -0.850565    20A     -0.778739    21A     -0.740873
      22A     -0.703154    23A     -0.663349    24A     -0.641270
      25A     -0.636686    26A     -0.622167    27A     -0.581522
      28A     -0.559621    29A     -0.493590    30A     -0.488524
      31A     -0.450908    32A     -0.423795    33A     -0.411845
      34A     -0.371247    35A     -0.320674

  @DF-RHF Final Energy:  -464.67007836355441

   => Energetics <=

    Nuclear Repulsion Energy =            502.7705692772139514
    One-Electron Energy =               -1628.4448746401294557
    Two-Electron Energy =                 661.0042269993609807
    Total Energy =                       -464.6700783635544667
  Basis Set: (AUG-CC-PVTZ AUX)
    Blend: AUG-CC-PVTZ-RI
    Molecular point group: c1

    Geometry (in Angstrom), charge = 0, multiplicity = 1:

       Center              X                  Y                   Z               Mass
    ------------   -----------------  -----------------  -----------------  -----------------
         N            1.951095113270     0.519591228130     0.000004552285    14.003074004430
         C            1.227925113270    -0.611759771870    -0.000003447715    12.000000000000
         C           -0.179227886730    -0.521695771870    -0.000011447715    12.000000000000
         C           -0.700433886730     0.675420128130     0.000004852285    12.000000000000
         N           -0.028263886730     1.928772228130     0.000004552285    14.003074004430
         C            1.290822113270     1.700023228130     0.000011552285    12.000000000000
         N           -1.165467886730    -1.488407771870    -0.000017447715    14.003074004430
         C           -2.285844886730    -0.778820771870     0.000043552285    12.000000000000
         N           -2.075033886730     0.576841228130    -0.000023447715    14.003074004430
         N            1.866150113270    -1.804561771870    -0.000006447715    14.003074004430
         H            1.926362113270     2.583077228130     0.000001552285     1.007825032230
         H           -3.283461886730    -1.200049771870     0.000067552285     1.007825032230
         H           -2.775572886730     1.308931228130    -0.000084447715     1.007825032230
         H            2.875283113270    -1.822518771870     0.000008552285     1.007825032230
         H            1.337476113270    -2.663871771870     0.000001552285     1.007825032230

  Basis Set: AUG-CC-PVTZ
    Blend: AUG-CC-PVTZ
  Basis Set: (AUG-CC-PVTZ AUX)
    Blend: AUG-CC-PVTZ-JKFIT
	 Reference Energy          =    -464.6700783635544099 [Eh]
	 Singles Energy            =      -0.0000000000000000 [Eh]
	 Same-Spin Energy          =      -0.5050364844571219 [Eh]
	 Opposite-Spin Energy      =      -1.4764622770047433 [Eh]
	 Correlation Energy        =      -1.9814987614618653 [Eh]
	 Total Energy              =    -466.6515771250162743 [Eh]

	 ================> DF-SCS-MP2 Energies <==================
	-----------------------------------------------------------
	 SCS Same-Spin Scale       =       0.3333333333333333 [-]
	 SCS Opposite-Spin Scale   =       1.2000000000000000 [-]
	 SCS Same-Spin Energy      =      -0.1683454948190406 [Eh]
	 SCS Opposite-Spin Energy  =      -1.7717547324056919 [Eh]
	 SCS Correlation Energy    =      -1.9401002272247325 [Eh]
	 SCS Total Energy          =    -466.6101785907791282 [Eh]
	-----------------------------------------------------------

  Dipole Moment: [D]
     X:    -2.1614      Y:    -1.3204      Z:    -0.0000     Total:     2.5328

*** Psi4 exiting successfully. Buy a developer a beer!
