                               Psi4 1.3.2 release

  ==> Input File <==

--------------------------------------------------------------------------
#psi4
#
memory 32 gb

molecule  {
0 1
  N        1.8244102     0.4615532     0.0000035
  C        1.2282460    -0.6072470    -0.0000030
  C       -0.1789070    -0.5171830    -0.0000110
  C       -0.7103380     0.7755800     0.0000000
  N       -0.0279430     1.9332850     0.0000050
  C        1.2911430     1.7045360     0.0000120
  N       -1.1651470    -1.4838950    -0.0000170
  C       -2.2855240    -0.7743080     0.0000440
  N       -2.0747130     0.5813540    -0.0000230
  N        1.8664710    -1.8000490    -0.0000060
  H        1.9266830     2.5875900     0.0000020
  H       -3.2831410    -1.1955370     0.0000680
  H       -2.7752520     1.3134440    -0.0000840
  H        2.8756040    -1.8180060     0.0000090
  H        1.3377970    -2.6593590     0.0000020
units angstrom
no_reorient  #important for SAPT in psi4, default
symmetry c1  #important for SAPT in psi4, default
}

set PROPERTIES_ORIGIN ["COM"]
properties('MP2/aug-cc-pvtz', properties = ['dipole'])
--------------------------------------------------------------------------

    Molecular point group: c1
  Charge       = 0
  Multiplicity = 1
  Basis Set: AUG-CC-PVTZ
    Blend: AUG-CC-PVTZ
  Basis Set: (AUG-CC-PVTZ AUX)
    Blend: AUG-CC-PVTZ-JKFIT

    Orbital Energies [Eh]
    ---------------------

    Doubly Occupied:

       1A    -15.632329     2A    -15.574454     3A    -15.567522
       4A    -15.564753     5A    -15.534999     6A    -11.322763
       7A    -11.320208     8A    -11.318427     9A    -11.310886
      10A    -11.249097    11A     -1.366464    12A     -1.317228
      13A     -1.244683    14A     -1.182340    15A     -1.160426
      16A     -1.030123    17A     -0.901774    18A     -0.876234
      19A     -0.843909    20A     -0.782716    21A     -0.737753
      22A     -0.696583    23A     -0.683283    24A     -0.639418
      25A     -0.638302    26A     -0.612581    27A     -0.595053
      28A     -0.569191    29A     -0.498630    30A     -0.493662
      31A     -0.447486    32A     -0.420113    33A     -0.397186
      34A     -0.375010    35A     -0.307161

  @DF-RHF Final Energy:  -464.66730311670909

   => Energetics <=

    Nuclear Repulsion Energy =            505.6685844931195675
    One-Electron Energy =               -1634.2462841644810396
    Two-Electron Energy =                 663.9103965546523796
    Total Energy =                       -464.6673031167090357
  Basis Set: (AUG-CC-PVTZ AUX)
    Blend: AUG-CC-PVTZ-RI
    Molecular point group: c1

    Geometry (in Angstrom), charge = 0, multiplicity = 1:

       Center              X                  Y                   Z               Mass
    ------------   -----------------  -----------------  -----------------  -----------------
         N            1.838166383521     0.455027450197     0.000003678733    14.003074004430
         C            1.242002183521    -0.613772749803    -0.000002821267    12.000000000000
         C           -0.165150816479    -0.523708749803    -0.000010821267    12.000000000000
         C           -0.696581816479     0.769054250197     0.000000178733    12.000000000000
         N           -0.014186816479     1.926759250197     0.000005178733    14.003074004430
         C            1.304899183521     1.698010250197     0.000012178733    12.000000000000
         N           -1.151390816479    -1.490420749803    -0.000016821267    14.003074004430
         C           -2.271767816479    -0.780833749803     0.000044178733    12.000000000000
         N           -2.060956816479     0.574828250197    -0.000022821267    14.003074004430
         N            1.880227183521    -1.806574749803    -0.000005821267    14.003074004430
         H            1.940439183521     2.581064250197     0.000002178733     1.007825032230
         H           -3.269384816479    -1.202062749803     0.000068178733     1.007825032230
         H           -2.761495816479     1.306918250197    -0.000083821267     1.007825032230
         H            2.889360183521    -1.824531749803     0.000009178733     1.007825032230
         H            1.351553183521    -2.665884749803     0.000002178733     1.007825032230

  Basis Set: AUG-CC-PVTZ
    Blend: AUG-CC-PVTZ
  Basis Set: (AUG-CC-PVTZ AUX)
    Blend: AUG-CC-PVTZ-JKFIT
	 Reference Energy          =    -464.6673031167090926 [Eh]
	 Singles Energy            =      -0.0000000000000000 [Eh]
	 Same-Spin Energy          =      -0.5068343190164101 [Eh]
	 Opposite-Spin Energy      =      -1.4753832774363143 [Eh]
	 Correlation Energy        =      -1.9822175964527244 [Eh]
	 Total Energy              =    -466.6495207131617917 [Eh]

	 ================> DF-SCS-MP2 Energies <==================
	-----------------------------------------------------------
	 SCS Same-Spin Scale       =       0.3333333333333333 [-]
	 SCS Opposite-Spin Scale   =       1.2000000000000000 [-]
	 SCS Same-Spin Energy      =      -0.1689447730054700 [Eh]
	 SCS Opposite-Spin Energy  =      -1.7704599329235771 [Eh]
	 SCS Correlation Energy    =      -1.9394047059290471 [Eh]
	 SCS Total Energy          =    -466.6067078226381568 [Eh]
	-----------------------------------------------------------

  Dipole Moment: [D]
     X:    -1.9932      Y:    -0.6928      Z:    -0.0000     Total:     2.1102

*** Psi4 exiting successfully. Buy a developer a beer!
