                               Psi4 1.3.2 release

  ==> Input File <==

--------------------------------------------------------------------------
#psi4
#
memory 32 gb

molecule  {
0 1
  N        1.9098173     0.5017799     0.0000045
  C        1.2282460    -0.6072470    -0.0000030
  C       -0.1789070    -0.5171830    -0.0000110
  C       -0.7103380     0.7755800     0.0000000
  N       -0.0279430     1.9332850     0.0000050
  C        1.2911430     1.7045360     0.0000120
  N       -1.1651470    -1.4838950    -0.0000170
  C       -2.2855240    -0.7743080     0.0000440
  N       -2.0747130     0.5813540    -0.0000230
  N        1.8664710    -1.8000490    -0.0000060
  H        1.9266830     2.5875900     0.0000020
  H       -3.2831410    -1.1955370     0.0000680
  H       -2.7752520     1.3134440    -0.0000840
  H        2.8756040    -1.8180060     0.0000090
  H        1.3377970    -2.6593590     0.0000020
units angstrom
no_reorient  #important for SAPT in psi4, default
symmetry c1  #important for SAPT in psi4, default
}

set PROPERTIES_ORIGIN ["COM"]
properties('MP2/aug-cc-pvtz', properties = ['dipole'])
--------------------------------------------------------------------------

    Molecular point group: c1
  Charge       = 0
  Multiplicity = 1
  Basis Set: AUG-CC-PVTZ
    Blend: AUG-CC-PVTZ
  Basis Set: (AUG-CC-PVTZ AUX)
    Blend: AUG-CC-PVTZ-JKFIT

    Orbital Energies [Eh]
    ---------------------

    Doubly Occupied:

       1A    -15.633873     2A    -15.582050     3A    -15.570431
       4A    -15.561094     5A    -15.546157     6A    -11.332975
       7A    -11.325421     8A    -11.315815     9A    -11.314309
      10A    -11.251667    11A     -1.365949    12A     -1.303528
      13A     -1.244927    14A     -1.184560    15A     -1.154389
      16A     -1.031424    17A     -0.895626    18A     -0.877329
      19A     -0.845612    20A     -0.779679    21A     -0.738061
      22A     -0.698755    23A     -0.678019    24A     -0.637977
      25A     -0.634334    26A     -0.612871    27A     -0.592138
      28A     -0.561501    29A     -0.497788    30A     -0.495725
      31A     -0.451095    32A     -0.422955    33A     -0.406864
      34A     -0.373499    35A     -0.307637

  @DF-RHF Final Energy:  -464.68175574187273

   => Energetics <=

    Nuclear Repulsion Energy =            503.0671494093318188
    One-Electron Energy =               -1629.0457429983225666
    Two-Electron Energy =                 661.2968378471181268
    Total Energy =                       -464.6817557418727347
  Basis Set: (AUG-CC-PVTZ AUX)
    Blend: AUG-CC-PVTZ-RI
    Molecular point group: c1

    Geometry (in Angstrom), charge = 0, multiplicity = 1:

       Center              X                  Y                   Z               Mass
    ------------   -----------------  -----------------  -----------------  -----------------
         N            1.914718080817     0.491083260096     0.000004575049    14.003074004430
         C            1.233146780817    -0.617943639904    -0.000002924951    12.000000000000
         C           -0.174006219183    -0.527879639904    -0.000010924951    12.000000000000
         C           -0.705437219183     0.764883360096     0.000000075049    12.000000000000
         N           -0.023042219183     1.922588360096     0.000005075049    14.003074004430
         C            1.296043780817     1.693839360096     0.000012075049    12.000000000000
         N           -1.160246219183    -1.494591639904    -0.000016924951    14.003074004430
         C           -2.280623219183    -0.785004639904     0.000044075049    12.000000000000
         N           -2.069812219183     0.570657360096    -0.000022924951    14.003074004430
         N            1.871371780817    -1.810745639904    -0.000005924951    14.003074004430
         H            1.931583780817     2.576893360096     0.000002075049     1.007825032230
         H           -3.278240219183    -1.206233639904     0.000068075049     1.007825032230
         H           -2.770351219183     1.302747360096    -0.000083924951     1.007825032230
         H            2.880504780817    -1.828702639904     0.000009075049     1.007825032230
         H            1.342697780817    -2.670055639904     0.000002075049     1.007825032230

  Basis Set: AUG-CC-PVTZ
    Blend: AUG-CC-PVTZ
  Basis Set: (AUG-CC-PVTZ AUX)
    Blend: AUG-CC-PVTZ-JKFIT
	 Reference Energy          =    -464.6817557418727347 [Eh]
	 Singles Energy            =      -0.0000000000000000 [Eh]
	 Same-Spin Energy          =      -0.5064142119635489 [Eh]
	 Opposite-Spin Energy      =      -1.4757283927039631 [Eh]
	 Correlation Energy        =      -1.9821426046675119 [Eh]
	 Total Energy              =    -466.6638983465402362 [Eh]

	 ================> DF-SCS-MP2 Energies <==================
	-----------------------------------------------------------
	 SCS Same-Spin Scale       =       0.3333333333333333 [-]
	 SCS Opposite-Spin Scale   =       1.2000000000000000 [-]
	 SCS Same-Spin Energy      =      -0.1688047373211830 [Eh]
	 SCS Opposite-Spin Energy  =      -1.7708740712447557 [Eh]
	 SCS Correlation Energy    =      -1.9396788085659387 [Eh]
	 SCS Total Energy          =    -466.6214345504386642 [Eh]
	-----------------------------------------------------------

  Dipole Moment: [D]
     X:    -2.1802      Y:    -1.0248      Z:    -0.0000     Total:     2.4090

*** Psi4 exiting successfully. Buy a developer a beer!
