                               Psi4 1.3.2 release

  ==> Input File <==

--------------------------------------------------------------------------
#psi4
#
memory 32 gb

molecule  {
0 1
  N        1.9514160     0.5241040     0.0000050
  C        1.2282460    -0.6072470    -0.0000030
  C       -0.1457700    -0.5521912    -0.0000133
  C       -0.7103380     0.7755800     0.0000000
  N       -0.0279430     1.9332850     0.0000050
  C        1.2911430     1.7045360     0.0000120
  N       -1.1651470    -1.4838950    -0.0000170
  C       -2.2855240    -0.7743080     0.0000440
  N       -2.0747130     0.5813540    -0.0000230
  N        1.8664710    -1.8000490    -0.0000060
  H        1.9266830     2.5875900     0.0000020
  H       -3.2831410    -1.1955370     0.0000680
  H       -2.7752520     1.3134440    -0.0000840
  H        2.8756040    -1.8180060     0.0000090
  H        1.3377970    -2.6593590     0.0000020
units angstrom
no_reorient  #important for SAPT in psi4, default
symmetry c1  #important for SAPT in psi4, default
}

set PROPERTIES_ORIGIN ["COM"]
properties('MP2/aug-cc-pvtz', properties = ['dipole'])
--------------------------------------------------------------------------

    Molecular point group: c1
  Charge       = 0
  Multiplicity = 1
  Basis Set: AUG-CC-PVTZ
    Blend: AUG-CC-PVTZ
  Basis Set: (AUG-CC-PVTZ AUX)
    Blend: AUG-CC-PVTZ-JKFIT

    Orbital Energies [Eh]
    ---------------------

    Doubly Occupied:

       1A    -15.637345     2A    -15.581094     3A    -15.572676
       4A    -15.560993     5A    -15.552179     6A    -11.333234
       7A    -11.328242     8A    -11.325630     9A    -11.312928
      10A    -11.254419    11A     -1.364263    12A     -1.297556
      13A     -1.245342    14A     -1.185678    15A     -1.151136
      16A     -1.031495    17A     -0.896681    18A     -0.879742
      19A     -0.843245    20A     -0.777623    21A     -0.739254
      22A     -0.697583    23A     -0.677429    24A     -0.636622
      25A     -0.631801    26A     -0.614952    27A     -0.590798
      28A     -0.558561    29A     -0.497929    30A     -0.497306
      31A     -0.449472    32A     -0.425119    33A     -0.410001
      34A     -0.371543    35A     -0.306445

  @DF-RHF Final Energy:  -464.67779202063048

   => Energetics <=

    Nuclear Repulsion Energy =            501.4941036610610468
    One-Electron Energy =               -1625.8711636914440533
    Two-Electron Energy =                 659.6992680097525863
    Total Energy =                       -464.6777920206304771
  Basis Set: (AUG-CC-PVTZ AUX)
    Blend: AUG-CC-PVTZ-RI
    Molecular point group: c1

    Geometry (in Angstrom), charge = 0, multiplicity = 1:

       Center              X                  Y                   Z               Mass
    ------------   -----------------  -----------------  -----------------  -----------------
         N            1.949059312835     0.514203278628     0.000005227568    14.003074004430
         C            1.225889312835    -0.617147721372    -0.000002772432    12.000000000000
         C           -0.148126687165    -0.562091921372    -0.000013072432    12.000000000000
         C           -0.712694687165     0.765679278628     0.000000227568    12.000000000000
         N           -0.030299687165     1.923384278628     0.000005227568    14.003074004430
         C            1.288786312835     1.694635278628     0.000012227568    12.000000000000
         N           -1.167503687165    -1.493795721372    -0.000016772432    14.003074004430
         C           -2.287880687165    -0.784208721372     0.000044227568    12.000000000000
         N           -2.077069687165     0.571453278628    -0.000022772432    14.003074004430
         N            1.864114312835    -1.809949721372    -0.000005772432    14.003074004430
         H            1.924326312835     2.577689278628     0.000002227568     1.007825032230
         H           -3.285497687165    -1.205437721372     0.000068227568     1.007825032230
         H           -2.777608687165     1.303543278628    -0.000083772432     1.007825032230
         H            2.873247312835    -1.827906721372     0.000009227568     1.007825032230
         H            1.335440312835    -2.669259721372     0.000002227568     1.007825032230

  Basis Set: AUG-CC-PVTZ
    Blend: AUG-CC-PVTZ
  Basis Set: (AUG-CC-PVTZ AUX)
    Blend: AUG-CC-PVTZ-JKFIT
	 Reference Energy          =    -464.6777920206304771 [Eh]
	 Singles Energy            =      -0.0000000000000000 [Eh]
	 Same-Spin Energy          =      -0.5068314505762351 [Eh]
	 Opposite-Spin Energy      =      -1.4768730064334810 [Eh]
	 Correlation Energy        =      -1.9837044570097162 [Eh]
	 Total Energy              =    -466.6614964776401848 [Eh]

	 ================> DF-SCS-MP2 Energies <==================
	-----------------------------------------------------------
	 SCS Same-Spin Scale       =       0.3333333333333333 [-]
	 SCS Opposite-Spin Scale   =       1.2000000000000000 [-]
	 SCS Same-Spin Energy      =      -0.1689438168587450 [Eh]
	 SCS Opposite-Spin Energy  =      -1.7722476077201772 [Eh]
	 SCS Correlation Energy    =      -1.9411914245789221 [Eh]
	 SCS Total Energy          =    -466.6189834452093805 [Eh]
	-----------------------------------------------------------

  Dipole Moment: [D]
     X:    -2.3585      Y:    -1.0924      Z:    -0.0000     Total:     2.5992

*** Psi4 exiting successfully. Buy a developer a beer!
