                               Psi4 1.3.2 release

  ==> Input File <==

--------------------------------------------------------------------------
#psi4
#
memory 32 gb

molecule  {
0 1
  N        2.0657128     0.4423145     0.0000054
  C        1.2282460    -0.6072470    -0.0000030
  C       -0.1789070    -0.5171830    -0.0000110
  C       -0.7103380     0.7755800     0.0000000
  N       -0.0279430     1.9332850     0.0000050
  C        1.2911430     1.7045360     0.0000120
  N       -1.1651470    -1.4838950    -0.0000170
  C       -2.2855240    -0.7743080     0.0000440
  N       -2.0747130     0.5813540    -0.0000230
  N        1.8664710    -1.8000490    -0.0000060
  H        1.9266830     2.5875900     0.0000020
  H       -3.2831410    -1.1955370     0.0000680
  H       -2.7752520     1.3134440    -0.0000840
  H        2.8756040    -1.8180060     0.0000090
  H        1.3377970    -2.6593590     0.0000020
units angstrom
no_reorient  #important for SAPT in psi4, default
symmetry c1  #important for SAPT in psi4, default
}

set PROPERTIES_ORIGIN ["COM"]
properties('MP2/aug-cc-pvtz', properties = ['dipole'])
--------------------------------------------------------------------------

    Molecular point group: c1
  Charge       = 0
  Multiplicity = 1
  Basis Set: AUG-CC-PVTZ
    Blend: AUG-CC-PVTZ
  Basis Set: (AUG-CC-PVTZ AUX)
    Blend: AUG-CC-PVTZ-JKFIT

    Orbital Energies [Eh]
    ---------------------

    Doubly Occupied:

       1A    -15.638703     2A    -15.577156     3A    -15.575217
       4A    -15.572004     5A    -15.564293     6A    -11.334451
       7A    -11.328237     8A    -11.327150     9A    -11.321861
      10A    -11.256231    11A     -1.367968    12A     -1.287806
      13A     -1.247393    14A     -1.185711    15A     -1.137041
      16A     -1.030179    17A     -0.888077    18A     -0.876856
      19A     -0.849392    20A     -0.772958    21A     -0.732801
      22A     -0.699393    23A     -0.665703    24A     -0.638619
      25A     -0.626652    26A     -0.613224    27A     -0.577993
      28A     -0.552220    29A     -0.503127    30A     -0.495987
      31A     -0.465910    32A     -0.423371    33A     -0.416413
      34A     -0.366810    35A     -0.310850

  @DF-RHF Final Energy:  -464.66014990165434

   => Energetics <=

    Nuclear Repulsion Energy =            499.1523959410610018
    One-Electron Energy =               -1621.1695709666050789
    Two-Electron Energy =                 657.3570251238896844
    Total Energy =                       -464.6601499016543357
  Basis Set: (AUG-CC-PVTZ AUX)
    Blend: AUG-CC-PVTZ-RI
    Molecular point group: c1

    Geometry (in Angstrom), charge = 0, multiplicity = 1:

       Center              X                  Y                   Z               Mass
    ------------   -----------------  -----------------  -----------------  -----------------
         N            2.054449615149     0.437783507494     0.000005381733    14.003074004430
         C            1.216982815149    -0.611777992506    -0.000003018267    12.000000000000
         C           -0.190170184851    -0.521713992506    -0.000011018267    12.000000000000
         C           -0.721601184851     0.771049007494    -0.000000018267    12.000000000000
         N           -0.039206184851     1.928754007494     0.000004981733    14.003074004430
         C            1.279879815149     1.700005007494     0.000011981733    12.000000000000
         N           -1.176410184851    -1.488425992506    -0.000017018267    14.003074004430
         C           -2.296787184851    -0.778838992506     0.000043981733    12.000000000000
         N           -2.085976184851     0.576823007494    -0.000023018267    14.003074004430
         N            1.855207815149    -1.804579992506    -0.000006018267    14.003074004430
         H            1.915419815149     2.583059007494     0.000001981733     1.007825032230
         H           -3.294404184851    -1.200067992506     0.000067981733     1.007825032230
         H           -2.786515184851     1.308913007494    -0.000084018267     1.007825032230
         H            2.864340815149    -1.822536992506     0.000008981733     1.007825032230
         H            1.326533815149    -2.663889992506     0.000001981733     1.007825032230

  Basis Set: AUG-CC-PVTZ
    Blend: AUG-CC-PVTZ
  Basis Set: (AUG-CC-PVTZ AUX)
    Blend: AUG-CC-PVTZ-JKFIT
	 Reference Energy          =    -464.6601499016543357 [Eh]
	 Singles Energy            =      -0.0000000000000000 [Eh]
	 Same-Spin Energy          =      -0.5073251636332784 [Eh]
	 Opposite-Spin Energy      =      -1.4809248746394852 [Eh]
	 Correlation Energy        =      -1.9882500382727635 [Eh]
	 Total Energy              =    -466.6483999399271170 [Eh]

	 ================> DF-SCS-MP2 Energies <==================
	-----------------------------------------------------------
	 SCS Same-Spin Scale       =       0.3333333333333333 [-]
	 SCS Opposite-Spin Scale   =       1.2000000000000000 [-]
	 SCS Same-Spin Energy      =      -0.1691083878777594 [Eh]
	 SCS Opposite-Spin Energy  =      -1.7771098495673823 [Eh]
	 SCS Correlation Energy    =      -1.9462182374451418 [Eh]
	 SCS Total Energy          =    -466.6063681390994589 [Eh]
	-----------------------------------------------------------

  Dipole Moment: [D]
     X:    -2.6356      Y:    -0.8615      Z:    -0.0000     Total:     2.7729

*** Psi4 exiting successfully. Buy a developer a beer!
