                               Psi4 1.3.2 release

  ==> Input File <==

--------------------------------------------------------------------------
#psi4
#
memory 32 gb

molecule  {
0 1
  N        1.9514160     0.5241040     0.0000050
  C        1.2282460    -0.6072470    -0.0000030
  C       -0.1789070    -0.5171830    -0.0000110
  C       -0.7103380     0.7755800     0.0000000
  N       -0.0279430     1.9332850     0.0000050
  C        1.2911430     1.7045360     0.0000120
  N       -1.1777016    -1.5033402    -0.0000153
  C       -2.2855240    -0.7743080     0.0000440
  N       -2.0747130     0.5813540    -0.0000230
  N        1.8664710    -1.8000490    -0.0000060
  H        1.9266830     2.5875900     0.0000020
  H       -3.2831410    -1.1955370     0.0000680
  H       -2.7752520     1.3134440    -0.0000840
  H        2.8756040    -1.8180060     0.0000090
  H        1.3377970    -2.6593590     0.0000020
units angstrom
no_reorient  #important for SAPT in psi4, default
symmetry c1  #important for SAPT in psi4, default
}

set PROPERTIES_ORIGIN ["COM"]
properties('MP2/aug-cc-pvtz', properties = ['dipole'])
--------------------------------------------------------------------------

    Molecular point group: c1
  Charge       = 0
  Multiplicity = 1
  Basis Set: AUG-CC-PVTZ
    Blend: AUG-CC-PVTZ
  Basis Set: (AUG-CC-PVTZ AUX)
    Blend: AUG-CC-PVTZ-JKFIT

    Orbital Energies [Eh]
    ---------------------

    Doubly Occupied:

       1A    -15.634704     2A    -15.585515     3A    -15.574229
       4A    -15.559997     5A    -15.551935     6A    -11.338970
       7A    -11.327550     8A    -11.319597     9A    -11.313008
      10A    -11.254228    11A     -1.364427    12A     -1.297373
      13A     -1.244967    14A     -1.183573    15A     -1.151116
      16A     -1.032494    17A     -0.894367    18A     -0.875191
      19A     -0.845823    20A     -0.778567    21A     -0.737678
      22A     -0.699870    23A     -0.674159    24A     -0.636871
      25A     -0.631028    26A     -0.611292    27A     -0.588940
      28A     -0.558238    29A     -0.498714    30A     -0.496660
      31A     -0.452498    32A     -0.422771    33A     -0.411927
      34A     -0.373211    35A     -0.309657

  @DF-RHF Final Energy:  -464.68125334300623

   => Energetics <=

    Nuclear Repulsion Energy =            501.1872751700195749
    One-Electron Energy =               -1625.2747629118664463
    Two-Electron Energy =                 659.4062343988406383
    Total Energy =                       -464.6812533430062331
  Basis Set: (AUG-CC-PVTZ AUX)
    Blend: AUG-CC-PVTZ-RI
    Molecular point group: c1

    Geometry (in Angstrom), charge = 0, multiplicity = 1:

       Center              X                  Y                   Z               Mass
    ------------   -----------------  -----------------  -----------------  -----------------
         N            1.953305354347     0.513108862443     0.000004846943    14.003074004430
         C            1.230135354347    -0.618242137557    -0.000003153057    12.000000000000
         C           -0.177017645653    -0.528178137557    -0.000011153057    12.000000000000
         C           -0.708448645653     0.764584862443    -0.000000153057    12.000000000000
         N           -0.026053645653     1.922289862443     0.000004846943    14.003074004430
         C            1.293032354347     1.693540862443     0.000011846943    12.000000000000
         N           -1.175812245653    -1.514335337557    -0.000015453057    14.003074004430
         C           -2.283634645653    -0.785303137557     0.000043846943    12.000000000000
         N           -2.072823645653     0.570358862443    -0.000023153057    14.003074004430
         N            1.868360354347    -1.811044137557    -0.000006153057    14.003074004430
         H            1.928572354347     2.576594862443     0.000001846943     1.007825032230
         H           -3.281251645653    -1.206532137557     0.000067846943     1.007825032230
         H           -2.773362645653     1.302448862443    -0.000084153057     1.007825032230
         H            2.877493354347    -1.829001137557     0.000008846943     1.007825032230
         H            1.339686354347    -2.670354137557     0.000001846943     1.007825032230

  Basis Set: AUG-CC-PVTZ
    Blend: AUG-CC-PVTZ
  Basis Set: (AUG-CC-PVTZ AUX)
    Blend: AUG-CC-PVTZ-JKFIT
	 Reference Energy          =    -464.6812533430062331 [Eh]
	 Singles Energy            =      -0.0000000000000000 [Eh]
	 Same-Spin Energy          =      -0.5060674483404670 [Eh]
	 Opposite-Spin Energy      =      -1.4764162942549017 [Eh]
	 Correlation Energy        =      -1.9824837425953687 [Eh]
	 Total Energy              =    -466.6637370856016105 [Eh]

	 ================> DF-SCS-MP2 Energies <==================
	-----------------------------------------------------------
	 SCS Same-Spin Scale       =       0.3333333333333333 [-]
	 SCS Opposite-Spin Scale   =       1.2000000000000000 [-]
	 SCS Same-Spin Energy      =      -0.1686891494468223 [Eh]
	 SCS Opposite-Spin Energy  =      -1.7716995531058821 [Eh]
	 SCS Correlation Energy    =      -1.9403887025527045 [Eh]
	 SCS Total Energy          =    -466.6216420455589287 [Eh]
	-----------------------------------------------------------

  Dipole Moment: [D]
     X:    -2.2196      Y:    -1.1445      Z:    -0.0000     Total:     2.4973

*** Psi4 exiting successfully. Buy a developer a beer!
