                               Psi4 1.4a3.dev225

  ==> Input File <==

--------------------------------------------------------------------------
#psi4
#
memory 32 gb

molecule  {
0 1
  N        1.9483950     0.5259860     0.0099940
  C        1.2281250    -0.6055780    -0.0011110
  C       -0.1777080    -0.5183570    -0.0133480
  C       -0.7121930     0.7746180    -0.0067610
  N       -0.0315150     1.9321470    -0.0030770
  C        1.2882650     1.7066530     0.0061850
  N       -1.1633520    -1.4857590     0.0015620
  C       -2.2839740    -0.7772230     0.0077650
  N       -2.0759200     0.5789190     0.0016180
  N        1.8860356    -1.8217413    -0.0665251
  H        1.9224110     2.5904960     0.0146870
  H       -3.2809510    -1.1999800     0.0170960
  H       -2.7777110     1.3098630     0.0041890
  H        2.8553720    -1.7872280     0.1925460
  H        1.3468110    -2.6236890     0.2034770
units angstrom
no_reorient  #important for SAPT in psi4, default
symmetry c1  #important for SAPT in psi4, default
}

set PROPERTIES_ORIGIN ["COM"]
properties('MP2/aug-cc-pvtz', properties = ['dipole'])
--------------------------------------------------------------------------

    Molecular point group: c1
  Charge       = 0
  Multiplicity = 1
  Basis Set: AUG-CC-PVTZ
    Blend: AUG-CC-PVTZ
  Basis Set: (AUG-CC-PVTZ AUX)
    Blend: AUG-CC-PVTZ-JKFIT

    Orbital Energies [Eh]
    ---------------------

    Doubly Occupied:

       1A    -15.636992     2A    -15.581822     3A    -15.573430
       4A    -15.564228     5A    -15.555971     6A    -11.339660
       7A    -11.329479     8A    -11.321405     9A    -11.314783
      10A    -11.256511    11A     -1.368884    12A     -1.297414
      13A     -1.243263    14A     -1.186893    15A     -1.153405
      16A     -1.034758    17A     -0.895517    18A     -0.877392
      19A     -0.848482    20A     -0.775517    21A     -0.733042
      22A     -0.699457    23A     -0.675049    24A     -0.640453
      25A     -0.630124    26A     -0.613961    27A     -0.592195
      28A     -0.556053    29A     -0.499708    30A     -0.497496
      31A     -0.455277    32A     -0.427980    33A     -0.412830
      34A     -0.376137    35A     -0.312870

  @DF-RHF Final Energy:  -464.68121711319941

   => Energetics <=

    Nuclear Repulsion Energy =            501.1892259638644305
    One-Electron Energy =               -1625.1840103732984062
    Two-Electron Energy =                 659.3135672962346234
    Total Energy =                       -464.6812171131994091
  Basis Set: (AUG-CC-PVTZ AUX)
    Blend: AUG-CC-PVTZ-RI
    Molecular point group: c1

    Geometry (in Angstrom), charge = 0, multiplicity = 1:

       Center              X                  Y                   Z               Mass
    ------------   -----------------  -----------------  -----------------  -----------------
         N            1.947881348360     0.515247183615     0.013266986100    14.003074004430
         C            1.227611348360    -0.616316816385     0.002161986100    12.000000000000
         C           -0.178221651640    -0.529095816385    -0.010075013900    12.000000000000
         C           -0.712706651640     0.763879183615    -0.003488013900    12.000000000000
         N           -0.032028651640     1.921408183615     0.000195986100    14.003074004430
         C            1.287751348360     1.695914183615     0.009457986100    12.000000000000
         N           -1.163865651640    -1.496497816385     0.004834986100    14.003074004430
         C           -2.284487651640    -0.787961816385     0.011037986100    12.000000000000
         N           -2.076433651640     0.568180183615     0.004890986100    14.003074004430
         N            1.885521948360    -1.832480116385    -0.063252113900    14.003074004430
         H            1.921897348360     2.579757183615     0.017959986100     1.007825032230
         H           -3.281464651640    -1.210718816385     0.020368986100     1.007825032230
         H           -2.778224651640     1.299124183615     0.007461986100     1.007825032230
         H            2.854858348360    -1.797966816385     0.195818986100     1.007825032230
         H            1.346297348360    -2.634427816385     0.206749986100     1.007825032230

  Basis Set: AUG-CC-PVTZ
    Blend: AUG-CC-PVTZ
  Basis Set: (AUG-CC-PVTZ AUX)
    Blend: AUG-CC-PVTZ-JKFIT
	 Reference Energy          =    -464.6812171131994091 [Eh]
	 Singles Energy            =      -0.0000000000000000 [Eh]
	 Same-Spin Energy          =      -0.5062541333447685 [Eh]
	 Opposite-Spin Energy      =      -1.4764666985591410 [Eh]
	 Correlation Energy        =      -1.9827208319039096 [Eh]
	 Total Energy              =    -466.6639379451033278 [Eh]

	 ================> DF-SCS-MP2 Energies <==================
	-----------------------------------------------------------
	 SCS Same-Spin Scale       =       0.3333333333333333 [-]
	 SCS Opposite-Spin Scale   =       1.2000000000000000 [-]
	 SCS Same-Spin Energy      =      -0.1687513777815895 [Eh]
	 SCS Opposite-Spin Energy  =      -1.7717600382709693 [Eh]
	 SCS Correlation Energy    =      -1.9405114160525587 [Eh]
	 SCS Total Energy          =    -466.6217285292519819 [Eh]
	-----------------------------------------------------------

  Dipole Moment: [D]
     X:    -2.5528      Y:    -0.7335      Z:     0.7299     Total:     2.7545

*** Psi4 exiting successfully. Buy a developer a beer!
