                               Psi4 1.3.2 release

  ==> Input File <==

--------------------------------------------------------------------------
#psi4
#
memory 32 gb

molecule  {
0 1
  N        1.9514160     0.5241040     0.0000050
  C        1.2282460    -0.6072470    -0.0000030
  C       -0.1789070    -0.5171830    -0.0000110
  C       -0.7103380     0.7755800     0.0000000
  N       -0.0482517     1.9450181     0.0000046
  C        1.2911430     1.7045360     0.0000120
  N       -1.1651470    -1.4838950    -0.0000170
  C       -2.2855240    -0.7743080     0.0000440
  N       -2.0747130     0.5813540    -0.0000230
  N        1.8664710    -1.8000490    -0.0000060
  H        1.9266830     2.5875900     0.0000020
  H       -3.2831410    -1.1955370     0.0000680
  H       -2.7752520     1.3134440    -0.0000840
  H        2.8756040    -1.8180060     0.0000090
  H        1.3377970    -2.6593590     0.0000020
units angstrom
no_reorient  #important for SAPT in psi4, default
symmetry c1  #important for SAPT in psi4, default
}

set PROPERTIES_ORIGIN ["COM"]
properties('MP2/aug-cc-pvtz', properties = ['dipole'])
--------------------------------------------------------------------------

    Molecular point group: c1
  Charge       = 0
  Multiplicity = 1
  Basis Set: AUG-CC-PVTZ
    Blend: AUG-CC-PVTZ
  Basis Set: (AUG-CC-PVTZ AUX)
    Blend: AUG-CC-PVTZ-JKFIT

    Orbital Energies [Eh]
    ---------------------

    Doubly Occupied:

       1A    -15.633178     2A    -15.586350     3A    -15.571367
       4A    -15.561825     5A    -15.554104     6A    -11.339572
       7A    -11.326381     8A    -11.317875     9A    -11.316039
      10A    -11.252700    11A     -1.365605    12A     -1.296326
      13A     -1.243029    14A     -1.185350    15A     -1.151264
      16A     -1.030619    17A     -0.895164    18A     -0.874419
      19A     -0.846242    20A     -0.776633    21A     -0.738127
      22A     -0.699995    23A     -0.673842    24A     -0.637017
      25A     -0.631907    26A     -0.613233    27A     -0.586910
      28A     -0.557939    29A     -0.498839    30A     -0.494696
      31A     -0.453929    32A     -0.424189    33A     -0.412335
      34A     -0.374401    35A     -0.306124

  @DF-RHF Final Energy:  -464.68012169786357

   => Energetics <=

    Nuclear Repulsion Energy =            501.3513808189836709
    One-Electron Energy =               -1625.6079546661810582
    Two-Electron Energy =                 659.5764521493338179
    Total Energy =                       -464.6801216978635694
  Basis Set: (AUG-CC-PVTZ AUX)
    Blend: AUG-CC-PVTZ-RI
    Molecular point group: c1

    Geometry (in Angstrom), charge = 0, multiplicity = 1:

       Center              X                  Y                   Z               Mass
    ------------   -----------------  -----------------  -----------------  -----------------
         N            1.954109335258     0.509876152257     0.000005064680    14.003074004430
         C            1.230939335258    -0.621474847743    -0.000002935320    12.000000000000
         C           -0.176213664742    -0.531410847743    -0.000010935320    12.000000000000
         C           -0.707644664742     0.761352152257     0.000000064680    12.000000000000
         N           -0.045558364742     1.930790252257     0.000004664680    14.003074004430
         C            1.293836335258     1.690308152257     0.000012064680    12.000000000000
         N           -1.162453664742    -1.498122847743    -0.000016935320    14.003074004430
         C           -2.282830664742    -0.788535847743     0.000044064680    12.000000000000
         N           -2.072019664742     0.567126152257    -0.000022935320    14.003074004430
         N            1.869164335258    -1.814276847743    -0.000005935320    14.003074004430
         H            1.929376335258     2.573362152257     0.000002064680     1.007825032230
         H           -3.280447664742    -1.209764847743     0.000068064680     1.007825032230
         H           -2.772558664742     1.299216152257    -0.000083935320     1.007825032230
         H            2.878297335258    -1.832233847743     0.000009064680     1.007825032230
         H            1.340490335258    -2.673586847743     0.000002064680     1.007825032230

  Basis Set: AUG-CC-PVTZ
    Blend: AUG-CC-PVTZ
  Basis Set: (AUG-CC-PVTZ AUX)
    Blend: AUG-CC-PVTZ-JKFIT
	 Reference Energy          =    -464.6801216978635694 [Eh]
	 Singles Energy            =      -0.0000000000000000 [Eh]
	 Same-Spin Energy          =      -0.5065497377673411 [Eh]
	 Opposite-Spin Energy      =      -1.4770357769307265 [Eh]
	 Correlation Energy        =      -1.9835855146980677 [Eh]
	 Total Energy              =    -466.6637072125616328 [Eh]

	 ================> DF-SCS-MP2 Energies <==================
	-----------------------------------------------------------
	 SCS Same-Spin Scale       =       0.3333333333333333 [-]
	 SCS Opposite-Spin Scale   =       1.2000000000000000 [-]
	 SCS Same-Spin Energy      =      -0.1688499125891137 [Eh]
	 SCS Opposite-Spin Energy  =      -1.7724429323168718 [Eh]
	 SCS Correlation Energy    =      -1.9412928449059854 [Eh]
	 SCS Total Energy          =    -466.6214145427695712 [Eh]
	-----------------------------------------------------------

  Dipole Moment: [D]
     X:    -2.1900      Y:    -1.2216      Z:    -0.0000     Total:     2.5076

*** Psi4 exiting successfully. Buy a developer a beer!
