                               Psi4 1.3.2 release

  ==> Input File <==

--------------------------------------------------------------------------
#psi4
#
memory 32 gb

molecule  {
0 1
  N        1.9514160     0.5241040     0.0000050
  C        1.2282460    -0.6072470    -0.0000030
  C       -0.2487439    -0.4507412    -0.0000064
  C       -0.7103380     0.7755800     0.0000000
  N       -0.0279430     1.9332850     0.0000050
  C        1.2911430     1.7045360     0.0000120
  N       -1.1651470    -1.4838950    -0.0000170
  C       -2.2855240    -0.7743080     0.0000440
  N       -2.0747130     0.5813540    -0.0000230
  N        1.8664710    -1.8000490    -0.0000060
  H        1.9266830     2.5875900     0.0000020
  H       -3.2831410    -1.1955370     0.0000680
  H       -2.7752520     1.3134440    -0.0000840
  H        2.8756040    -1.8180060     0.0000090
  H        1.3377970    -2.6593590     0.0000020
units angstrom
no_reorient  #important for SAPT in psi4, default
symmetry c1  #important for SAPT in psi4, default
}

set PROPERTIES_ORIGIN ["COM"]
properties('MP2/aug-cc-pvtz', properties = ['dipole'])
--------------------------------------------------------------------------

    Molecular point group: c1
  Charge       = 0
  Multiplicity = 1
  Basis Set: AUG-CC-PVTZ
    Blend: AUG-CC-PVTZ
  Basis Set: (AUG-CC-PVTZ AUX)
    Blend: AUG-CC-PVTZ-JKFIT

    Orbital Energies [Eh]
    ---------------------

    Doubly Occupied:

       1A    -15.628939     2A    -15.593593     3A    -15.570337
       4A    -15.556026     5A    -15.550161     6A    -11.348104
       7A    -11.324855     8A    -11.311764     9A    -11.301568
      10A    -11.249667    11A     -1.371850    12A     -1.296662
      13A     -1.245429    14A     -1.185116    15A     -1.150459
      16A     -1.036503    17A     -0.895022    18A     -0.863570
      19A     -0.851637    20A     -0.779766    21A     -0.737302
      22A     -0.704701    23A     -0.672548    24A     -0.641067
      25A     -0.633096    26A     -0.603394    27A     -0.585744
      28A     -0.557242    29A     -0.497050    30A     -0.495282
      31A     -0.457718    32A     -0.421922    33A     -0.409419
      34A     -0.377088    35A     -0.311199

  @DF-RHF Final Energy:  -464.67032512922736

   => Energetics <=

    Nuclear Repulsion Energy =            502.5206251508955120
    One-Electron Energy =               -1627.9503013222597474
    Two-Electron Energy =                 660.7593510421368137
    Total Energy =                       -464.6703251292274217
  Basis Set: (AUG-CC-PVTZ AUX)
    Blend: AUG-CC-PVTZ-RI
    Molecular point group: c1

    Geometry (in Angstrom), charge = 0, multiplicity = 1:

       Center              X                  Y                   Z               Mass
    ------------   -----------------  -----------------  -----------------  -----------------
         N            1.958208855013     0.505189139570     0.000004614483    14.003074004430
         C            1.235038855013    -0.626161860430    -0.000003385517    12.000000000000
         C           -0.241951044987    -0.469656060430    -0.000006785517    12.000000000000
         C           -0.703545144987     0.756665139570    -0.000000385517    12.000000000000
         N           -0.021150144987     1.914370139570     0.000004614483    14.003074004430
         C            1.297935855013     1.685621139570     0.000011614483    12.000000000000
         N           -1.158354144987    -1.502809860430    -0.000017385517    14.003074004430
         C           -2.278731144987    -0.793222860430     0.000043614483    12.000000000000
         N           -2.067920144987     0.562439139570    -0.000023385517    14.003074004430
         N            1.873263855013    -1.818963860430    -0.000006385517    14.003074004430
         H            1.933475855013     2.568675139570     0.000001614483     1.007825032230
         H           -3.276348144987    -1.214451860430     0.000067614483     1.007825032230
         H           -2.768459144987     1.294529139570    -0.000084385517     1.007825032230
         H            2.882396855013    -1.836920860430     0.000008614483     1.007825032230
         H            1.344589855013    -2.678273860430     0.000001614483     1.007825032230

  Basis Set: AUG-CC-PVTZ
    Blend: AUG-CC-PVTZ
  Basis Set: (AUG-CC-PVTZ AUX)
    Blend: AUG-CC-PVTZ-JKFIT
	 Reference Energy          =    -464.6703251292273649 [Eh]
	 Singles Energy            =      -0.0000000000000000 [Eh]
	 Same-Spin Energy          =      -0.5052539792702695 [Eh]
	 Opposite-Spin Energy      =      -1.4755119530063932 [Eh]
	 Correlation Energy        =      -1.9807659322766626 [Eh]
	 Total Energy              =    -466.6510910615040189 [Eh]

	 ================> DF-SCS-MP2 Energies <==================
	-----------------------------------------------------------
	 SCS Same-Spin Scale       =       0.3333333333333333 [-]
	 SCS Opposite-Spin Scale   =       1.2000000000000000 [-]
	 SCS Same-Spin Energy      =      -0.1684179930900898 [Eh]
	 SCS Opposite-Spin Energy  =      -1.7706143436076718 [Eh]
	 SCS Correlation Energy    =      -1.9390323366977615 [Eh]
	 SCS Total Energy          =    -466.6093574659251431 [Eh]
	-----------------------------------------------------------

  Dipole Moment: [D]
     X:    -2.0437      Y:    -1.3569      Z:    -0.0000     Total:     2.4532

*** Psi4 exiting successfully. Buy a developer a beer!
