                               Psi4 1.3.2 release

  ==> Input File <==

--------------------------------------------------------------------------
#psi4
#
memory 32 gb

molecule  {
0 1
  N        1.9514160     0.5241040     0.0000050
  C        1.2282460    -0.6072470    -0.0000030
  C       -0.1789070    -0.5171830    -0.0000110
  C       -0.7103380     0.7755800     0.0000000
  N        0.0120446     1.9087645     0.0000059
  C        1.2911430     1.7045360     0.0000120
  N       -1.1651470    -1.4838950    -0.0000170
  C       -2.2855240    -0.7743080     0.0000440
  N       -2.0747130     0.5813540    -0.0000230
  N        1.8664710    -1.8000490    -0.0000060
  H        1.9266830     2.5875900     0.0000020
  H       -3.2831410    -1.1955370     0.0000680
  H       -2.7752520     1.3134440    -0.0000840
  H        2.8756040    -1.8180060     0.0000090
  H        1.3377970    -2.6593590     0.0000020
units angstrom
no_reorient  #important for SAPT in psi4, default
symmetry c1  #important for SAPT in psi4, default
}

set PROPERTIES_ORIGIN ["COM"]
properties('MP2/aug-cc-pvtz', properties = ['dipole'])
--------------------------------------------------------------------------

    Molecular point group: c1
  Charge       = 0
  Multiplicity = 1
  Basis Set: AUG-CC-PVTZ
    Blend: AUG-CC-PVTZ
  Basis Set: (AUG-CC-PVTZ AUX)
    Blend: AUG-CC-PVTZ-JKFIT

    Orbital Energies [Eh]
    ---------------------

    Doubly Occupied:

       1A    -15.637429     2A    -15.584145     3A    -15.572368
       4A    -15.554298     5A    -15.546744     6A    -11.337200
       7A    -11.327301     8A    -11.318799     9A    -11.304764
      10A    -11.253035    11A     -1.367654    12A     -1.300335
      13A     -1.249351    14A     -1.186194    15A     -1.150179
      16A     -1.035125    17A     -0.894151    18A     -0.877586
      19A     -0.846481    20A     -0.782012    21A     -0.738602
      22A     -0.699001    23A     -0.678870    24A     -0.639111
      25A     -0.633885    26A     -0.612342    27A     -0.595011
      28A     -0.558402    29A     -0.501229    30A     -0.493525
      31A     -0.449921    32A     -0.424446    33A     -0.406451
      34A     -0.370362    35A     -0.310688

  @DF-RHF Final Energy:  -464.68273976004537

   => Energetics <=

    Nuclear Repulsion Energy =            502.7726621776842535
    One-Electron Energy =               -1628.4368148803473559
    Two-Electron Energy =                 660.9814129426177942
    Total Energy =                       -464.6827397600453651
  Basis Set: (AUG-CC-PVTZ AUX)
    Blend: AUG-CC-PVTZ-RI
    Molecular point group: c1

    Geometry (in Angstrom), charge = 0, multiplicity = 1:

       Center              X                  Y                   Z               Mass
    ------------   -----------------  -----------------  -----------------  -----------------
         N            1.947857536309     0.513635092995     0.000004929890    14.003074004430
         C            1.224687536309    -0.617715907005    -0.000003070110    12.000000000000
         C           -0.182465463691    -0.527651907005    -0.000011070110    12.000000000000
         C           -0.713896463691     0.765111092995    -0.000000070110    12.000000000000
         N            0.008486136309     1.898295592995     0.000005829890    14.003074004430
         C            1.287584536309     1.694067092995     0.000011929890    12.000000000000
         N           -1.168705463691    -1.494363907005    -0.000017070110    14.003074004430
         C           -2.289082463691    -0.784776907005     0.000043929890    12.000000000000
         N           -2.078271463691     0.570885092995    -0.000023070110    14.003074004430
         N            1.862912536309    -1.810517907005    -0.000006070110    14.003074004430
         H            1.923124536309     2.577121092995     0.000001929890     1.007825032230
         H           -3.286699463691    -1.206005907005     0.000067929890     1.007825032230
         H           -2.778810463691     1.302975092995    -0.000084070110     1.007825032230
         H            2.872045536309    -1.828474907005     0.000008929890     1.007825032230
         H            1.334238536309    -2.669827907005     0.000001929890     1.007825032230

  Basis Set: AUG-CC-PVTZ
    Blend: AUG-CC-PVTZ
  Basis Set: (AUG-CC-PVTZ AUX)
    Blend: AUG-CC-PVTZ-JKFIT
	 Reference Energy          =    -464.6827397600453651 [Eh]
	 Singles Energy            =      -0.0000000000000000 [Eh]
	 Same-Spin Energy          =      -0.5058837819741933 [Eh]
	 Opposite-Spin Energy      =      -1.4748633915049287 [Eh]
	 Correlation Energy        =      -1.9807471734791220 [Eh]
	 Total Energy              =    -466.6634869335244957 [Eh]

	 ================> DF-SCS-MP2 Energies <==================
	-----------------------------------------------------------
	 SCS Same-Spin Scale       =       0.3333333333333333 [-]
	 SCS Opposite-Spin Scale   =       1.2000000000000000 [-]
	 SCS Same-Spin Energy      =      -0.1686279273247311 [Eh]
	 SCS Opposite-Spin Energy  =      -1.7698360698059143 [Eh]
	 SCS Correlation Energy    =      -1.9384639971306454 [Eh]
	 SCS Total Energy          =    -466.6212037571760334 [Eh]
	-----------------------------------------------------------

  Dipole Moment: [D]
     X:    -2.3929      Y:    -1.0990      Z:    -0.0000     Total:     2.6332

*** Psi4 exiting successfully. Buy a developer a beer!
