                               Psi4 1.3.2 release

  ==> Input File <==

--------------------------------------------------------------------------
#psi4
#
memory 32 gb

molecule  {
0 1
  N        1.9514160     0.5241040     0.0000050
  C        1.2282460    -0.6072470    -0.0000030
  C       -0.1789070    -0.5171830    -0.0000110
  C       -0.7103380     0.7755800     0.0000000
  N       -0.0279430     1.9332850     0.0000050
  C        1.2911430     1.7045360     0.0000120
  N       -1.1651470    -1.4838950    -0.0000170
  C       -2.2855240    -0.7743080     0.0000440
  N       -2.0747130     0.5813540    -0.0000230
  N        1.8664710    -1.8000490    -0.0000060
  H        1.8098534     2.4252606     0.0000038
  H       -3.2831410    -1.1955370     0.0000680
  H       -2.7752520     1.3134440    -0.0000840
  H        2.8756040    -1.8180060     0.0000090
  H        1.3377970    -2.6593590     0.0000020
units angstrom
no_reorient  #important for SAPT in psi4, default
symmetry c1  #important for SAPT in psi4, default
}

set PROPERTIES_ORIGIN ["COM"]
properties('MP2/aug-cc-pvtz', properties = ['dipole'])
--------------------------------------------------------------------------

    Molecular point group: c1
  Charge       = 0
  Multiplicity = 1
  Basis Set: AUG-CC-PVTZ
    Blend: AUG-CC-PVTZ
  Basis Set: (AUG-CC-PVTZ AUX)
    Blend: AUG-CC-PVTZ-JKFIT

    Orbital Energies [Eh]
    ---------------------

    Doubly Occupied:

       1A    -15.634172     2A    -15.585019     3A    -15.571439
       4A    -15.558422     5A    -15.550533     6A    -11.337682
       7A    -11.326511     8A    -11.317152     9A    -11.289175
      10A    -11.252634    11A     -1.365887    12A     -1.297558
      13A     -1.245506    14A     -1.185427    15A     -1.150169
      16A     -1.037740    17A     -0.908058    18A     -0.885614
      19A     -0.846108    20A     -0.783488    21A     -0.744563
      22A     -0.710290    23A     -0.675333    24A     -0.638537
      25A     -0.637173    26A     -0.612796    27A     -0.605411
      28A     -0.557390    29A     -0.501727    30A     -0.496258
      31A     -0.455117    32A     -0.423907    33A     -0.409909
      34A     -0.372273    35A     -0.307316

  @DF-RHF Final Energy:  -464.64752036144534

   => Energetics <=

    Nuclear Repulsion Energy =            503.0640444248178937
    One-Electron Energy =               -1628.8705445878576938
    Two-Electron Energy =                 661.1589798015944552
    Total Energy =                       -464.6475203614453449
  Basis Set: (AUG-CC-PVTZ AUX)
    Blend: AUG-CC-PVTZ-RI
    Molecular point group: c1

    Geometry (in Angstrom), charge = 0, multiplicity = 1:

       Center              X                  Y                   Z               Mass
    ------------   -----------------  -----------------  -----------------  -----------------
         N            1.952875459752     0.512304054416     0.000005009774    14.003074004430
         C            1.229705459752    -0.619046945584    -0.000002990226    12.000000000000
         C           -0.177447540248    -0.528982945584    -0.000010990226    12.000000000000
         C           -0.708878540248     0.763780054416     0.000000009774    12.000000000000
         N           -0.026483540248     1.921485054416     0.000005009774    14.003074004430
         C            1.292602459752     1.692736054416     0.000012009774    12.000000000000
         N           -1.163687540248    -1.495694945584    -0.000016990226    14.003074004430
         C           -2.284064540248    -0.786107945584     0.000044009774    12.000000000000
         N           -2.073253540248     0.569554054416    -0.000022990226    14.003074004430
         N            1.867930459752    -1.811848945584    -0.000005990226    14.003074004430
         H            1.811312859752     2.413460654416     0.000003809774     1.007825032230
         H           -3.281681540248    -1.207336945584     0.000068009774     1.007825032230
         H           -2.773792540248     1.301644054416    -0.000083990226     1.007825032230
         H            2.877063459752    -1.829805945584     0.000009009774     1.007825032230
         H            1.339256459752    -2.671158945584     0.000002009774     1.007825032230

  Basis Set: AUG-CC-PVTZ
    Blend: AUG-CC-PVTZ
  Basis Set: (AUG-CC-PVTZ AUX)
    Blend: AUG-CC-PVTZ-JKFIT
	 Reference Energy          =    -464.6475203614453449 [Eh]
	 Singles Energy            =      -0.0000000000000000 [Eh]
	 Same-Spin Energy          =      -0.5060538954003350 [Eh]
	 Opposite-Spin Energy      =      -1.4757687298130768 [Eh]
	 Correlation Energy        =      -1.9818226252134119 [Eh]
	 Total Energy              =    -466.6293429866587417 [Eh]

	 ================> DF-SCS-MP2 Energies <==================
	-----------------------------------------------------------
	 SCS Same-Spin Scale       =       0.3333333333333333 [-]
	 SCS Opposite-Spin Scale   =       1.2000000000000000 [-]
	 SCS Same-Spin Energy      =      -0.1686846318001116 [Eh]
	 SCS Opposite-Spin Energy  =      -1.7709224757756921 [Eh]
	 SCS Correlation Energy    =      -1.9396071075758037 [Eh]
	 SCS Total Energy          =    -466.5871274690211408 [Eh]
	-----------------------------------------------------------

  Dipole Moment: [D]
     X:    -2.2504      Y:    -1.1548      Z:    -0.0000     Total:     2.5294

*** Psi4 exiting successfully. Buy a developer a beer!
