                               Psi4 1.4a3.dev225

  ==> Input File <==

--------------------------------------------------------------------------
#psi4
#
memory 32 gb

molecule  {
0 1
  N        1.9483950     0.5259860     0.0099940
  C        1.2281250    -0.6055780    -0.0011110
  C       -0.1777080    -0.5183570    -0.0133480
  C       -0.7121930     0.7746180    -0.0067610
  N       -0.0315150     1.9321470    -0.0030770
  C        1.2882650     1.7066530     0.0061850
  N       -1.1633520    -1.4857590     0.0015620
  C       -2.2839740    -0.7772230     0.0077650
  N       -2.0759200     0.5789190     0.0016180
  N        1.8765300    -1.8041700    -0.0655800
  H        1.9340698     2.6067455     0.0148433
  H       -3.2809510    -1.1999800     0.0170960
  H       -2.7777110     1.3098630     0.0041890
  H        2.8553720    -1.7872280     0.1925460
  H        1.3468110    -2.6236890     0.2034770
units angstrom
no_reorient  #important for SAPT in psi4, default
symmetry c1  #important for SAPT in psi4, default
}

set PROPERTIES_ORIGIN ["COM"]
properties('MP2/aug-cc-pvtz', properties = ['dipole'])
--------------------------------------------------------------------------

    Molecular point group: c1
  Charge       = 0
  Multiplicity = 1
  Basis Set: AUG-CC-PVTZ
    Blend: AUG-CC-PVTZ
  Basis Set: (AUG-CC-PVTZ AUX)
    Blend: AUG-CC-PVTZ-JKFIT

    Orbital Energies [Eh]
    ---------------------

    Doubly Occupied:

       1A    -15.636282     2A    -15.584239     3A    -15.572893
       4A    -15.562799     5A    -15.554498     6A    -11.338248
       7A    -11.328588     8A    -11.320468     9A    -11.316196
      10A    -11.255173    11A     -1.368152    12A     -1.298402
      13A     -1.245656    14A     -1.186888    15A     -1.152805
      16A     -1.033294    17A     -0.894504    18A     -0.875874
      19A     -0.847755    20A     -0.776282    21A     -0.734132
      22A     -0.696742    23A     -0.674137    24A     -0.640166
      25A     -0.631131    26A     -0.611835    27A     -0.589303
      28A     -0.557780    29A     -0.498663    30A     -0.498083
      31A     -0.453999    32A     -0.427653    33A     -0.412130
      34A     -0.375405    35A     -0.311379

  @DF-RHF Final Energy:  -464.68101090272597

   => Energetics <=

    Nuclear Repulsion Energy =            501.5692704103994402
    One-Electron Energy =               -1625.9774952604852842
    Two-Electron Energy =                 659.7272139473598145
    Total Energy =                       -464.6810109027260296
  Basis Set: (AUG-CC-PVTZ AUX)
    Blend: AUG-CC-PVTZ-RI
    Molecular point group: c1

    Geometry (in Angstrom), charge = 0, multiplicity = 1:

       Center              X                  Y                   Z               Mass
    ------------   -----------------  -----------------  -----------------  -----------------
         N            1.948779930740     0.513304050461     0.013167827399    14.003074004430
         C            1.228509930740    -0.618259949539     0.002062827399    12.000000000000
         C           -0.177323069260    -0.531038949539    -0.010174172601    12.000000000000
         C           -0.711808069260     0.761936050461    -0.003587172601    12.000000000000
         N           -0.031130069260     1.919465050461     0.000096827399    14.003074004430
         C            1.288649930740     1.693971050461     0.009358827399    12.000000000000
         N           -1.162967069260    -1.498440949539     0.004735827399    14.003074004430
         C           -2.283589069260    -0.789904949539     0.010938827399    12.000000000000
         N           -2.075535069260     0.566237050461     0.004791827399    14.003074004430
         N            1.876914930740    -1.816851949539    -0.062406172601    14.003074004430
         H            1.934454730740     2.594063550461     0.018017127399     1.007825032230
         H           -3.280566069260    -1.212661949539     0.020269827399     1.007825032230
         H           -2.777326069260     1.297181050461     0.007362827399     1.007825032230
         H            2.855756930740    -1.799909949539     0.195719827399     1.007825032230
         H            1.347195930740    -2.636370949539     0.206650827399     1.007825032230

  Basis Set: AUG-CC-PVTZ
    Blend: AUG-CC-PVTZ
  Basis Set: (AUG-CC-PVTZ AUX)
    Blend: AUG-CC-PVTZ-JKFIT
	 Reference Energy          =    -464.6810109027259728 [Eh]
	 Singles Energy            =      -0.0000000000000000 [Eh]
	 Same-Spin Energy          =      -0.5063995496624465 [Eh]
	 Opposite-Spin Energy      =      -1.4766243514991688 [Eh]
	 Correlation Energy        =      -1.9830239011616153 [Eh]
	 Total Energy              =    -466.6640348038876027 [Eh]

	 ================> DF-SCS-MP2 Energies <==================
	-----------------------------------------------------------
	 SCS Same-Spin Scale       =       0.3333333333333333 [-]
	 SCS Opposite-Spin Scale   =       1.2000000000000000 [-]
	 SCS Same-Spin Energy      =      -0.1687998498874821 [Eh]
	 SCS Opposite-Spin Energy  =      -1.7719492217990025 [Eh]
	 SCS Correlation Energy    =      -1.9407490716864846 [Eh]
	 SCS Total Energy          =    -466.6217599744124414 [Eh]
	-----------------------------------------------------------

  Dipole Moment: [D]
     X:    -2.4668      Y:    -0.8697      Z:     0.7200     Total:     2.7129

*** Psi4 exiting successfully. Buy a developer a beer!
