                               Psi4 1.3.2 release

  ==> Input File <==

--------------------------------------------------------------------------
#psi4
#
memory 32 gb

molecule  {
0 1
  N        1.9514160     0.5241040     0.0000050
  C        1.2282460    -0.6072470    -0.0000030
  C       -0.1789070    -0.5171830    -0.0000110
  C       -0.7103380     0.7755800     0.0000000
  N       -0.0279430     1.9332850     0.0000050
  C        1.2911430     1.7045360     0.0000120
  N       -1.1651470    -1.4838950    -0.0000170
  C       -2.2855240    -0.7743080     0.0000440
  N       -2.0747130     0.5813540    -0.0000230
  N        1.8664710    -1.8000490    -0.0000060
  H        1.9266830     2.5875900     0.0000020
  H       -3.2831410    -1.1955370     0.0000680
  H       -2.6369787     1.1689431    -0.0000720
  H        2.8756040    -1.8180060     0.0000090
  H        1.3377970    -2.6593590     0.0000020
units angstrom
no_reorient  #important for SAPT in psi4, default
symmetry c1  #important for SAPT in psi4, default
}

set PROPERTIES_ORIGIN ["COM"]
properties('MP2/aug-cc-pvtz', properties = ['dipole'])
--------------------------------------------------------------------------

    Molecular point group: c1
  Charge       = 0
  Multiplicity = 1
  Basis Set: AUG-CC-PVTZ
    Blend: AUG-CC-PVTZ
  Basis Set: (AUG-CC-PVTZ AUX)
    Blend: AUG-CC-PVTZ-JKFIT

    Orbital Energies [Eh]
    ---------------------

    Doubly Occupied:

       1A    -15.615548     2A    -15.586637     3A    -15.573811
       4A    -15.560696     5A    -15.552995     6A    -11.339968
       7A    -11.328554     8A    -11.319784     9A    -11.313631
      10A    -11.253993    11A     -1.378587    12A     -1.301134
      13A     -1.247121    14A     -1.206952    15A     -1.155218
      16A     -1.034382    17A     -0.912255    18A     -0.891038
      19A     -0.868357    20A     -0.786321    21A     -0.743640
      22A     -0.705369    23A     -0.677702    24A     -0.640471
      25A     -0.639554    26A     -0.615982    27A     -0.592186
      28A     -0.560268    29A     -0.499106    30A     -0.498007
      31A     -0.454342    32A     -0.427686    33A     -0.412100
      34A     -0.375168    35A     -0.309031

  @DF-RHF Final Energy:  -464.63772566254875

   => Energetics <=

    Nuclear Repulsion Energy =            503.2732067327584673
    One-Electron Energy =               -1629.0666802980790635
    Two-Electron Energy =                 661.1557479027719637
    Total Energy =                       -464.6377256625487462
  Basis Set: (AUG-CC-PVTZ AUX)
    Blend: AUG-CC-PVTZ-RI
    Molecular point group: c1

    Geometry (in Angstrom), charge = 0, multiplicity = 1:

       Center              X                  Y                   Z               Mass
    ------------   -----------------  -----------------  -----------------  -----------------
         N            1.950971790510     0.512171011761     0.000004933658    14.003074004430
         C            1.227801790510    -0.619179988239    -0.000003066342    12.000000000000
         C           -0.179351209490    -0.529115988239    -0.000011066342    12.000000000000
         C           -0.710782209490     0.763647011761    -0.000000066342    12.000000000000
         N           -0.028387209490     1.921352011761     0.000004933658    14.003074004430
         C            1.290698790510     1.692603011761     0.000011933658    12.000000000000
         N           -1.165591209490    -1.495827988239    -0.000017066342    14.003074004430
         C           -2.285968209490    -0.786240988239     0.000043933658    12.000000000000
         N           -2.075157209490     0.569421011761    -0.000023066342    14.003074004430
         N            1.866026790510    -1.811981988239    -0.000006066342    14.003074004430
         H            1.926238790510     2.575657011761     0.000001933658     1.007825032230
         H           -3.283585209490    -1.207469988239     0.000067933658     1.007825032230
         H           -2.637422909490     1.157010111761    -0.000072066342     1.007825032230
         H            2.875159790510    -1.829938988239     0.000008933658     1.007825032230
         H            1.337352790510    -2.671291988239     0.000001933658     1.007825032230

  Basis Set: AUG-CC-PVTZ
    Blend: AUG-CC-PVTZ
  Basis Set: (AUG-CC-PVTZ AUX)
    Blend: AUG-CC-PVTZ-JKFIT
	 Reference Energy          =    -464.6377256625487462 [Eh]
	 Singles Energy            =      -0.0000000000000000 [Eh]
	 Same-Spin Energy          =      -0.5048380551598397 [Eh]
	 Opposite-Spin Energy      =      -1.4736145891301404 [Eh]
	 Correlation Energy        =      -1.9784526442899801 [Eh]
	 Total Energy              =    -466.6161783068387194 [Eh]

	 ================> DF-SCS-MP2 Energies <==================
	-----------------------------------------------------------
	 SCS Same-Spin Scale       =       0.3333333333333333 [-]
	 SCS Opposite-Spin Scale   =       1.2000000000000000 [-]
	 SCS Same-Spin Energy      =      -0.1682793517199466 [Eh]
	 SCS Opposite-Spin Energy  =      -1.7683375069561684 [Eh]
	 SCS Correlation Energy    =      -1.9366168586761150 [Eh]
	 SCS Total Energy          =    -466.5743425212248781 [Eh]
	-----------------------------------------------------------

  Dipole Moment: [D]
     X:    -2.0423      Y:    -1.3770      Z:    -0.0000     Total:     2.4632

*** Psi4 exiting successfully. Buy a developer a beer!
