                               Psi4 1.3.2 release

  ==> Input File <==

--------------------------------------------------------------------------
#psi4
#
memory 32 gb

molecule  {
0 1
  N        1.9514160     0.5241040     0.0000050
  C        1.2282460    -0.6072470    -0.0000030
  C       -0.1789070    -0.5171830    -0.0000110
  C       -0.7103380     0.7755800     0.0000000
  N       -0.0078422     1.9211992     0.0000054
  C        1.2911430     1.7045360     0.0000120
  N       -1.1651470    -1.4838950    -0.0000170
  C       -2.2855240    -0.7743080     0.0000440
  N       -2.0747130     0.5813540    -0.0000230
  N        1.8664710    -1.8000490    -0.0000060
  H        1.9266830     2.5875900     0.0000020
  H       -3.2831410    -1.1955370     0.0000680
  H       -2.7752520     1.3134440    -0.0000840
  H        2.8756040    -1.8180060     0.0000090
  H        1.3377970    -2.6593590     0.0000020
units angstrom
no_reorient  #important for SAPT in psi4, default
symmetry c1  #important for SAPT in psi4, default
}

set PROPERTIES_ORIGIN ["COM"]
properties('MP2/aug-cc-pvtz', properties = ['dipole'])
--------------------------------------------------------------------------

    Molecular point group: c1
  Charge       = 0
  Multiplicity = 1
  Basis Set: AUG-CC-PVTZ
    Blend: AUG-CC-PVTZ
  Basis Set: (AUG-CC-PVTZ AUX)
    Blend: AUG-CC-PVTZ-JKFIT

    Orbital Energies [Eh]
    ---------------------

    Doubly Occupied:

       1A    -15.636022     2A    -15.584892     3A    -15.572047
       4A    -15.556903     5A    -15.549232     6A    -11.338015
       7A    -11.326993     8A    -11.318457     9A    -11.308627
      10A    -11.252919    11A     -1.366928    12A     -1.298605
      13A     -1.247381    14A     -1.185864    15A     -1.150721
      16A     -1.033557    17A     -0.894407    18A     -0.876515
      19A     -0.846439    20A     -0.780211    21A     -0.738475
      22A     -0.699320    23A     -0.677240    24A     -0.638374
      25A     -0.633204    26A     -0.612637    27A     -0.592387
      28A     -0.558156    29A     -0.498991    30A     -0.495190
      31A     -0.451348    32A     -0.424346    33A     -0.408716
      34A     -0.371749    35A     -0.309156

  @DF-RHF Final Energy:  -464.68296227189768

   => Energetics <=

    Nuclear Repulsion Energy =            502.2851620470716512
    One-Electron Energy =               -1627.4682017129009637
    Two-Electron Energy =                 660.5000773939316332
    Total Energy =                       -464.6829622718976225
  Basis Set: (AUG-CC-PVTZ AUX)
    Blend: AUG-CC-PVTZ-RI
    Molecular point group: c1

    Geometry (in Angstrom), charge = 0, multiplicity = 1:

       Center              X                  Y                   Z               Mass
    ------------   -----------------  -----------------  -----------------  -----------------
         N            1.949919491609     0.512345805851     0.000004981733    14.003074004430
         C            1.226749491609    -0.619005194149    -0.000003018267    12.000000000000
         C           -0.180403508391    -0.528941194149    -0.000011018267    12.000000000000
         C           -0.711834508391     0.763821805851    -0.000000018267    12.000000000000
         N           -0.009338708391     1.909441005851     0.000005381733    14.003074004430
         C            1.289646491609     1.692777805851     0.000011981733    12.000000000000
         N           -1.166643508391    -1.495653194149    -0.000017018267    14.003074004430
         C           -2.287020508391    -0.786066194149     0.000043981733    12.000000000000
         N           -2.076209508391     0.569595805851    -0.000023018267    14.003074004430
         N            1.864974491609    -1.811807194149    -0.000006018267    14.003074004430
         H            1.925186491609     2.575831805851     0.000001981733     1.007825032230
         H           -3.284637508391    -1.207295194149     0.000067981733     1.007825032230
         H           -2.776748508391     1.301685805851    -0.000084018267     1.007825032230
         H            2.874107491609    -1.829764194149     0.000008981733     1.007825032230
         H            1.336300491609    -2.671117194149     0.000001981733     1.007825032230

  Basis Set: AUG-CC-PVTZ
    Blend: AUG-CC-PVTZ
  Basis Set: (AUG-CC-PVTZ AUX)
    Blend: AUG-CC-PVTZ-JKFIT
	 Reference Energy          =    -464.6829622718976793 [Eh]
	 Singles Energy            =      -0.0000000000000000 [Eh]
	 Same-Spin Energy          =      -0.5060824258010872 [Eh]
	 Opposite-Spin Energy      =      -1.4755225801439542 [Eh]
	 Correlation Energy        =      -1.9816050059450414 [Eh]
	 Total Energy              =    -466.6645672778427070 [Eh]

	 ================> DF-SCS-MP2 Energies <==================
	-----------------------------------------------------------
	 SCS Same-Spin Scale       =       0.3333333333333333 [-]
	 SCS Opposite-Spin Scale   =       1.2000000000000000 [-]
	 SCS Same-Spin Energy      =      -0.1686941419336957 [Eh]
	 SCS Opposite-Spin Energy  =      -1.7706270961727451 [Eh]
	 SCS Correlation Energy    =      -1.9393212381064409 [Eh]
	 SCS Total Energy          =    -466.6222835100041380 [Eh]
	-----------------------------------------------------------

  Dipole Moment: [D]
     X:    -2.3235      Y:    -1.1424      Z:    -0.0000     Total:     2.5891

*** Psi4 exiting successfully. Buy a developer a beer!
