                               Psi4 1.3.2 release

  ==> Input File <==

--------------------------------------------------------------------------
#psi4
#
memory 32 gb

molecule  {
0 1
  N        1.9514160     0.5241040     0.0000050
  C        1.2282460    -0.6072470    -0.0000030
  C       -0.1789070    -0.5171830    -0.0000110
  C       -0.7103380     0.7755800     0.0000000
  N       -0.0279430     1.9332850     0.0000050
  C        1.2911430     1.7045360     0.0000120
  N       -1.1651470    -1.4838950    -0.0000170
  C       -2.2855240    -0.7743080     0.0000440
  N       -2.0747130     0.5813540    -0.0000230
  N        1.8664710    -1.8000490    -0.0000060
  H        1.9266830     2.5875900     0.0000020
  H       -3.0988919    -1.1177406     0.0000636
  H       -2.7752520     1.3134440    -0.0000840
  H        2.8756040    -1.8180060     0.0000090
  H        1.3377970    -2.6593590     0.0000020
units angstrom
no_reorient  #important for SAPT in psi4, default
symmetry c1  #important for SAPT in psi4, default
}

set PROPERTIES_ORIGIN ["COM"]
properties('MP2/aug-cc-pvtz', properties = ['dipole'])
--------------------------------------------------------------------------

    Molecular point group: c1
  Charge       = 0
  Multiplicity = 1
  Basis Set: AUG-CC-PVTZ
    Blend: AUG-CC-PVTZ
  Basis Set: (AUG-CC-PVTZ AUX)
    Blend: AUG-CC-PVTZ-JKFIT

    Orbital Energies [Eh]
    ---------------------

    Doubly Occupied:

       1A    -15.633646     2A    -15.585719     3A    -15.571572
       4A    -15.559218     5A    -15.551612     6A    -11.338791
       7A    -11.317852     8A    -11.312446     9A    -11.304561
      10A    -11.252233    11A     -1.366215    12A     -1.297507
      13A     -1.245302    14A     -1.185031    15A     -1.151151
      16A     -1.040364    17A     -0.914545    18A     -0.875887
      19A     -0.855272    20A     -0.788272    21A     -0.741969
      22A     -0.709847    23A     -0.676262    24A     -0.644494
      25A     -0.637281    26A     -0.617936    27A     -0.593720
      28A     -0.557893    29A     -0.497131    30A     -0.496714
      31A     -0.453311    32A     -0.423730    33A     -0.410600
      34A     -0.373020    35A     -0.307797

  @DF-RHF Final Energy:  -464.64602872415219

   => Energetics <=

    Nuclear Repulsion Energy =            503.0517273088790375
    One-Electron Energy =               -1628.8177133942479031
    Two-Electron Energy =                 661.1199573612167342
    Total Energy =                       -464.6460287241521883
  Basis Set: (AUG-CC-PVTZ AUX)
    Blend: AUG-CC-PVTZ-RI
    Molecular point group: c1

    Geometry (in Angstrom), charge = 0, multiplicity = 1:

       Center              X                  Y                   Z               Mass
    ------------   -----------------  -----------------  -----------------  -----------------
         N            1.950628702618     0.510512149661     0.000005056041    14.003074004430
         C            1.227458702618    -0.620838850339    -0.000002943959    12.000000000000
         C           -0.179694297382    -0.530774850339    -0.000010943959    12.000000000000
         C           -0.711125297382     0.761988149661     0.000000056041    12.000000000000
         N           -0.028730297382     1.919693149661     0.000005056041    14.003074004430
         C            1.290355702618     1.690944149661     0.000012056041    12.000000000000
         N           -1.165934297382    -1.497486850339    -0.000016943959    14.003074004430
         C           -2.286311297382    -0.787899850339     0.000044056041    12.000000000000
         N           -2.075500297382     0.567762149661    -0.000022943959    14.003074004430
         N            1.865683702618    -1.813640850339    -0.000005943959    14.003074004430
         H            1.925895702618     2.573998149661     0.000002056041     1.007825032230
         H           -3.099679197382    -1.131332450339     0.000063656041     1.007825032230
         H           -2.776039297382     1.299852149661    -0.000083943959     1.007825032230
         H            2.874816702618    -1.831597850339     0.000009056041     1.007825032230
         H            1.337009702618    -2.672950850339     0.000002056041     1.007825032230

  Basis Set: AUG-CC-PVTZ
    Blend: AUG-CC-PVTZ
  Basis Set: (AUG-CC-PVTZ AUX)
    Blend: AUG-CC-PVTZ-JKFIT
	 Reference Energy          =    -464.6460287241521883 [Eh]
	 Singles Energy            =      -0.0000000000000000 [Eh]
	 Same-Spin Energy          =      -0.5060746389784554 [Eh]
	 Opposite-Spin Energy      =      -1.4758863387775645 [Eh]
	 Correlation Energy        =      -1.9819609777560199 [Eh]
	 Total Energy              =    -466.6279897019082341 [Eh]

	 ================> DF-SCS-MP2 Energies <==================
	-----------------------------------------------------------
	 SCS Same-Spin Scale       =       0.3333333333333333 [-]
	 SCS Opposite-Spin Scale   =       1.2000000000000000 [-]
	 SCS Same-Spin Energy      =      -0.1686915463261518 [Eh]
	 SCS Opposite-Spin Energy  =      -1.7710636065330774 [Eh]
	 SCS Correlation Energy    =      -1.9397551528592292 [Eh]
	 SCS Total Energy          =    -466.5857838770114085 [Eh]
	-----------------------------------------------------------

  Dipole Moment: [D]
     X:    -2.2207      Y:    -1.1515      Z:    -0.0000     Total:     2.5014

*** Psi4 exiting successfully. Buy a developer a beer!
