                               Psi4 1.3.2 release

  ==> Input File <==

--------------------------------------------------------------------------
#psi4
#
memory 32 gb

molecule  {
0 1
  N        1.9514160     0.5241040     0.0000050
  C        1.2282460    -0.6072470    -0.0000030
  C       -0.2015498    -0.5262609    -0.0000110
  C       -0.7103380     0.7755800     0.0000000
  N       -0.0279430     1.9332850     0.0000050
  C        1.2911430     1.7045360     0.0000120
  N       -1.1651470    -1.4838950    -0.0000170
  C       -2.2855240    -0.7743080     0.0000440
  N       -2.0747130     0.5813540    -0.0000230
  N        1.8664710    -1.8000490    -0.0000060
  H        1.9266830     2.5875900     0.0000020
  H       -3.2831410    -1.1955370     0.0000680
  H       -2.7752520     1.3134440    -0.0000840
  H        2.8756040    -1.8180060     0.0000090
  H        1.3377970    -2.6593590     0.0000020
units angstrom
no_reorient  #important for SAPT in psi4, default
symmetry c1  #important for SAPT in psi4, default
}

set PROPERTIES_ORIGIN ["COM"]
properties('MP2/aug-cc-pvtz', properties = ['dipole'])
--------------------------------------------------------------------------

    Molecular point group: c1
  Charge       = 0
  Multiplicity = 1
  Basis Set: AUG-CC-PVTZ
    Blend: AUG-CC-PVTZ
  Basis Set: (AUG-CC-PVTZ AUX)
    Blend: AUG-CC-PVTZ-JKFIT

    Orbital Energies [Eh]
    ---------------------

    Doubly Occupied:

       1A    -15.634614     2A    -15.586627     3A    -15.571083
       4A    -15.559085     5A    -15.551733     6A    -11.341141
       7A    -11.325719     8A    -11.315878     9A    -11.312312
      10A    -11.253745    11A     -1.368337    12A     -1.296728
      13A     -1.245860    14A     -1.189446    15A     -1.151229
      16A     -1.029453    17A     -0.893560    18A     -0.873936
      19A     -0.848200    20A     -0.778067    21A     -0.738737
      22A     -0.700540    23A     -0.676574    24A     -0.638152
      25A     -0.632807    26A     -0.608046    27A     -0.589533
      28A     -0.557478    29A     -0.497446    30A     -0.497203
      31A     -0.456047    32A     -0.426587    33A     -0.409459
      34A     -0.373449    35A     -0.304436

  @DF-RHF Final Energy:  -464.68074707535681

   => Energetics <=

    Nuclear Repulsion Energy =            501.7977145542882340
    One-Electron Energy =               -1626.4904329739256355
    Two-Electron Energy =                 660.0119713442807097
    Total Energy =                       -464.6807470753567486
  Basis Set: (AUG-CC-PVTZ AUX)
    Blend: AUG-CC-PVTZ-RI
    Molecular point group: c1

    Geometry (in Angstrom), charge = 0, multiplicity = 1:

       Center              X                  Y                   Z               Mass
    ------------   -----------------  -----------------  -----------------  -----------------
         N            1.954015516619     0.511899293118     0.000005023206    14.003074004430
         C            1.230845516619    -0.619451706882    -0.000002976794    12.000000000000
         C           -0.198950283381    -0.538465606882    -0.000010976794    12.000000000000
         C           -0.707738483381     0.763375293118     0.000000023206    12.000000000000
         N           -0.025343483381     1.921080293118     0.000005023206    14.003074004430
         C            1.293742516619     1.692331293118     0.000012023206    12.000000000000
         N           -1.162547483381    -1.496099706882    -0.000016976794    14.003074004430
         C           -2.282924483381    -0.786512706882     0.000044023206    12.000000000000
         N           -2.072113483381     0.569149293118    -0.000022976794    14.003074004430
         N            1.869070516619    -1.812253706882    -0.000005976794    14.003074004430
         H            1.929282516619     2.575385293118     0.000002023206     1.007825032230
         H           -3.280541483381    -1.207741706882     0.000068023206     1.007825032230
         H           -2.772652483381     1.301239293118    -0.000083976794     1.007825032230
         H            2.878203516619    -1.830210706882     0.000009023206     1.007825032230
         H            1.340396516619    -2.671563706882     0.000002023206     1.007825032230

  Basis Set: AUG-CC-PVTZ
    Blend: AUG-CC-PVTZ
  Basis Set: (AUG-CC-PVTZ AUX)
    Blend: AUG-CC-PVTZ-JKFIT
	 Reference Energy          =    -464.6807470753568055 [Eh]
	 Singles Energy            =      -0.0000000000000000 [Eh]
	 Same-Spin Energy          =      -0.5065882772043913 [Eh]
	 Opposite-Spin Energy      =      -1.4763821045875654 [Eh]
	 Correlation Energy        =      -1.9829703817919566 [Eh]
	 Total Energy              =    -466.6637174571487776 [Eh]

	 ================> DF-SCS-MP2 Energies <==================
	-----------------------------------------------------------
	 SCS Same-Spin Scale       =       0.3333333333333333 [-]
	 SCS Opposite-Spin Scale   =       1.2000000000000000 [-]
	 SCS Same-Spin Energy      =      -0.1688627590681304 [Eh]
	 SCS Opposite-Spin Energy  =      -1.7716585255050783 [Eh]
	 SCS Correlation Energy    =      -1.9405212845732087 [Eh]
	 SCS Total Energy          =    -466.6212683599300135 [Eh]
	-----------------------------------------------------------

  Dipole Moment: [D]
     X:    -2.2471      Y:    -1.2252      Z:    -0.0000     Total:     2.5594

*** Psi4 exiting successfully. Buy a developer a beer!
