                               Psi4 1.3.2 release

  ==> Input File <==

--------------------------------------------------------------------------
#psi4
#
memory 32 gb

molecule  {
0 1
  N        1.9514160     0.5241040     0.0000050
  C        1.2282460    -0.6072470    -0.0000030
  C       -0.1789070    -0.5171830    -0.0000110
  C       -0.7894331     0.8260016    -0.0000004
  N       -0.0279430     1.9332850     0.0000050
  C        1.2911430     1.7045360     0.0000120
  N       -1.1651470    -1.4838950    -0.0000170
  C       -2.2855240    -0.7743080     0.0000440
  N       -2.0747130     0.5813540    -0.0000230
  N        1.8664710    -1.8000490    -0.0000060
  H        1.9266830     2.5875900     0.0000020
  H       -3.2831410    -1.1955370     0.0000680
  H       -2.7752520     1.3134440    -0.0000840
  H        2.8756040    -1.8180060     0.0000090
  H        1.3377970    -2.6593590     0.0000020
units angstrom
no_reorient  #important for SAPT in psi4, default
symmetry c1  #important for SAPT in psi4, default
}

set PROPERTIES_ORIGIN ["COM"]
properties('MP2/aug-cc-pvtz', properties = ['dipole'])
--------------------------------------------------------------------------

    Molecular point group: c1
  Charge       = 0
  Multiplicity = 1
  Basis Set: AUG-CC-PVTZ
    Blend: AUG-CC-PVTZ
  Basis Set: (AUG-CC-PVTZ AUX)
    Blend: AUG-CC-PVTZ-JKFIT

    Orbital Energies [Eh]
    ---------------------

    Doubly Occupied:

       1A    -15.643307     2A    -15.582292     3A    -15.577784
       4A    -15.556583     5A    -15.549642     6A    -11.335299
       7A    -11.325059     8A    -11.323504     9A    -11.312431
      10A    -11.254580    11A     -1.379169    12A     -1.294757
      13A     -1.242526    14A     -1.195699    15A     -1.149890
      16A     -1.022472    17A     -0.900161    18A     -0.876853
      19A     -0.849018    20A     -0.780270    21A     -0.742438
      22A     -0.695641    23A     -0.682804    24A     -0.643732
      25A     -0.631452    26A     -0.604295    27A     -0.597517
      28A     -0.559140    29A     -0.496377    30A     -0.495574
      31A     -0.448642    32A     -0.430466    33A     -0.401409
      34A     -0.367036    35A     -0.300163

  @DF-RHF Final Energy:  -464.66992570332826

   => Energetics <=

    Nuclear Repulsion Energy =            501.0106847427658181
    One-Electron Energy =               -1624.8652563252123855
    Two-Electron Energy =                 659.1846458791183068
    Total Energy =                       -464.6699257033283175
  Basis Set: (AUG-CC-PVTZ AUX)
    Blend: AUG-CC-PVTZ-RI
    Molecular point group: c1

    Geometry (in Angstrom), charge = 0, multiplicity = 1:

       Center              X                  Y                   Z               Mass
    ------------   -----------------  -----------------  -----------------  -----------------
         N            1.959031474059     0.506612582749     0.000005058748    14.003074004430
         C            1.235861474059    -0.624738417251    -0.000002941252    12.000000000000
         C           -0.171291525941    -0.534674417251    -0.000010941252    12.000000000000
         C           -0.781817625941     0.808510182749    -0.000000341252    12.000000000000
         N           -0.020327525941     1.915793582749     0.000005058748    14.003074004430
         C            1.298758474059     1.687044582749     0.000012058748    12.000000000000
         N           -1.157531525941    -1.501386417251    -0.000016941252    14.003074004430
         C           -2.277908525941    -0.791799417251     0.000044058748    12.000000000000
         N           -2.067097525941     0.563862582749    -0.000022941252    14.003074004430
         N            1.874086474059    -1.817540417251    -0.000005941252    14.003074004430
         H            1.934298474059     2.570098582749     0.000002058748     1.007825032230
         H           -3.275525525941    -1.213028417251     0.000068058748     1.007825032230
         H           -2.767636525941     1.295952582749    -0.000083941252     1.007825032230
         H            2.883219474059    -1.835497417251     0.000009058748     1.007825032230
         H            1.345412474059    -2.676850417251     0.000002058748     1.007825032230

  Basis Set: AUG-CC-PVTZ
    Blend: AUG-CC-PVTZ
  Basis Set: (AUG-CC-PVTZ AUX)
    Blend: AUG-CC-PVTZ-JKFIT
	 Reference Energy          =    -464.6699257033282606 [Eh]
	 Singles Energy            =      -0.0000000000000000 [Eh]
	 Same-Spin Energy          =      -0.5074385304413931 [Eh]
	 Opposite-Spin Energy      =      -1.4771221223437876 [Eh]
	 Correlation Energy        =      -1.9845606527851807 [Eh]
	 Total Energy              =    -466.6544863561134662 [Eh]

	 ================> DF-SCS-MP2 Energies <==================
	-----------------------------------------------------------
	 SCS Same-Spin Scale       =       0.3333333333333333 [-]
	 SCS Opposite-Spin Scale   =       1.2000000000000000 [-]
	 SCS Same-Spin Energy      =      -0.1691461768137977 [Eh]
	 SCS Opposite-Spin Energy  =      -1.7725465468125450 [Eh]
	 SCS Correlation Energy    =      -1.9416927236263426 [Eh]
	 SCS Total Energy          =    -466.6116184269545784 [Eh]
	-----------------------------------------------------------

  Dipole Moment: [D]
     X:    -2.5839      Y:    -1.1686      Z:    -0.0000     Total:     2.8359

*** Psi4 exiting successfully. Buy a developer a beer!
