                               Psi4 1.4a3.dev225

  ==> Input File <==

--------------------------------------------------------------------------
#psi4
#
memory 32 gb

molecule  {
0 1
  N        1.9483950     0.5259860     0.0099940
  C        1.2281250    -0.6055780    -0.0011110
  C       -0.1777080    -0.5183570    -0.0133480
  C       -0.7121930     0.7746180    -0.0067610
  N       -0.0315150     1.9321470    -0.0030770
  C        1.2882650     1.7066530     0.0061850
  N       -1.1633520    -1.4857590     0.0015620
  C       -2.2839740    -0.7772230     0.0077650
  N       -2.0759200     0.5789190     0.0016180
  N        1.8765300    -1.8041700    -0.0655800
  H        1.9224110     2.5904960     0.0146870
  H       -3.2993633    -1.2077875     0.0172683
  H       -2.7777110     1.3098630     0.0041890
  H        2.8553720    -1.7872280     0.1925460
  H        1.3468110    -2.6236890     0.2034770
units angstrom
no_reorient  #important for SAPT in psi4, default
symmetry c1  #important for SAPT in psi4, default
}

set PROPERTIES_ORIGIN ["COM"]
properties('MP2/aug-cc-pvtz', properties = ['dipole'])
--------------------------------------------------------------------------

    Molecular point group: c1
  Charge       = 0
  Multiplicity = 1
  Basis Set: AUG-CC-PVTZ
    Blend: AUG-CC-PVTZ
  Basis Set: (AUG-CC-PVTZ AUX)
    Blend: AUG-CC-PVTZ-JKFIT

    Orbital Energies [Eh]
    ---------------------

    Doubly Occupied:

       1A    -15.636354     2A    -15.584162     3A    -15.572918
       4A    -15.562658     5A    -15.554335     6A    -11.338118
       7A    -11.330662     8A    -11.320384     9A    -11.313964
      10A    -11.255207    11A     -1.368135    12A     -1.298360
      13A     -1.245625    14A     -1.186922    15A     -1.152688
      16A     -1.033126    17A     -0.893751    18A     -0.877005
      19A     -0.846983    20A     -0.775604    21A     -0.734346
      22A     -0.696836    23A     -0.674003    24A     -0.640123
      25A     -0.630412    26A     -0.610952    27A     -0.590561
      28A     -0.557730    29A     -0.498864    30A     -0.498437
      31A     -0.454264    32A     -0.427662    33A     -0.412041
      34A     -0.375320    35A     -0.311330

  @DF-RHF Final Energy:  -464.68102117623044

   => Energetics <=

    Nuclear Repulsion Energy =            501.5708458423074489
    One-Electron Energy =               -1625.9840464430155862
    Two-Electron Energy =                 659.7321794244775219
    Total Energy =                       -464.6810211762305016
  Basis Set: (AUG-CC-PVTZ AUX)
    Blend: AUG-CC-PVTZ-RI
    Molecular point group: c1

    Geometry (in Angstrom), charge = 0, multiplicity = 1:

       Center              X                  Y                   Z               Mass
    ------------   -----------------  -----------------  -----------------  -----------------
         N            1.949004332063     0.513483572415     0.013167708001    14.003074004430
         C            1.228734332063    -0.618080427585     0.002062708001    12.000000000000
         C           -0.177098667937    -0.530859427585    -0.010174291999    12.000000000000
         C           -0.711583667937     0.762115572415    -0.003587291999    12.000000000000
         N           -0.030905667937     1.919644572415     0.000096708001    14.003074004430
         C            1.288874332063     1.694150572415     0.009358708001    12.000000000000
         N           -1.162742667937    -1.498261427585     0.004735708001    14.003074004430
         C           -2.283364667937    -0.789725427585     0.010938708001    12.000000000000
         N           -2.075310667937     0.566416572415     0.004791708001    14.003074004430
         N            1.877139332063    -1.816672427585    -0.062406291999    14.003074004430
         H            1.923020332063     2.577993572415     0.017860708001     1.007825032230
         H           -3.298753967937    -1.220289927585     0.020442008001     1.007825032230
         H           -2.777101667937     1.297360572415     0.007362708001     1.007825032230
         H            2.855981332063    -1.799730427585     0.195719708001     1.007825032230
         H            1.347420332063    -2.636191427585     0.206650708001     1.007825032230

  Basis Set: AUG-CC-PVTZ
    Blend: AUG-CC-PVTZ
  Basis Set: (AUG-CC-PVTZ AUX)
    Blend: AUG-CC-PVTZ-JKFIT
	 Reference Energy          =    -464.6810211762304448 [Eh]
	 Singles Energy            =      -0.0000000000000000 [Eh]
	 Same-Spin Energy          =      -0.5063951031472810 [Eh]
	 Opposite-Spin Energy      =      -1.4766143440421908 [Eh]
	 Correlation Energy        =      -1.9830094471894717 [Eh]
	 Total Energy              =    -466.6640306234199329 [Eh]

	 ================> DF-SCS-MP2 Energies <==================
	-----------------------------------------------------------
	 SCS Same-Spin Scale       =       0.3333333333333333 [-]
	 SCS Opposite-Spin Scale   =       1.2000000000000000 [-]
	 SCS Same-Spin Energy      =      -0.1687983677157603 [Eh]
	 SCS Opposite-Spin Energy  =      -1.7719372128506290 [Eh]
	 SCS Correlation Energy    =      -1.9407355805663893 [Eh]
	 SCS Total Energy          =    -466.6217567567968558 [Eh]
	-----------------------------------------------------------

  Dipole Moment: [D]
     X:    -2.4639      Y:    -0.8651      Z:     0.7201     Total:     2.7089

*** Psi4 exiting successfully. Buy a developer a beer!
