                               Psi4 1.3.2 release

  ==> Input File <==

--------------------------------------------------------------------------
#psi4
#
memory 32 gb

molecule  {
0 1
  N        1.9514160     0.5241040     0.0000050
  C        1.2282460    -0.6072470    -0.0000030
  C       -0.2132456    -0.4833526    -0.0000087
  C       -0.7103380     0.7755800     0.0000000
  N       -0.0279430     1.9332850     0.0000050
  C        1.2911430     1.7045360     0.0000120
  N       -1.1651470    -1.4838950    -0.0000170
  C       -2.2855240    -0.7743080     0.0000440
  N       -2.0747130     0.5813540    -0.0000230
  N        1.8664710    -1.8000490    -0.0000060
  H        1.9266830     2.5875900     0.0000020
  H       -3.2831410    -1.1955370     0.0000680
  H       -2.7752520     1.3134440    -0.0000840
  H        2.8756040    -1.8180060     0.0000090
  H        1.3377970    -2.6593590     0.0000020
units angstrom
no_reorient  #important for SAPT in psi4, default
symmetry c1  #important for SAPT in psi4, default
}

set PROPERTIES_ORIGIN ["COM"]
properties('MP2/aug-cc-pvtz', properties = ['dipole'])
--------------------------------------------------------------------------

    Molecular point group: c1
  Charge       = 0
  Multiplicity = 1
  Basis Set: AUG-CC-PVTZ
    Blend: AUG-CC-PVTZ
  Basis Set: (AUG-CC-PVTZ AUX)
    Blend: AUG-CC-PVTZ-JKFIT

    Orbital Energies [Eh]
    ---------------------

    Doubly Occupied:

       1A    -15.631765     2A    -15.589831     3A    -15.570921
       4A    -15.557742     5A    -15.551016     6A    -11.343831
       7A    -11.325543     8A    -11.312000     9A    -11.310045
      10A    -11.251213    11A     -1.368735    12A     -1.296996
      13A     -1.245298    14A     -1.185375    15A     -1.150860
      16A     -1.033675    17A     -0.894341    18A     -0.869871
      19A     -0.849235    20A     -0.779127    21A     -0.737699
      22A     -0.702070    23A     -0.673839    24A     -0.639120
      25A     -0.633204    26A     -0.608811    27A     -0.588034
      28A     -0.557583    29A     -0.496812    30A     -0.495934
      31A     -0.455550    32A     -0.423172    33A     -0.410433
      34A     -0.374936    35A     -0.309227

  @DF-RHF Final Energy:  -464.67974602720147

   => Energetics <=

    Nuclear Repulsion Energy =            502.1525589881376277
    One-Electron Energy =               -1627.2169178113140333
    Two-Electron Energy =                 660.3846127959750447
    Total Energy =                       -464.6797460272014177
  Basis Set: (AUG-CC-PVTZ AUX)
    Blend: AUG-CC-PVTZ-RI
    Molecular point group: c1

    Geometry (in Angstrom), charge = 0, multiplicity = 1:

       Center              X                  Y                   Z               Mass
    ------------   -----------------  -----------------  -----------------  -----------------
         N            1.955054723791     0.508086761004     0.000004818845    14.003074004430
         C            1.231884723791    -0.623264238996    -0.000003181155    12.000000000000
         C           -0.209606876209    -0.499369838996    -0.000008881155    12.000000000000
         C           -0.706699276209     0.759562761004    -0.000000181155    12.000000000000
         N           -0.024304276209     1.917267761004     0.000004818845    14.003074004430
         C            1.294781723791     1.688518761004     0.000011818845    12.000000000000
         N           -1.161508276209    -1.499912238996    -0.000017181155    14.003074004430
         C           -2.281885276209    -0.790325238996     0.000043818845    12.000000000000
         N           -2.071074276209     0.565336761004    -0.000023181155    14.003074004430
         N            1.870109723791    -1.816066238996    -0.000006181155    14.003074004430
         H            1.930321723791     2.571572761004     0.000001818845     1.007825032230
         H           -3.279502276209    -1.211554238996     0.000067818845     1.007825032230
         H           -2.771613276209     1.297426761004    -0.000084181155     1.007825032230
         H            2.879242723791    -1.834023238996     0.000008818845     1.007825032230
         H            1.341435723791    -2.675376238996     0.000001818845     1.007825032230

  Basis Set: AUG-CC-PVTZ
    Blend: AUG-CC-PVTZ
  Basis Set: (AUG-CC-PVTZ AUX)
    Blend: AUG-CC-PVTZ-JKFIT
	 Reference Energy          =    -464.6797460272014746 [Eh]
	 Singles Energy            =      -0.0000000000000000 [Eh]
	 Same-Spin Energy          =      -0.5057695442850400 [Eh]
	 Opposite-Spin Energy      =      -1.4757876591979358 [Eh]
	 Correlation Energy        =      -1.9815572034829758 [Eh]
	 Total Energy              =    -466.6613032306844389 [Eh]

	 ================> DF-SCS-MP2 Energies <==================
	-----------------------------------------------------------
	 SCS Same-Spin Scale       =       0.3333333333333333 [-]
	 SCS Opposite-Spin Scale   =       1.2000000000000000 [-]
	 SCS Same-Spin Energy      =      -0.1685898480950133 [Eh]
	 SCS Opposite-Spin Energy  =      -1.7709451910375229 [Eh]
	 SCS Correlation Energy    =      -1.9395350391325361 [Eh]
	 SCS Total Energy          =    -466.6192810663339969 [Eh]
	-----------------------------------------------------------

  Dipole Moment: [D]
     X:    -2.1500      Y:    -1.2716      Z:    -0.0000     Total:     2.4979

*** Psi4 exiting successfully. Buy a developer a beer!
