                               Psi4 1.3.2 release

  ==> Input File <==

--------------------------------------------------------------------------
#psi4
#
memory 32 gb

molecule  {
0 1
  N        1.9514160     0.5241040     0.0000050
  C        1.2481009    -0.6196957    -0.0000031
  C       -0.1789070    -0.5171830    -0.0000110
  C       -0.7103380     0.7755800     0.0000000
  N       -0.0279430     1.9332850     0.0000050
  C        1.2911430     1.7045360     0.0000120
  N       -1.1651470    -1.4838950    -0.0000170
  C       -2.2855240    -0.7743080     0.0000440
  N       -2.0747130     0.5813540    -0.0000230
  N        1.8664710    -1.8000490    -0.0000060
  H        1.9266830     2.5875900     0.0000020
  H       -3.2831410    -1.1955370     0.0000680
  H       -2.7752520     1.3134440    -0.0000840
  H        2.8756040    -1.8180060     0.0000090
  H        1.3377970    -2.6593590     0.0000020
units angstrom
no_reorient  #important for SAPT in psi4, default
symmetry c1  #important for SAPT in psi4, default
}

set PROPERTIES_ORIGIN ["COM"]
properties('MP2/aug-cc-pvtz', properties = ['dipole'])
--------------------------------------------------------------------------

    Molecular point group: c1
  Charge       = 0
  Multiplicity = 1
  Basis Set: AUG-CC-PVTZ
    Blend: AUG-CC-PVTZ
  Basis Set: (AUG-CC-PVTZ AUX)
    Blend: AUG-CC-PVTZ-JKFIT

    Orbital Energies [Eh]
    ---------------------

    Doubly Occupied:

       1A    -15.633190     2A    -15.589958     3A    -15.570448
       4A    -15.557662     5A    -15.550094     6A    -11.340418
       7A    -11.324531     8A    -11.315738     9A    -11.311891
      10A    -11.252898    11A     -1.364357    12A     -1.298722
      13A     -1.249176    14A     -1.185862    15A     -1.151275
      16A     -1.028033    17A     -0.893843    18A     -0.873073
      19A     -0.844643    20A     -0.780591    21A     -0.742013
      22A     -0.700685    23A     -0.676782    24A     -0.636014
      25A     -0.634574    26A     -0.609669    27A     -0.588916
      28A     -0.560295    29A     -0.498022    30A     -0.495267
      31A     -0.450432    32A     -0.424184    33A     -0.408208
      34A     -0.372612    35A     -0.304672

  @DF-RHF Final Energy:  -464.68128530670685

   => Energetics <=

    Nuclear Repulsion Energy =            501.5909421452238917
    One-Electron Energy =               -1626.1069585522034231
    Two-Electron Energy =                 659.8347311002727338
    Total Energy =                       -464.6812853067068545
  Basis Set: (AUG-CC-PVTZ AUX)
    Blend: AUG-CC-PVTZ-RI
    Molecular point group: c1

    Geometry (in Angstrom), charge = 0, multiplicity = 1:

       Center              X                  Y                   Z               Mass
    ------------   -----------------  -----------------  -----------------  -----------------
         N            1.950239467555     0.512198798884     0.000005032092    14.003074004430
         C            1.246924367555    -0.631600901116    -0.000003067908    12.000000000000
         C           -0.180083532445    -0.529088201116    -0.000010967908    12.000000000000
         C           -0.711514532445     0.763674798884     0.000000032092    12.000000000000
         N           -0.029119532445     1.921379798884     0.000005032092    14.003074004430
         C            1.289966467555     1.692630798884     0.000012032092    12.000000000000
         N           -1.166323532445    -1.495800201116    -0.000016967908    14.003074004430
         C           -2.286700532445    -0.786213201116     0.000044032092    12.000000000000
         N           -2.075889532445     0.569448798884    -0.000022967908    14.003074004430
         N            1.865294467555    -1.811954201116    -0.000005967908    14.003074004430
         H            1.925506467555     2.575684798884     0.000002032092     1.007825032230
         H           -3.284317532445    -1.207442201116     0.000068032092     1.007825032230
         H           -2.776428532445     1.301538798884    -0.000083967908     1.007825032230
         H            2.874427467555    -1.829911201116     0.000009032092     1.007825032230
         H            1.336620467555    -2.671264201116     0.000002032092     1.007825032230

  Basis Set: AUG-CC-PVTZ
    Blend: AUG-CC-PVTZ
  Basis Set: (AUG-CC-PVTZ AUX)
    Blend: AUG-CC-PVTZ-JKFIT
	 Reference Energy          =    -464.6812853067068545 [Eh]
	 Singles Energy            =      -0.0000000000000000 [Eh]
	 Same-Spin Energy          =      -0.5063225891772639 [Eh]
	 Opposite-Spin Energy      =      -1.4761777614871323 [Eh]
	 Correlation Energy        =      -1.9825003506643961 [Eh]
	 Total Energy              =    -466.6637856573712497 [Eh]

	 ================> DF-SCS-MP2 Energies <==================
	-----------------------------------------------------------
	 SCS Same-Spin Scale       =       0.3333333333333333 [-]
	 SCS Opposite-Spin Scale   =       1.2000000000000000 [-]
	 SCS Same-Spin Energy      =      -0.1687741963924213 [Eh]
	 SCS Opposite-Spin Energy  =      -1.7714133137845587 [Eh]
	 SCS Correlation Energy    =      -1.9401875101769801 [Eh]
	 SCS Total Energy          =    -466.6214728168838519 [Eh]
	-----------------------------------------------------------

  Dipole Moment: [D]
     X:    -2.1146      Y:    -1.3455      Z:    -0.0000     Total:     2.5064

*** Psi4 exiting successfully. Buy a developer a beer!
