                               Psi4 1.3.2 release

  ==> Input File <==

--------------------------------------------------------------------------
#psi4
#
memory 32 gb

molecule  {
0 1
  N        1.9514160     0.5241040     0.0000050
  C        1.2282460    -0.6072470    -0.0000030
  C       -0.1789070    -0.5171830    -0.0000110
  C       -0.7103380     0.7755800     0.0000000
  N       -0.0279430     1.9332850     0.0000050
  C        1.2911430     1.7045360     0.0000120
  N       -1.1529336    -1.4642337    -0.0000187
  C       -2.2855240    -0.7743080     0.0000440
  N       -2.0747130     0.5813540    -0.0000230
  N        1.8664710    -1.8000490    -0.0000060
  H        1.9266830     2.5875900     0.0000020
  H       -3.2831410    -1.1955370     0.0000680
  H       -2.7752520     1.3134440    -0.0000840
  H        2.8756040    -1.8180060     0.0000090
  H        1.3377970    -2.6593590     0.0000020
units angstrom
no_reorient  #important for SAPT in psi4, default
symmetry c1  #important for SAPT in psi4, default
}

set PROPERTIES_ORIGIN ["COM"]
properties('MP2/aug-cc-pvtz', properties = ['dipole'])
--------------------------------------------------------------------------

    Molecular point group: c1
  Charge       = 0
  Multiplicity = 1
  Basis Set: AUG-CC-PVTZ
    Blend: AUG-CC-PVTZ
  Basis Set: (AUG-CC-PVTZ AUX)
    Blend: AUG-CC-PVTZ-JKFIT

    Orbital Energies [Eh]
    ---------------------

    Doubly Occupied:

       1A    -15.634507     2A    -15.585763     3A    -15.569138
       4A    -15.558823     5A    -15.551446     6A    -11.338648
       7A    -11.325785     8A    -11.316668     9A    -11.311772
      10A    -11.251329    11A     -1.368273    12A     -1.297207
      13A     -1.245590    14A     -1.187698    15A     -1.151040
      16A     -1.031599    17A     -0.895188    18A     -0.875941
      19A     -0.846741    20A     -0.778257    21A     -0.739014
      22A     -0.699412    23A     -0.677113    24A     -0.638579
      25A     -0.634154    26A     -0.614506    27A     -0.590195
      28A     -0.557783    29A     -0.496996    30A     -0.495227
      31A     -0.452765    32A     -0.425871    33A     -0.409281
      34A     -0.372960    35A     -0.305551

  @DF-RHF Final Energy:  -464.68192424242721

   => Energetics <=

    Nuclear Repulsion Energy =            502.4462667554219024
    One-Electron Energy =               -1627.7947360273958566
    Two-Electron Energy =                 660.6665450295467963
    Total Energy =                       -464.6819242424271579
  Basis Set: (AUG-CC-PVTZ AUX)
    Blend: AUG-CC-PVTZ-RI
    Molecular point group: c1

    Geometry (in Angstrom), charge = 0, multiplicity = 1:

       Center              X                  Y                   Z               Mass
    ------------   -----------------  -----------------  -----------------  -----------------
         N            1.950737293680     0.509054119853     0.000005199470    14.003074004430
         C            1.227567293680    -0.622296880147    -0.000002800530    12.000000000000
         C           -0.179585706320    -0.532232880147    -0.000010800530    12.000000000000
         C           -0.711016706320     0.760530119853     0.000000199470    12.000000000000
         N           -0.028621706320     1.918235119853     0.000005199470    14.003074004430
         C            1.290464293680     1.689486119853     0.000012199470    12.000000000000
         N           -1.153612306320    -1.479283580147    -0.000018500530    14.003074004430
         C           -2.286202706320    -0.789357880147     0.000044199470    12.000000000000
         N           -2.075391706320     0.566304119853    -0.000022800530    14.003074004430
         N            1.865792293680    -1.815098880147    -0.000005800530    14.003074004430
         H            1.926004293680     2.572540119853     0.000002199470     1.007825032230
         H           -3.283819706320    -1.210586880147     0.000068199470     1.007825032230
         H           -2.775930706320     1.298394119853    -0.000083800530     1.007825032230
         H            2.874925293680    -1.833055880147     0.000009199470     1.007825032230
         H            1.337118293680    -2.674408880147     0.000002199470     1.007825032230

  Basis Set: AUG-CC-PVTZ
    Blend: AUG-CC-PVTZ
  Basis Set: (AUG-CC-PVTZ AUX)
    Blend: AUG-CC-PVTZ-JKFIT
	 Reference Energy          =    -464.6819242424272147 [Eh]
	 Singles Energy            =      -0.0000000000000000 [Eh]
	 Same-Spin Energy          =      -0.5065768866828455 [Eh]
	 Opposite-Spin Energy      =      -1.4761454175921325 [Eh]
	 Correlation Energy        =      -1.9827223042749780 [Eh]
	 Total Energy              =    -466.6646465467022153 [Eh]

	 ================> DF-SCS-MP2 Energies <==================
	-----------------------------------------------------------
	 SCS Same-Spin Scale       =       0.3333333333333333 [-]
	 SCS Opposite-Spin Scale   =       1.2000000000000000 [-]
	 SCS Same-Spin Energy      =      -0.1688589622276152 [Eh]
	 SCS Opposite-Spin Energy  =      -1.7713745011105588 [Eh]
	 SCS Correlation Energy    =      -1.9402334633381739 [Eh]
	 SCS Total Energy          =    -466.6221577057654031 [Eh]
	-----------------------------------------------------------

  Dipole Moment: [D]
     X:    -2.2922      Y:    -1.2241      Z:    -0.0000     Total:     2.5985

*** Psi4 exiting successfully. Buy a developer a beer!
