                               Psi4 1.3.2 release

  ==> Input File <==

--------------------------------------------------------------------------
#psi4
#
memory 32 gb

molecule  {
0 1
  N        1.9514160     0.5241040     0.0000050
  C        1.2282460    -0.6072470    -0.0000030
  C       -0.1789070    -0.5171830    -0.0000110
  C       -0.7179475     0.8230777    -0.0000027
  N       -0.0279430     1.9332850     0.0000050
  C        1.2911430     1.7045360     0.0000120
  N       -1.1651470    -1.4838950    -0.0000170
  C       -2.2855240    -0.7743080     0.0000440
  N       -2.0747130     0.5813540    -0.0000230
  N        1.8664710    -1.8000490    -0.0000060
  H        1.9266830     2.5875900     0.0000020
  H       -3.2831410    -1.1955370     0.0000680
  H       -2.7752520     1.3134440    -0.0000840
  H        2.8756040    -1.8180060     0.0000090
  H        1.3377970    -2.6593590     0.0000020
units angstrom
no_reorient  #important for SAPT in psi4, default
symmetry c1  #important for SAPT in psi4, default
}

set PROPERTIES_ORIGIN ["COM"]
properties('MP2/aug-cc-pvtz', properties = ['dipole'])
--------------------------------------------------------------------------

    Molecular point group: c1
  Charge       = 0
  Multiplicity = 1
  Basis Set: AUG-CC-PVTZ
    Blend: AUG-CC-PVTZ
  Basis Set: (AUG-CC-PVTZ AUX)
    Blend: AUG-CC-PVTZ-JKFIT

    Orbital Energies [Eh]
    ---------------------

    Doubly Occupied:

       1A    -15.635142     2A    -15.582773     3A    -15.572770
       4A    -15.558856     5A    -15.553648     6A    -11.335593
       7A    -11.326834     8A    -11.322016     9A    -11.314494
      10A    -11.254657    11A     -1.364337    12A     -1.298524
      13A     -1.250191    14A     -1.185557    15A     -1.155742
      16A     -1.025711    17A     -0.893941    18A     -0.880145
      19A     -0.842988    20A     -0.778619    21A     -0.737394
      22A     -0.698978    23A     -0.680455    24A     -0.636686
      25A     -0.632577    26A     -0.607112    27A     -0.591190
      28A     -0.557225    29A     -0.501480    30A     -0.498248
      31A     -0.452548    32A     -0.424546    33A     -0.408724
      34A     -0.374732    35A     -0.301048

  @DF-RHF Final Energy:  -464.67791054163251

   => Energetics <=

    Nuclear Repulsion Energy =            501.3716868552489814
    One-Electron Energy =               -1625.6282281171049817
    Two-Electron Energy =                 659.5786307202234866
    Total Energy =                       -464.6779105416325137
  Basis Set: (AUG-CC-PVTZ AUX)
    Blend: AUG-CC-PVTZ-RI
    Molecular point group: c1

    Geometry (in Angstrom), charge = 0, multiplicity = 1:

       Center              X                  Y                   Z               Mass
    ------------   -----------------  -----------------  -----------------  -----------------
         N            1.952679762486     0.506872380100     0.000005263110    14.003074004430
         C            1.229509762486    -0.624478619900    -0.000002736890    12.000000000000
         C           -0.177643237514    -0.534414619900    -0.000010736890    12.000000000000
         C           -0.716683737514     0.805846080100    -0.000002436890    12.000000000000
         N           -0.026679237514     1.916053380100     0.000005263110    14.003074004430
         C            1.292406762486     1.687304380100     0.000012263110    12.000000000000
         N           -1.163883237514    -1.501126619900    -0.000016736890    14.003074004430
         C           -2.284260237514    -0.791539619900     0.000044263110    12.000000000000
         N           -2.073449237514     0.564122380100    -0.000022736890    14.003074004430
         N            1.867734762486    -1.817280619900    -0.000005736890    14.003074004430
         H            1.927946762486     2.570358380100     0.000002263110     1.007825032230
         H           -3.281877237514    -1.212768619900     0.000068263110     1.007825032230
         H           -2.773988237514     1.296212380100    -0.000083736890     1.007825032230
         H            2.876867762486    -1.835237619900     0.000009263110     1.007825032230
         H            1.339060762486    -2.676590619900     0.000002263110     1.007825032230

  Basis Set: AUG-CC-PVTZ
    Blend: AUG-CC-PVTZ
  Basis Set: (AUG-CC-PVTZ AUX)
    Blend: AUG-CC-PVTZ-JKFIT
	 Reference Energy          =    -464.6779105416325137 [Eh]
	 Singles Energy            =      -0.0000000000000000 [Eh]
	 Same-Spin Energy          =      -0.5070240820403650 [Eh]
	 Opposite-Spin Energy      =      -1.4766013752356604 [Eh]
	 Correlation Energy        =      -1.9836254572760255 [Eh]
	 Total Energy              =    -466.6615359989085619 [Eh]

	 ================> DF-SCS-MP2 Energies <==================
	-----------------------------------------------------------
	 SCS Same-Spin Scale       =       0.3333333333333333 [-]
	 SCS Opposite-Spin Scale   =       1.2000000000000000 [-]
	 SCS Same-Spin Energy      =      -0.1690080273467883 [Eh]
	 SCS Opposite-Spin Energy  =      -1.7719216502827924 [Eh]
	 SCS Correlation Energy    =      -1.9409296776295806 [Eh]
	 SCS Total Energy          =    -466.6188402192620970 [Eh]
	-----------------------------------------------------------

  Dipole Moment: [D]
     X:    -2.3000      Y:    -1.1082      Z:    -0.0000     Total:     2.5531

*** Psi4 exiting successfully. Buy a developer a beer!
