                               Psi4 1.3.2 release

  ==> Input File <==

--------------------------------------------------------------------------
#psi4
#
memory 32 gb

molecule  {
0 1
  N        1.9483950     0.5259860     0.0099940
  C        1.2281250    -0.6055780    -0.0011110
  C       -0.1777080    -0.5183570    -0.0133480
  C       -0.7121930     0.7746180    -0.0067610
  N       -0.0315150     1.9321470    -0.0030770
  C        1.2882650     1.7066530     0.0061850
  N       -1.1633520    -1.4857590     0.0015620
  C       -2.2839740    -0.7772230     0.0077650
  N       -2.0759200     0.5789190     0.0016180
  N        1.8765300    -1.8041700    -0.0655800
  H        1.9224110     2.5904960     0.0146870
  H       -3.2809510    -1.1999800     0.0170960
  H       -2.7638595     1.2954361     0.0041383
  H        2.8553720    -1.7872280     0.1925460
  H        1.3468110    -2.6236890     0.2034770
units angstrom
no_reorient  #important for SAPT in psi4, default
symmetry c1  #important for SAPT in psi4, default
}

set PROPERTIES_ORIGIN ["COM"]
properties('MP2/aug-cc-pvtz', properties = ['dipole'])
--------------------------------------------------------------------------

    Molecular point group: c1
  Charge       = 0
  Multiplicity = 1
  Basis Set: AUG-CC-PVTZ
    Blend: AUG-CC-PVTZ
  Basis Set: (AUG-CC-PVTZ AUX)
    Blend: AUG-CC-PVTZ-JKFIT

    Orbital Energies [Eh]
    ---------------------

    Doubly Occupied:

       1A    -15.634567     2A    -15.584253     3A    -15.573041
       4A    -15.562750     5A    -15.554441     6A    -11.338208
       7A    -11.328714     8A    -11.320472     9A    -11.314072
      10A    -11.255228    11A     -1.368930    12A     -1.298654
      13A     -1.245770    14A     -1.188410    15A     -1.153105
      16A     -1.033795    17A     -0.895274    18A     -0.877922
      19A     -0.851139    20A     -0.777433    21A     -0.735316
      22A     -0.698433    23A     -0.674344    24A     -0.640515
      25A     -0.632061    26A     -0.612151    27A     -0.591685
      28A     -0.557908    29A     -0.499074    30A     -0.498549
      31A     -0.454496    32A     -0.427897    33A     -0.412161
      34A     -0.375500    35A     -0.311452

  @DF-RHF Final Energy:  -464.68215627496409

   => Energetics <=

    Nuclear Repulsion Energy =            501.8057297933278846
    One-Electron Energy =               -1626.4203371410355885
    Two-Electron Energy =                 659.9324510727436746
    Total Energy =                       -464.6821562749640862
  Basis Set: (AUG-CC-PVTZ AUX)
    Blend: AUG-CC-PVTZ-RI
    Molecular point group: c1

    Geometry (in Angstrom), charge = 0, multiplicity = 1:

       Center              X                  Y                   Z               Mass
    ------------   -----------------  -----------------  -----------------  -----------------
         N            1.948763568027     0.513532968749     0.013169372107    14.003074004430
         C            1.228493568027    -0.618031031251     0.002064372107    12.000000000000
         C           -0.177339431973    -0.530810031251    -0.010172627893    12.000000000000
         C           -0.711824431973     0.762164968749    -0.003585627893    12.000000000000
         N           -0.031146431973     1.919693968749     0.000098372107    14.003074004430
         C            1.288633568027     1.694199968749     0.009360372107    12.000000000000
         N           -1.162983431973    -1.498212031251     0.004737372107    14.003074004430
         C           -2.283605431973    -0.789676031251     0.010940372107    12.000000000000
         N           -2.075551431973     0.566465968749     0.004793372107    14.003074004430
         N            1.876898568027    -1.816623031251    -0.062404627893    14.003074004430
         H            1.922779568027     2.578042968749     0.017862372107     1.007825032230
         H           -3.280582431973    -1.212433031251     0.020271372107     1.007825032230
         H           -2.763490931973     1.282983068749     0.007313672107     1.007825032230
         H            2.855740568027    -1.799681031251     0.195721372107     1.007825032230
         H            1.347179568027    -2.636142031251     0.206652372107     1.007825032230

  Basis Set: AUG-CC-PVTZ
    Blend: AUG-CC-PVTZ
  Basis Set: (AUG-CC-PVTZ AUX)
    Blend: AUG-CC-PVTZ-JKFIT
	 Reference Energy          =    -464.6821562749640862 [Eh]
	 Singles Energy            =      -0.0000000000000000 [Eh]
	 Same-Spin Energy          =      -0.5061762372301838 [Eh]
	 Opposite-Spin Energy      =      -1.4761162293217709 [Eh]
	 Correlation Energy        =      -1.9822924665519546 [Eh]
	 Total Energy              =    -466.6644487415160256 [Eh]

	 ================> DF-SCS-MP2 Energies <==================
	-----------------------------------------------------------
	 SCS Same-Spin Scale       =       0.3333333333333333 [-]
	 SCS Opposite-Spin Scale   =       1.2000000000000000 [-]
	 SCS Same-Spin Energy      =      -0.1687254124100613 [Eh]
	 SCS Opposite-Spin Energy  =      -1.7713394751861251 [Eh]
	 SCS Correlation Energy    =      -1.9400648875961863 [Eh]
	 SCS Total Energy          =    -466.6222211625602654 [Eh]
	-----------------------------------------------------------

  Dipole Moment: [D]
     X:    -2.4416      Y:    -0.8827      Z:     0.7200     Total:     2.6943

*** Psi4 exiting successfully. Buy a developer a beer!
