                               Psi4 1.4a3.dev225

  ==> Input File <==

--------------------------------------------------------------------------
#psi4
#
memory 32 gb

molecule  {
0 1
  N        1.9483950     0.5259860     0.0099940
  C        1.2281250    -0.6055780    -0.0011110
  C       -0.1777080    -0.5183570    -0.0133480
  C       -0.7121930     0.7746180    -0.0067610
  N       -0.0315150     1.9321470    -0.0030770
  C        1.2882650     1.7066530     0.0061850
  N       -1.1633520    -1.4857590     0.0015620
  C       -2.2839740    -0.7772230     0.0077650
  N       -2.0759200     0.5789190     0.0016180
  N        1.8765300    -1.8041700    -0.0655800
  H        1.9224110     2.5904960     0.0146870
  H       -3.2809510    -1.1999800     0.0170960
  H       -2.8123397     1.3459302     0.0043159
  H        2.8553720    -1.7872280     0.1925460
  H        1.3468110    -2.6236890     0.2034770
units angstrom
no_reorient  #important for SAPT in psi4, default
symmetry c1  #important for SAPT in psi4, default
}

set PROPERTIES_ORIGIN ["COM"]
properties('MP2/aug-cc-pvtz', properties = ['dipole'])
--------------------------------------------------------------------------

    Molecular point group: c1
  Charge       = 0
  Multiplicity = 1
  Basis Set: AUG-CC-PVTZ
    Blend: AUG-CC-PVTZ
  Basis Set: (AUG-CC-PVTZ AUX)
    Blend: AUG-CC-PVTZ-JKFIT

    Orbital Energies [Eh]
    ---------------------

    Doubly Occupied:

       1A    -15.640001     2A    -15.583901     3A    -15.572340
       4A    -15.562290     5A    -15.553975     6A    -11.337799
       7A    -11.328110     8A    -11.319961     9A    -11.313627
      10A    -11.254843    11A     -1.366187    12A     -1.297636
      13A     -1.245193    14A     -1.183352    15A     -1.151551
      16A     -1.033070    17A     -0.894018    18A     -0.875357
      19A     -0.839351    20A     -0.773994    21A     -0.732939
      22A     -0.695473    23A     -0.673678    24A     -0.639338
      25A     -0.629700    26A     -0.610621    27A     -0.590538
      28A     -0.557164    29A     -0.498357    30A     -0.498011
      31A     -0.453908    32A     -0.426833    33A     -0.411639
      34A     -0.374758    35A     -0.310959

  @DF-RHF Final Energy:  -464.67777028142478

   => Energetics <=

    Nuclear Repulsion Energy =            501.3738522527402779
    One-Electron Energy =               -1625.6423021670989328
    Two-Electron Energy =                 659.5906796329338704
    Total Energy =                       -464.6777702814247277
  Basis Set: (AUG-CC-PVTZ AUX)
    Blend: AUG-CC-PVTZ-RI
    Molecular point group: c1

    Geometry (in Angstrom), charge = 0, multiplicity = 1:

       Center              X                  Y                   Z               Mass
    ------------   -----------------  -----------------  -----------------  -----------------
         N            1.949125344650     0.513156163684     0.013168046792    14.003074004430
         C            1.228855344650    -0.618407836316     0.002063046792    12.000000000000
         C           -0.176977655350    -0.531186836316    -0.010173953208    12.000000000000
         C           -0.711462655350     0.761788163684    -0.003586953208    12.000000000000
         N           -0.030784655350     1.919317163684     0.000097046792    14.003074004430
         C            1.288995344650     1.693823163684     0.009359046792    12.000000000000
         N           -1.162621655350    -1.498588836316     0.004736046792    14.003074004430
         C           -2.283243655350    -0.790052836316     0.010939046792    12.000000000000
         N           -2.075189655350     0.566089163684     0.004792046792    14.003074004430
         N            1.877260344650    -1.816999836316    -0.062405953208    14.003074004430
         H            1.923141344650     2.577666163684     0.017861046792     1.007825032230
         H           -3.280220655350    -1.212809836316     0.020270046792     1.007825032230
         H           -2.811609355350     1.333100363684     0.007489946792     1.007825032230
         H            2.856102344650    -1.800057836316     0.195720046792     1.007825032230
         H            1.347541344650    -2.636518836316     0.206651046792     1.007825032230

  Basis Set: AUG-CC-PVTZ
    Blend: AUG-CC-PVTZ
  Basis Set: (AUG-CC-PVTZ AUX)
    Blend: AUG-CC-PVTZ-JKFIT
	 Reference Energy          =    -464.6777702814247846 [Eh]
	 Singles Energy            =      -0.0000000000000000 [Eh]
	 Same-Spin Energy          =      -0.5067847282611196 [Eh]
	 Opposite-Spin Energy      =      -1.4774389237436925 [Eh]
	 Correlation Energy        =      -1.9842236520048120 [Eh]
	 Total Energy              =    -466.6619939334295850 [Eh]

	 ================> DF-SCS-MP2 Energies <==================
	-----------------------------------------------------------
	 SCS Same-Spin Scale       =       0.3333333333333333 [-]
	 SCS Opposite-Spin Scale   =       1.2000000000000000 [-]
	 SCS Same-Spin Energy      =      -0.1689282427537065 [Eh]
	 SCS Opposite-Spin Energy  =      -1.7729267084924309 [Eh]
	 SCS Correlation Energy    =      -1.9418549512461374 [Eh]
	 SCS Total Energy          =    -466.6196252326708986 [Eh]
	-----------------------------------------------------------

  Dipole Moment: [D]
     X:    -2.5174      Y:    -0.8132      Z:     0.7201     Total:     2.7418

*** Psi4 exiting successfully. Buy a developer a beer!
