                               Psi4 1.3.2 release

  ==> Input File <==

--------------------------------------------------------------------------
#psi4
#
memory 32 gb

molecule  {
0 1
  N        1.9514160     0.5241040     0.0000050
  C        1.2282460    -0.6072470    -0.0000030
  C       -0.1789070    -0.5171830    -0.0000110
  C       -0.6279183     0.7307986     0.0000004
  N       -0.0279430     1.9332850     0.0000050
  C        1.2911430     1.7045360     0.0000120
  N       -1.1651470    -1.4838950    -0.0000170
  C       -2.2855240    -0.7743080     0.0000440
  N       -2.0747130     0.5813540    -0.0000230
  N        1.8664710    -1.8000490    -0.0000060
  H        1.9266830     2.5875900     0.0000020
  H       -3.2831410    -1.1955370     0.0000680
  H       -2.7752520     1.3134440    -0.0000840
  H        2.8756040    -1.8180060     0.0000090
  H        1.3377970    -2.6593590     0.0000020
units angstrom
no_reorient  #important for SAPT in psi4, default
symmetry c1  #important for SAPT in psi4, default
}

set PROPERTIES_ORIGIN ["COM"]
properties('MP2/aug-cc-pvtz', properties = ['dipole'])
--------------------------------------------------------------------------

    Molecular point group: c1
  Charge       = 0
  Multiplicity = 1
  Basis Set: AUG-CC-PVTZ
    Blend: AUG-CC-PVTZ
  Basis Set: (AUG-CC-PVTZ AUX)
    Blend: AUG-CC-PVTZ-JKFIT

    Orbital Energies [Eh]
    ---------------------

    Doubly Occupied:

       1A    -15.624732     2A    -15.589232     3A    -15.565884
       4A    -15.562899     5A    -15.553669     6A    -11.342723
       7A    -11.327743     8A    -11.313935     9A    -11.313434
      10A    -11.250442    11A     -1.357659    12A     -1.299073
      13A     -1.248846    14A     -1.175806    15A     -1.151408
      16A     -1.045277    17A     -0.893066    18A     -0.872803
      19A     -0.844924    20A     -0.775970    21A     -0.735816
      22A     -0.703139    23A     -0.670289    24A     -0.635034
      25A     -0.630930    26A     -0.617074    27A     -0.575377
      28A     -0.556122    29A     -0.500280    30A     -0.498309
      31A     -0.455837    32A     -0.417751    33A     -0.417473
      34A     -0.380340    35A     -0.315088

  @DF-RHF Final Energy:  -464.67251030350781

   => Energetics <=

    Nuclear Repulsion Energy =            502.6430470602247169
    One-Electron Energy =               -1628.1943446001600933
    Two-Electron Energy =                 660.8787872364275700
    Total Energy =                       -464.6725103035078064
  Basis Set: (AUG-CC-PVTZ AUX)
    Blend: AUG-CC-PVTZ-RI
    Molecular point group: c1

    Geometry (in Angstrom), charge = 0, multiplicity = 1:

       Center              X                  Y                   Z               Mass
    ------------   -----------------  -----------------  -----------------  -----------------
         N            1.944680396019     0.515071656980     0.000004987665    14.003074004430
         C            1.221510396019    -0.616279343020    -0.000003012335    12.000000000000
         C           -0.185642603981    -0.526215343020    -0.000011012335    12.000000000000
         C           -0.634653903981     0.721766256980     0.000000387665    12.000000000000
         N           -0.034678603981     1.924252656980     0.000004987665    14.003074004430
         C            1.284407396019     1.695503656980     0.000011987665    12.000000000000
         N           -1.171882603981    -1.492927343020    -0.000017012335    14.003074004430
         C           -2.292259603981    -0.783340343020     0.000043987665    12.000000000000
         N           -2.081448603981     0.572321656980    -0.000023012335    14.003074004430
         N            1.859735396019    -1.809081343020    -0.000006012335    14.003074004430
         H            1.919947396019     2.578557656980     0.000001987665     1.007825032230
         H           -3.289876603981    -1.204569343020     0.000067987665     1.007825032230
         H           -2.781987603981     1.304411656980    -0.000084012335     1.007825032230
         H            2.868868396019    -1.827038343020     0.000008987665     1.007825032230
         H            1.331061396019    -2.668391343020     0.000001987665     1.007825032230

  Basis Set: AUG-CC-PVTZ
    Blend: AUG-CC-PVTZ
  Basis Set: (AUG-CC-PVTZ AUX)
    Blend: AUG-CC-PVTZ-JKFIT
	 Reference Energy          =    -464.6725103035078064 [Eh]
	 Singles Energy            =      -0.0000000000000000 [Eh]
	 Same-Spin Energy          =      -0.5056061292000535 [Eh]
	 Opposite-Spin Energy      =      -1.4763763632484805 [Eh]
	 Correlation Energy        =      -1.9819824924485341 [Eh]
	 Total Energy              =    -466.6544927959563438 [Eh]

	 ================> DF-SCS-MP2 Energies <==================
	-----------------------------------------------------------
	 SCS Same-Spin Scale       =       0.3333333333333333 [-]
	 SCS Opposite-Spin Scale   =       1.2000000000000000 [-]
	 SCS Same-Spin Energy      =      -0.1685353764000178 [Eh]
	 SCS Opposite-Spin Energy  =      -1.7716516358981766 [Eh]
	 SCS Correlation Energy    =      -1.9401870122981946 [Eh]
	 SCS Total Energy          =    -466.6126973158059741 [Eh]
	-----------------------------------------------------------

  Dipole Moment: [D]
     X:    -1.8944      Y:    -1.1804      Z:    -0.0000     Total:     2.2321

*** Psi4 exiting successfully. Buy a developer a beer!
