                               Psi4 1.4a3.dev225

  ==> Input File <==

--------------------------------------------------------------------------
#psi4
#
memory 32 gb

molecule  {
0 1
  N        1.9483950     0.5259860     0.0099940
  C        1.2281250    -0.6055780    -0.0011110
  C       -0.1777080    -0.5183570    -0.0133480
  C       -0.7121930     0.7746180    -0.0067610
  N       -0.0315150     1.9321470    -0.0030770
  C        1.2882650     1.7066530     0.0061850
  N       -1.1633520    -1.4857590     0.0015620
  C       -2.2839740    -0.7772230     0.0077650
  N       -2.0759200     0.5789190     0.0016180
  N        1.8527660    -1.7602417    -0.0632172
  H        1.9224110     2.5904960     0.0146870
  H       -3.2809510    -1.1999800     0.0170960
  H       -2.7777110     1.3098630     0.0041890
  H        2.8553720    -1.7872280     0.1925460
  H        1.3468110    -2.6236890     0.2034770
units angstrom
no_reorient  #important for SAPT in psi4, default
symmetry c1  #important for SAPT in psi4, default
}

set PROPERTIES_ORIGIN ["COM"]
properties('MP2/aug-cc-pvtz', properties = ['dipole'])
--------------------------------------------------------------------------

    Molecular point group: c1
  Charge       = 0
  Multiplicity = 1
  Basis Set: AUG-CC-PVTZ
    Blend: AUG-CC-PVTZ
  Basis Set: (AUG-CC-PVTZ AUX)
    Blend: AUG-CC-PVTZ-JKFIT

    Orbital Energies [Eh]
    ---------------------

    Doubly Occupied:

       1A    -15.634139     2A    -15.590404     3A    -15.571302
       4A    -15.558339     5A    -15.549918     6A    -11.333674
       7A    -11.326052     8A    -11.317463     9A    -11.311733
      10A    -11.251473    11A     -1.366068    12A     -1.302849
      13A     -1.251222    14A     -1.186367    15A     -1.150601
      16A     -1.030491    17A     -0.893134    18A     -0.876155
      19A     -0.845679    20A     -0.780103    21A     -0.738837
      22A     -0.693519    23A     -0.671935    24A     -0.639717
      25A     -0.633307    26A     -0.605011    27A     -0.588512
      28A     -0.563041    29A     -0.500514    30A     -0.496384
      31A     -0.451798    32A     -0.426463    33A     -0.409665
      34A     -0.373134    35A     -0.307248

  @DF-RHF Final Energy:  -464.67812350095363

   => Energetics <=

    Nuclear Repulsion Energy =            502.9401241000672940
    One-Electron Energy =               -1628.7839940194130577
    Two-Electron Energy =                 661.1657464183920183
    Total Energy =                       -464.6781235009536886
  Basis Set: (AUG-CC-PVTZ AUX)
    Blend: AUG-CC-PVTZ-RI
    Molecular point group: c1

    Geometry (in Angstrom), charge = 0, multiplicity = 1:

       Center              X                  Y                   Z               Mass
    ------------   -----------------  -----------------  -----------------  -----------------
         N            1.951330894192     0.508870620962     0.012924007745    14.003074004430
         C            1.231060894192    -0.622693379038     0.001819007745    12.000000000000
         C           -0.174772105808    -0.535472379038    -0.010417992255    12.000000000000
         C           -0.709257105808     0.757502620962    -0.003830992255    12.000000000000
         N           -0.028579105808     1.915031620962    -0.000146992255    14.003074004430
         C            1.291200894192     1.689537620962     0.009115007745    12.000000000000
         N           -1.160416105808    -1.502874379038     0.004492007745    14.003074004430
         C           -2.281038105808    -0.794338379038     0.010695007745    12.000000000000
         N           -2.072984105808     0.561803620962     0.004548007745    14.003074004430
         N            1.855701894192    -1.777357079038    -0.060287192255    14.003074004430
         H            1.925346894192     2.573380620962     0.017617007745     1.007825032230
         H           -3.278015105808    -1.217095379038     0.020026007745     1.007825032230
         H           -2.774775105808     1.292747620962     0.007119007745     1.007825032230
         H            2.858307894192    -1.804343379038     0.195476007745     1.007825032230
         H            1.349746894192    -2.640804379038     0.206407007745     1.007825032230

  Basis Set: AUG-CC-PVTZ
    Blend: AUG-CC-PVTZ
  Basis Set: (AUG-CC-PVTZ AUX)
    Blend: AUG-CC-PVTZ-JKFIT
	 Reference Energy          =    -464.6781235009536317 [Eh]
	 Singles Energy            =      -0.0000000000000000 [Eh]
	 Same-Spin Energy          =      -0.5066546722310490 [Eh]
	 Opposite-Spin Energy      =      -1.4766965859282362 [Eh]
	 Correlation Energy        =      -1.9833512581592851 [Eh]
	 Total Energy              =    -466.6614747591129344 [Eh]

	 ================> DF-SCS-MP2 Energies <==================
	-----------------------------------------------------------
	 SCS Same-Spin Scale       =       0.3333333333333333 [-]
	 SCS Opposite-Spin Scale   =       1.2000000000000000 [-]
	 SCS Same-Spin Energy      =      -0.1688848907436830 [Eh]
	 SCS Opposite-Spin Energy  =      -1.7720359031138833 [Eh]
	 SCS Correlation Energy    =      -1.9409207938575663 [Eh]
	 SCS Total Energy          =    -466.6190442948112036 [Eh]
	-----------------------------------------------------------

  Dipole Moment: [D]
     X:    -2.2324      Y:    -1.1972      Z:     0.6963     Total:     2.6271

*** Psi4 exiting successfully. Buy a developer a beer!
