                               Psi4 1.3.2 release

  ==> Input File <==

--------------------------------------------------------------------------
#psi4
#
memory 32 gb

molecule  {
0 1
  N        1.9514160     0.5241040     0.0000050
  C        1.2282460    -0.6072470    -0.0000030
  C       -0.1789070    -0.5171830    -0.0000110
  C       -0.7043908     0.7278457     0.0000027
  N       -0.0279430     1.9332850     0.0000050
  C        1.2911430     1.7045360     0.0000120
  N       -1.1651470    -1.4838950    -0.0000170
  C       -2.2855240    -0.7743080     0.0000440
  N       -2.0747130     0.5813540    -0.0000230
  N        1.8664710    -1.8000490    -0.0000060
  H        1.9266830     2.5875900     0.0000020
  H       -3.2831410    -1.1955370     0.0000680
  H       -2.7752520     1.3134440    -0.0000840
  H        2.8756040    -1.8180060     0.0000090
  H        1.3377970    -2.6593590     0.0000020
units angstrom
no_reorient  #important for SAPT in psi4, default
symmetry c1  #important for SAPT in psi4, default
}

set PROPERTIES_ORIGIN ["COM"]
properties('MP2/aug-cc-pvtz', properties = ['dipole'])
--------------------------------------------------------------------------

    Molecular point group: c1
  Charge       = 0
  Multiplicity = 1
  Basis Set: AUG-CC-PVTZ
    Blend: AUG-CC-PVTZ
  Basis Set: (AUG-CC-PVTZ AUX)
    Blend: AUG-CC-PVTZ-JKFIT

    Orbital Energies [Eh]
    ---------------------

    Doubly Occupied:

       1A    -15.633905     2A    -15.588486     3A    -15.570516
       4A    -15.559876     5A    -15.549931     6A    -11.341961
       7A    -11.326614     8A    -11.313690     9A    -11.310328
      10A    -11.250222    11A     -1.368654    12A     -1.296698
      13A     -1.240420    14A     -1.185666    15A     -1.145984
      16A     -1.038920    17A     -0.896338    18A     -0.870807
      19A     -0.848927    20A     -0.778446    21A     -0.739492
      22A     -0.701279    23A     -0.669515    24A     -0.639196
      25A     -0.633571    26A     -0.618717    27A     -0.586162
      28A     -0.558810    29A     -0.495408    30A     -0.492471
      31A     -0.452210    32A     -0.423975    33A     -0.411622
      34A     -0.371865    35A     -0.314279

  @DF-RHF Final Energy:  -464.67964120197252

   => Energetics <=

    Nuclear Repulsion Energy =            502.2762357462798946
    One-Electron Energy =               -1627.4618287144264741
    Two-Electron Energy =                 660.5059517661738937
    Total Energy =                       -464.6796412019725722
  Basis Set: (AUG-CC-PVTZ AUX)
    Blend: AUG-CC-PVTZ-RI
    Molecular point group: c1

    Geometry (in Angstrom), charge = 0, multiplicity = 1:

       Center              X                  Y                   Z               Mass
    ------------   -----------------  -----------------  -----------------  -----------------
         N            1.951475208726     0.515334031068     0.000004783303    14.003074004430
         C            1.228305208726    -0.616016968932    -0.000003216697    12.000000000000
         C           -0.178847791274    -0.525952968932    -0.000011216697    12.000000000000
         C           -0.704331591274     0.719075731068     0.000002483303    12.000000000000
         N           -0.027883791274     1.924515031068     0.000004783303    14.003074004430
         C            1.291202208726     1.695766031068     0.000011783303    12.000000000000
         N           -1.165087791274    -1.492664968932    -0.000017216697    14.003074004430
         C           -2.285464791274    -0.783077968932     0.000043783303    12.000000000000
         N           -2.074653791274     0.572584031068    -0.000023216697    14.003074004430
         N            1.866530208726    -1.808818968932    -0.000006216697    14.003074004430
         H            1.926742208726     2.578820031068     0.000001783303     1.007825032230
         H           -3.283081791274    -1.204306968932     0.000067783303     1.007825032230
         H           -2.775192791274     1.304674031068    -0.000084216697     1.007825032230
         H            2.875663208726    -1.826775968932     0.000008783303     1.007825032230
         H            1.337856208726    -2.668128968932     0.000001783303     1.007825032230

  Basis Set: AUG-CC-PVTZ
    Blend: AUG-CC-PVTZ
  Basis Set: (AUG-CC-PVTZ AUX)
    Blend: AUG-CC-PVTZ-JKFIT
	 Reference Energy          =    -464.6796412019725153 [Eh]
	 Singles Energy            =      -0.0000000000000000 [Eh]
	 Same-Spin Energy          =      -0.5056315286053382 [Eh]
	 Opposite-Spin Energy      =      -1.4762034712712278 [Eh]
	 Correlation Energy        =      -1.9818349998765661 [Eh]
	 Total Energy              =    -466.6614762018490978 [Eh]

	 ================> DF-SCS-MP2 Energies <==================
	-----------------------------------------------------------
	 SCS Same-Spin Scale       =       0.3333333333333333 [-]
	 SCS Opposite-Spin Scale   =       1.2000000000000000 [-]
	 SCS Same-Spin Energy      =      -0.1685438428684461 [Eh]
	 SCS Opposite-Spin Energy  =      -1.7714441655254733 [Eh]
	 SCS Correlation Energy    =      -1.9399880083939194 [Eh]
	 SCS Total Energy          =    -466.6196292103664405 [Eh]
	-----------------------------------------------------------

  Dipole Moment: [D]
     X:    -2.2093      Y:    -1.2532      Z:    -0.0000     Total:     2.5400

*** Psi4 exiting successfully. Buy a developer a beer!
