                               Psi4 1.3.2 release

  ==> Input File <==

--------------------------------------------------------------------------
#psi4
#
memory 32 gb

molecule  {
0 1
  N        1.9514160     0.5241040     0.0000050
  C        1.2282460    -0.6072470    -0.0000030
  C       -0.1789070    -0.5171830    -0.0000110
  C       -0.7103380     0.7755800     0.0000000
  N       -0.0279430     1.9332850     0.0000050
  C        1.2911430     1.7045360     0.0000120
  N       -1.2454566    -1.5971191    -0.0000065
  C       -2.2855240    -0.7743080     0.0000440
  N       -2.0747130     0.5813540    -0.0000230
  N        1.8664710    -1.8000490    -0.0000060
  H        1.9266830     2.5875900     0.0000020
  H       -3.2831410    -1.1955370     0.0000680
  H       -2.7752520     1.3134440    -0.0000840
  H        2.8756040    -1.8180060     0.0000090
  H        1.3377970    -2.6593590     0.0000020
units angstrom
no_reorient  #important for SAPT in psi4, default
symmetry c1  #important for SAPT in psi4, default
}

set PROPERTIES_ORIGIN ["COM"]
properties('MP2/aug-cc-pvtz', properties = ['dipole'])
--------------------------------------------------------------------------

    Molecular point group: c1
  Charge       = 0
  Multiplicity = 1
  Basis Set: AUG-CC-PVTZ
    Blend: AUG-CC-PVTZ
  Basis Set: (AUG-CC-PVTZ AUX)
    Blend: AUG-CC-PVTZ-JKFIT

    Orbital Energies [Eh]
    ---------------------

    Doubly Occupied:

       1A    -15.635306     2A    -15.585993     3A    -15.585243
       4A    -15.562801     5A    -15.553273     6A    -11.339905
       7A    -11.331462     8A    -11.326278     9A    -11.316026
      10A    -11.260366    11A     -1.357843    12A     -1.297920
      13A     -1.244167    14A     -1.175646    15A     -1.150993
      16A     -1.034436    17A     -0.893138    18A     -0.876416
      19A     -0.841749    20A     -0.779341    21A     -0.735189
      22A     -0.700554    23A     -0.669183    24A     -0.634000
      25A     -0.625994    26A     -0.604371    27A     -0.579664
      28A     -0.559460    29A     -0.507173    30A     -0.496349
      31A     -0.449559    32A     -0.417288    33A     -0.416553
      34A     -0.373461    35A     -0.318796

  @DF-RHF Final Energy:  -464.66629258586636

   => Energetics <=

    Nuclear Repulsion Energy =            498.2238332149882467
    One-Electron Energy =               -1619.3084596013954979
    Two-Electron Energy =                 656.4183338005409496
    Total Energy =                       -464.6662925858663584
  Basis Set: (AUG-CC-PVTZ AUX)
    Blend: AUG-CC-PVTZ-RI
    Molecular point group: c1

    Geometry (in Angstrom), charge = 0, multiplicity = 1:

       Center              X                  Y                   Z               Mass
    ------------   -----------------  -----------------  -----------------  -----------------
         N            1.960330505771     0.522832292048     0.000003934518    14.003074004430
         C            1.237160505771    -0.608518707952    -0.000004065482    12.000000000000
         C           -0.169992494229    -0.518454707952    -0.000012065482    12.000000000000
         C           -0.701423494229     0.774308292048    -0.000001065482    12.000000000000
         N           -0.019028494229     1.932013292048     0.000003934518    14.003074004430
         C            1.300057505771     1.703264292048     0.000010934518    12.000000000000
         N           -1.236542094229    -1.598390807952    -0.000007565482    14.003074004430
         C           -2.276609494229    -0.775579707952     0.000042934518    12.000000000000
         N           -2.065798494229     0.580082292048    -0.000024065482    14.003074004430
         N            1.875385505771    -1.801320707952    -0.000007065482    14.003074004430
         H            1.935597505771     2.586318292048     0.000000934518     1.007825032230
         H           -3.274226494229    -1.196808707952     0.000066934518     1.007825032230
         H           -2.766337494229     1.312172292048    -0.000085065482     1.007825032230
         H            2.884518505771    -1.819277707952     0.000007934518     1.007825032230
         H            1.346711505771    -2.660630707952     0.000000934518     1.007825032230

  Basis Set: AUG-CC-PVTZ
    Blend: AUG-CC-PVTZ
  Basis Set: (AUG-CC-PVTZ AUX)
    Blend: AUG-CC-PVTZ-JKFIT
	 Reference Energy          =    -464.6662925858663584 [Eh]
	 Singles Energy            =      -0.0000000000000000 [Eh]
	 Same-Spin Energy          =      -0.5054099074620237 [Eh]
	 Opposite-Spin Energy      =      -1.4782224322231561 [Eh]
	 Correlation Energy        =      -1.9836323396851798 [Eh]
	 Total Energy              =    -466.6499249255515451 [Eh]

	 ================> DF-SCS-MP2 Energies <==================
	-----------------------------------------------------------
	 SCS Same-Spin Scale       =       0.3333333333333333 [-]
	 SCS Opposite-Spin Scale   =       1.2000000000000000 [-]
	 SCS Same-Spin Energy      =      -0.1684699691540079 [Eh]
	 SCS Opposite-Spin Energy  =      -1.7738669186677873 [Eh]
	 SCS Correlation Energy    =      -1.9423368878217953 [Eh]
	 SCS Total Energy          =    -466.6086294736881541 [Eh]
	-----------------------------------------------------------

  Dipole Moment: [D]
     X:    -2.0378      Y:    -0.9774      Z:    -0.0000     Total:     2.2601

*** Psi4 exiting successfully. Buy a developer a beer!
