                               Psi4 1.3.2 release

  ==> Input File <==

--------------------------------------------------------------------------
#psi4
#
memory 32 gb

molecule  {
0 1
  N        1.9514160     0.5241040     0.0000050
  C        1.2282460    -0.6072470    -0.0000030
  C       -0.1789070    -0.5171830    -0.0000110
  C       -0.7103380     0.7755800     0.0000000
  N       -0.0279430     1.9332850     0.0000050
  C        1.2911430     1.7045360     0.0000120
  N       -1.1651470    -1.4838950    -0.0000170
  C       -2.2855240    -0.7743080     0.0000440
  N       -2.0747130     0.5813540    -0.0000230
  N        1.8192934    -1.7118771    -0.0000058
  H        1.9266830     2.5875900     0.0000020
  H       -3.2831410    -1.1955370     0.0000680
  H       -2.7752520     1.3134440    -0.0000840
  H        2.8756040    -1.8180060     0.0000090
  H        1.3377970    -2.6593590     0.0000020
units angstrom
no_reorient  #important for SAPT in psi4, default
symmetry c1  #important for SAPT in psi4, default
}

set PROPERTIES_ORIGIN ["COM"]
properties('MP2/aug-cc-pvtz', properties = ['dipole'])
--------------------------------------------------------------------------

    Molecular point group: c1
  Charge       = 0
  Multiplicity = 1
  Basis Set: AUG-CC-PVTZ
    Blend: AUG-CC-PVTZ
  Basis Set: (AUG-CC-PVTZ AUX)
    Blend: AUG-CC-PVTZ-JKFIT

    Orbital Energies [Eh]
    ---------------------

    Doubly Occupied:

       1A    -15.630226     2A    -15.600459     3A    -15.568536
       4A    -15.550241     5A    -15.542393     6A    -11.328475
       7A    -11.321388     8A    -11.312064     9A    -11.307662
      10A    -11.245263    11A     -1.362480    12A     -1.312511
      13A     -1.254254    14A     -1.183862    15A     -1.146271
      16A     -1.025460    17A     -0.891543    18A     -0.873919
      19A     -0.842273    20A     -0.788394    21A     -0.743725
      22A     -0.689802    23A     -0.670248    24A     -0.636565
      25A     -0.634463    26A     -0.597894    27A     -0.582690
      28A     -0.571613    29A     -0.500092    30A     -0.491940
      31A     -0.447232    32A     -0.422529    33A     -0.405075
      34A     -0.369061    35A     -0.299415

  @DF-RHF Final Energy:  -464.66505589993915

   => Energetics <=

    Nuclear Repulsion Energy =            504.3912935222124361
    One-Electron Energy =               -1631.8126637012569518
    Two-Electron Energy =                 662.7563142791053679
    Total Energy =                       -464.6650558999391478
  Basis Set: (AUG-CC-PVTZ AUX)
    Blend: AUG-CC-PVTZ-RI
    Molecular point group: c1

    Geometry (in Angstrom), charge = 0, multiplicity = 1:

       Center              X                  Y                   Z               Mass
    ------------   -----------------  -----------------  -----------------  -----------------
         N            1.956895226943     0.501950624331     0.000005002470    14.003074004430
         C            1.233725226943    -0.629400375669    -0.000002997530    12.000000000000
         C           -0.173427773057    -0.539336375669    -0.000010997530    12.000000000000
         C           -0.704858773057     0.753426624331     0.000000002470    12.000000000000
         N           -0.022463773057     1.911131624331     0.000005002470    14.003074004430
         C            1.296622226943     1.682382624331     0.000012002470    12.000000000000
         N           -1.159667773057    -1.506048375669    -0.000016997530    14.003074004430
         C           -2.280044773057    -0.796461375669     0.000044002470    12.000000000000
         N           -2.069233773057     0.559200624331    -0.000022997530    14.003074004430
         N            1.824772626943    -1.734030475669    -0.000005797530    14.003074004430
         H            1.932162226943     2.565436624331     0.000002002470     1.007825032230
         H           -3.277661773057    -1.217690375669     0.000068002470     1.007825032230
         H           -2.769772773057     1.291290624331    -0.000083997530     1.007825032230
         H            2.881083226943    -1.840159375669     0.000009002470     1.007825032230
         H            1.343276226943    -2.681512375669     0.000002002470     1.007825032230

  Basis Set: AUG-CC-PVTZ
    Blend: AUG-CC-PVTZ
  Basis Set: (AUG-CC-PVTZ AUX)
    Blend: AUG-CC-PVTZ-JKFIT
	 Reference Energy          =    -464.6650558999391478 [Eh]
	 Singles Energy            =      -0.0000000000000000 [Eh]
	 Same-Spin Energy          =      -0.5069631179234588 [Eh]
	 Opposite-Spin Energy      =      -1.4771139049532316 [Eh]
	 Correlation Energy        =      -1.9840770228766904 [Eh]
	 Total Energy              =    -466.6491329228158520 [Eh]

	 ================> DF-SCS-MP2 Energies <==================
	-----------------------------------------------------------
	 SCS Same-Spin Scale       =       0.3333333333333333 [-]
	 SCS Opposite-Spin Scale   =       1.2000000000000000 [-]
	 SCS Same-Spin Energy      =      -0.1689877059744863 [Eh]
	 SCS Opposite-Spin Energy  =      -1.7725366859438778 [Eh]
	 SCS Correlation Energy    =      -1.9415243919183640 [Eh]
	 SCS Total Energy          =    -466.6065802918575400 [Eh]
	-----------------------------------------------------------

  Dipole Moment: [D]
     X:    -1.7819      Y:    -1.8758      Z:    -0.0000     Total:     2.5873

*** Psi4 exiting successfully. Buy a developer a beer!
