                               Psi4 1.3.2 release

  ==> Input File <==

--------------------------------------------------------------------------
#psi4
#
memory 32 gb

molecule  {
0 1
  N        1.9514160     0.5241040     0.0000050
  C        1.2282460    -0.6072470    -0.0000030
  C       -0.1789070    -0.5171830    -0.0000110
  C       -0.7103380     0.7755800     0.0000000
  N       -0.0279430     1.9332850     0.0000050
  C        1.2911430     1.7045360     0.0000120
  N       -1.1651470    -1.4838950    -0.0000170
  C       -2.2855240    -0.7743080     0.0000440
  N       -2.0747130     0.5813540    -0.0000230
  N        1.9136486    -1.8882209    -0.0000062
  H        1.9266830     2.5875900     0.0000020
  H       -3.2831410    -1.1955370     0.0000680
  H       -2.7752520     1.3134440    -0.0000840
  H        2.8756040    -1.8180060     0.0000090
  H        1.3377970    -2.6593590     0.0000020
units angstrom
no_reorient  #important for SAPT in psi4, default
symmetry c1  #important for SAPT in psi4, default
}

set PROPERTIES_ORIGIN ["COM"]
properties('MP2/aug-cc-pvtz', properties = ['dipole'])
--------------------------------------------------------------------------

    Molecular point group: c1
  Charge       = 0
  Multiplicity = 1
  Basis Set: AUG-CC-PVTZ
    Blend: AUG-CC-PVTZ
  Basis Set: (AUG-CC-PVTZ AUX)
    Blend: AUG-CC-PVTZ-JKFIT

    Orbital Energies [Eh]
    ---------------------

    Doubly Occupied:

       1A    -15.638429     2A    -15.574618     3A    -15.572862
       4A    -15.567237     5A    -15.559755     6A    -11.346186
       7A    -11.331269     8A    -11.323425     9A    -11.316475
      10A    -11.259585    11A     -1.370273    12A     -1.294743
      13A     -1.234558    14A     -1.185618    15A     -1.154838
      16A     -1.037789    17A     -0.897612    18A     -0.877565
      19A     -0.850120    20A     -0.775310    21A     -0.736160
      22A     -0.710108    23A     -0.679462    24A     -0.640207
      25A     -0.627384    26A     -0.617534    27A     -0.592081
      28A     -0.551509    29A     -0.501343    30A     -0.491222
      31A     -0.457302    32A     -0.424581    33A     -0.414881
      34A     -0.376908    35A     -0.315069

  @DF-RHF Final Energy:  -464.66945151383152

   => Energetics <=

    Nuclear Repulsion Energy =            499.4661612593448012
    One-Electron Energy =               -1621.6631933927824321
    Two-Electron Energy =                 657.5275806196061694
    Total Energy =                       -464.6694515138315182
  Basis Set: (AUG-CC-PVTZ AUX)
    Blend: AUG-CC-PVTZ-RI
    Molecular point group: c1

    Geometry (in Angstrom), charge = 0, multiplicity = 1:

       Center              X                  Y                   Z               Mass
    ------------   -----------------  -----------------  -----------------  -----------------
         N            1.947112043892     0.520234764213     0.000005043943    14.003074004430
         C            1.223942043892    -0.611116235787    -0.000002956057    12.000000000000
         C           -0.183210956108    -0.521052235787    -0.000010956057    12.000000000000
         C           -0.714641956108     0.771710764213     0.000000043943    12.000000000000
         N           -0.032246956108     1.929415764213     0.000005043943    14.003074004430
         C            1.286839043892     1.700666764213     0.000012043943    12.000000000000
         N           -1.169450956108    -1.487764235787    -0.000016956057    14.003074004430
         C           -2.289827956108    -0.778177235787     0.000044043943    12.000000000000
         N           -2.079016956108     0.577484764213    -0.000022956057    14.003074004430
         N            1.909344643892    -1.892090135787    -0.000006156057    14.003074004430
         H            1.922379043892     2.583720764213     0.000002043943     1.007825032230
         H           -3.287444956108    -1.199406235787     0.000068043943     1.007825032230
         H           -2.779555956108     1.309574764213    -0.000083956057     1.007825032230
         H            2.871300043892    -1.821875235787     0.000009043943     1.007825032230
         H            1.333493043892    -2.663228235787     0.000002043943     1.007825032230

  Basis Set: AUG-CC-PVTZ
    Blend: AUG-CC-PVTZ
  Basis Set: (AUG-CC-PVTZ AUX)
    Blend: AUG-CC-PVTZ-JKFIT
	 Reference Energy          =    -464.6694515138315182 [Eh]
	 Singles Energy            =      -0.0000000000000000 [Eh]
	 Same-Spin Energy          =      -0.5061001972772020 [Eh]
	 Opposite-Spin Energy      =      -1.4765836565212673 [Eh]
	 Correlation Energy        =      -1.9826838537984695 [Eh]
	 Total Energy              =    -466.6521353676299668 [Eh]

	 ================> DF-SCS-MP2 Energies <==================
	-----------------------------------------------------------
	 SCS Same-Spin Scale       =       0.3333333333333333 [-]
	 SCS Opposite-Spin Scale   =       1.2000000000000000 [-]
	 SCS Same-Spin Energy      =      -0.1687000657590673 [Eh]
	 SCS Opposite-Spin Energy  =      -1.7719003878255208 [Eh]
	 SCS Correlation Energy    =      -1.9406004535845882 [Eh]
	 SCS Total Energy          =    -466.6100519674160978 [Eh]
	-----------------------------------------------------------

  Dipole Moment: [D]
     X:    -2.6907      Y:    -0.5490      Z:    -0.0000     Total:     2.7461

*** Psi4 exiting successfully. Buy a developer a beer!
