                               Psi4 1.3.2 release

  ==> Input File <==

--------------------------------------------------------------------------
#psi4
#
memory 32 gb

molecule  {
0 1
  N        2.0285735     0.4709023     0.0000053
  C        1.2282460    -0.6072470    -0.0000030
  C       -0.1789070    -0.5171830    -0.0000110
  C       -0.7103380     0.7755800     0.0000000
  N       -0.0279430     1.9332850     0.0000050
  C        1.2911430     1.7045360     0.0000120
  N       -1.1651470    -1.4838950    -0.0000170
  C       -2.2855240    -0.7743080     0.0000440
  N       -2.0747130     0.5813540    -0.0000230
  N        1.8664710    -1.8000490    -0.0000060
  H        1.9266830     2.5875900     0.0000020
  H       -3.2831410    -1.1955370     0.0000680
  H       -2.7752520     1.3134440    -0.0000840
  H        2.8756040    -1.8180060     0.0000090
  H        1.3377970    -2.6593590     0.0000020
units angstrom
no_reorient  #important for SAPT in psi4, default
symmetry c1  #important for SAPT in psi4, default
}

set PROPERTIES_ORIGIN ["COM"]
properties('MP2/aug-cc-pvtz', properties = ['dipole'])
--------------------------------------------------------------------------

    Molecular point group: c1
  Charge       = 0
  Multiplicity = 1
  Basis Set: AUG-CC-PVTZ
    Blend: AUG-CC-PVTZ
  Basis Set: (AUG-CC-PVTZ AUX)
    Blend: AUG-CC-PVTZ-JKFIT

    Orbital Energies [Eh]
    ---------------------

    Doubly Occupied:

       1A    -15.637375     2A    -15.579994     3A    -15.574085
       4A    -15.568048     5A    -15.560345     6A    -11.335696
       7A    -11.326980     8A    -11.323504     9A    -11.320659
      10A    -11.255089    11A     -1.367327    12A     -1.290321
      13A     -1.246358    14A     -1.185368    15A     -1.142514
      16A     -1.030534    17A     -0.887840    18A     -0.878471
      19A     -0.848437    20A     -0.775027    21A     -0.734379
      22A     -0.699492    23A     -0.668728    24A     -0.638223
      25A     -0.628482    26A     -0.613087    27A     -0.582416
      28A     -0.553899    29A     -0.500876    30A     -0.495993
      31A     -0.461969    32A     -0.423557    33A     -0.415601
      34A     -0.369016    35A     -0.309857

  @DF-RHF Final Energy:  -464.67043240252355

   => Energetics <=

    Nuclear Repulsion Energy =            499.9897867395327467
    One-Electron Energy =               -1622.8613423275048717
    Two-Electron Energy =                 658.2011231854485231
    Total Energy =                       -464.6704324025236019
  Basis Set: (AUG-CC-PVTZ AUX)
    Blend: AUG-CC-PVTZ-RI
    Molecular point group: c1

    Geometry (in Angstrom), charge = 0, multiplicity = 1:

       Center              X                  Y                   Z               Mass
    ------------   -----------------  -----------------  -----------------  -----------------
         N            2.021161089354     0.463407192316     0.000005292101    14.003074004430
         C            1.220833589354    -0.614742107684    -0.000003007899    12.000000000000
         C           -0.186319410646    -0.524678107684    -0.000011007899    12.000000000000
         C           -0.717750410646     0.768084892316    -0.000000007899    12.000000000000
         N           -0.035355410646     1.925789892316     0.000004992101    14.003074004430
         C            1.283730589354     1.697040892316     0.000011992101    12.000000000000
         N           -1.172559410646    -1.491390107684    -0.000017007899    14.003074004430
         C           -2.292936410646    -0.781803107684     0.000043992101    12.000000000000
         N           -2.082125410646     0.573858892316    -0.000023007899    14.003074004430
         N            1.859058589354    -1.807544107684    -0.000006007899    14.003074004430
         H            1.919270589354     2.580094892316     0.000001992101     1.007825032230
         H           -3.290553410646    -1.203032107684     0.000067992101     1.007825032230
         H           -2.782664410646     1.305948892316    -0.000084007899     1.007825032230
         H            2.868191589354    -1.825501107684     0.000008992101     1.007825032230
         H            1.330384589354    -2.666854107684     0.000001992101     1.007825032230

  Basis Set: AUG-CC-PVTZ
    Blend: AUG-CC-PVTZ
  Basis Set: (AUG-CC-PVTZ AUX)
    Blend: AUG-CC-PVTZ-JKFIT
	 Reference Energy          =    -464.6704324025235451 [Eh]
	 Singles Energy            =      -0.0000000000000000 [Eh]
	 Same-Spin Energy          =      -0.5068997954998123 [Eh]
	 Opposite-Spin Energy      =      -1.4791257908233535 [Eh]
	 Correlation Energy        =      -1.9860255863231657 [Eh]
	 Total Energy              =    -466.6564579888466824 [Eh]

	 ================> DF-SCS-MP2 Energies <==================
	-----------------------------------------------------------
	 SCS Same-Spin Scale       =       0.3333333333333333 [-]
	 SCS Opposite-Spin Scale   =       1.2000000000000000 [-]
	 SCS Same-Spin Energy      =      -0.1689665984999374 [Eh]
	 SCS Opposite-Spin Energy  =      -1.7749509489880242 [Eh]
	 SCS Correlation Energy    =      -1.9439175474879615 [Eh]
	 SCS Total Energy          =    -466.6143499500115013 [Eh]
	-----------------------------------------------------------

  Dipole Moment: [D]
     X:    -2.5164      Y:    -0.9719      Z:    -0.0000     Total:     2.6975

*** Psi4 exiting successfully. Buy a developer a beer!
