                               Psi4 1.3.2 release

  ==> Input File <==

--------------------------------------------------------------------------
#psi4
#
memory 32 gb

molecule  {
0 1
  N        1.9307141     0.5127604     0.0000047
  C        1.2282460    -0.6072470    -0.0000030
  C       -0.1789070    -0.5171830    -0.0000110
  C       -0.7103380     0.7755800     0.0000000
  N       -0.0279430     1.9332850     0.0000050
  C        1.2911430     1.7045360     0.0000120
  N       -1.1651470    -1.4838950    -0.0000170
  C       -2.2855240    -0.7743080     0.0000440
  N       -2.0747130     0.5813540    -0.0000230
  N        1.8664710    -1.8000490    -0.0000060
  H        1.9266830     2.5875900     0.0000020
  H       -3.2831410    -1.1955370     0.0000680
  H       -2.7752520     1.3134440    -0.0000840
  H        2.8756040    -1.8180060     0.0000090
  H        1.3377970    -2.6593590     0.0000020
units angstrom
no_reorient  #important for SAPT in psi4, default
symmetry c1  #important for SAPT in psi4, default
}

set PROPERTIES_ORIGIN ["COM"]
properties('MP2/aug-cc-pvtz', properties = ['dipole'])
--------------------------------------------------------------------------

    Molecular point group: c1
  Charge       = 0
  Multiplicity = 1
  Basis Set: AUG-CC-PVTZ
    Blend: AUG-CC-PVTZ
  Basis Set: (AUG-CC-PVTZ AUX)
    Blend: AUG-CC-PVTZ-JKFIT

    Orbital Energies [Eh]
    ---------------------

    Doubly Occupied:

       1A    -15.634242     2A    -15.583861     3A    -15.571086
       4A    -15.560238     5A    -15.548931     6A    -11.335951
       7A    -11.326061     8A    -11.316995     9A    -11.313332
      10A    -11.252250    11A     -1.366070    12A     -1.300335
      13A     -1.245077    14A     -1.185078    15A     -1.152748
      16A     -1.031744    17A     -0.894976    18A     -0.876609
      19A     -0.845998    20A     -0.779022    21A     -0.738185
      22A     -0.699222    23A     -0.676771    24A     -0.637800
      25A     -0.633411    26A     -0.612911    27A     -0.590996
      28A     -0.559720    29A     -0.497413    30A     -0.496265
      31A     -0.451919    32A     -0.423618    33A     -0.408850
      34A     -0.373262    35A     -0.307655

  @DF-RHF Final Energy:  -464.68242197073209

   => Energetics <=

    Nuclear Repulsion Energy =            502.4352285264929492
    One-Electron Energy =               -1627.7780951151942190
    Two-Electron Energy =                 660.6604446179692331
    Total Energy =                       -464.6824219707320935
  Basis Set: (AUG-CC-PVTZ AUX)
    Blend: AUG-CC-PVTZ-RI
    Molecular point group: c1

    Geometry (in Angstrom), charge = 0, multiplicity = 1:

       Center              X                  Y                   Z               Mass
    ------------   -----------------  -----------------  -----------------  -----------------
         N            1.933448204051     0.500925251126     0.000004754312    14.003074004430
         C            1.230980104051    -0.619082148874    -0.000002945688    12.000000000000
         C           -0.176172895949    -0.529018148874    -0.000010945688    12.000000000000
         C           -0.707603895949     0.763744851126     0.000000054312    12.000000000000
         N           -0.025208895949     1.921449851126     0.000005054312    14.003074004430
         C            1.293877104051     1.692700851126     0.000012054312    12.000000000000
         N           -1.162412895949    -1.495730148874    -0.000016945688    14.003074004430
         C           -2.282789895949    -0.786143148874     0.000044054312    12.000000000000
         N           -2.071978895949     0.569518851126    -0.000022945688    14.003074004430
         N            1.869205104051    -1.811884148874    -0.000005945688    14.003074004430
         H            1.929417104051     2.575754851126     0.000002054312     1.007825032230
         H           -3.280406895949    -1.207372148874     0.000068054312     1.007825032230
         H           -2.772517895949     1.301608851126    -0.000083945688     1.007825032230
         H            2.878338104051    -1.829841148874     0.000009054312     1.007825032230
         H            1.340531104051    -2.671194148874     0.000002054312     1.007825032230

  Basis Set: AUG-CC-PVTZ
    Blend: AUG-CC-PVTZ
  Basis Set: (AUG-CC-PVTZ AUX)
    Blend: AUG-CC-PVTZ-JKFIT
	 Reference Energy          =    -464.6824219707320935 [Eh]
	 Singles Energy            =      -0.0000000000000000 [Eh]
	 Same-Spin Energy          =      -0.5063516346439225 [Eh]
	 Opposite-Spin Energy      =      -1.4759587805783840 [Eh]
	 Correlation Energy        =      -1.9823104152223066 [Eh]
	 Total Energy              =    -466.6647323859543803 [Eh]

	 ================> DF-SCS-MP2 Energies <==================
	-----------------------------------------------------------
	 SCS Same-Spin Scale       =       0.3333333333333333 [-]
	 SCS Opposite-Spin Scale   =       1.2000000000000000 [-]
	 SCS Same-Spin Energy      =      -0.1687838782146408 [Eh]
	 SCS Opposite-Spin Energy  =      -1.7711505366940608 [Eh]
	 SCS Correlation Energy    =      -1.9399344149087017 [Eh]
	 SCS Total Energy          =    -466.6223563856407850 [Eh]
	-----------------------------------------------------------

  Dipole Moment: [D]
     X:    -2.2194      Y:    -1.1047      Z:    -0.0000     Total:     2.4791

*** Psi4 exiting successfully. Buy a developer a beer!
