                               Psi4 1.3.2 release

  ==> Input File <==

--------------------------------------------------------------------------
#psi4
#
memory 32 gb

molecule  {
0 1
  N        1.9514160     0.5241040     0.0000050
  C        1.2282460    -0.6072470    -0.0000030
  C       -0.1789070    -0.5171830    -0.0000110
  C       -0.7103380     0.7755800     0.0000000
  N       -0.0279430     1.9332850     0.0000050
  C        1.2911430     1.7045360     0.0000120
  N       -1.1651470    -1.4838950    -0.0000170
  C       -2.2855240    -0.7743080     0.0000440
  N       -2.0747130     0.5813540    -0.0000230
  N        1.8664710    -1.8000490    -0.0000060
  H        1.9266830     2.5875900     0.0000020
  H       -3.2831410    -1.1955370     0.0000680
  H       -2.9135253     1.4579449    -0.0000960
  H        2.8756040    -1.8180060     0.0000090
  H        1.3377970    -2.6593590     0.0000020
units angstrom
no_reorient  #important for SAPT in psi4, default
symmetry c1  #important for SAPT in psi4, default
}

set PROPERTIES_ORIGIN ["COM"]
properties('MP2/aug-cc-pvtz', properties = ['dipole'])
--------------------------------------------------------------------------

    Molecular point group: c1
  Charge       = 0
  Multiplicity = 1
  Basis Set: AUG-CC-PVTZ
    Blend: AUG-CC-PVTZ
  Basis Set: (AUG-CC-PVTZ AUX)
    Blend: AUG-CC-PVTZ-JKFIT

    Orbital Energies [Eh]
    ---------------------

    Doubly Occupied:

       1A    -15.647205     2A    -15.584637     3A    -15.569820
       4A    -15.558132     5A    -15.550387     6A    -11.337672
       7A    -11.325051     8A    -11.316806     9A    -11.311137
      10A    -11.251807    11A     -1.360144    12A     -1.294807
      13A     -1.243785    14A     -1.174765    15A     -1.146531
      16A     -1.030159    17A     -0.892057    18A     -0.870995
      19A     -0.820323    20A     -0.767236    21A     -0.730716
      22A     -0.691169    23A     -0.672992    24A     -0.635226
      25A     -0.624217    26A     -0.606488    27A     -0.585149
      28A     -0.555966    29A     -0.495592    30A     -0.494360
      31A     -0.451039    32A     -0.421332    33A     -0.409223
      34A     -0.371099    35A     -0.306273

  @DF-RHF Final Energy:  -464.65128254021812

   => Energetics <=

    Nuclear Repulsion Energy =            500.6970801189753502
    One-Electron Energy =               -1624.4881302123180831
    Two-Electron Energy =                 659.1397675531245568
    Total Energy =                       -464.6512825402180624
  Basis Set: (AUG-CC-PVTZ AUX)
    Blend: AUG-CC-PVTZ-RI
    Molecular point group: c1

    Geometry (in Angstrom), charge = 0, multiplicity = 1:

       Center              X                  Y                   Z               Mass
    ------------   -----------------  -----------------  -----------------  -----------------
         N            1.953035480324     0.510014376782     0.000005112755    14.003074004430
         C            1.229865480324    -0.621336623218    -0.000002887245    12.000000000000
         C           -0.177287519676    -0.531272623218    -0.000010887245    12.000000000000
         C           -0.708718519676     0.761490376782     0.000000112755    12.000000000000
         N           -0.026323519676     1.919195376782     0.000005112755    14.003074004430
         C            1.292762480324     1.690446376782     0.000012112755    12.000000000000
         N           -1.163527519676    -1.497984623218    -0.000016887245    14.003074004430
         C           -2.283904519676    -0.788397623218     0.000044112755    12.000000000000
         N           -2.073093519676     0.567264376782    -0.000022887245    14.003074004430
         N            1.868090480324    -1.814138623218    -0.000005887245    14.003074004430
         H            1.928302480324     2.573500376782     0.000002112755     1.007825032230
         H           -3.281521519676    -1.209626623218     0.000068112755     1.007825032230
         H           -2.911905819676     1.443855276782    -0.000095887245     1.007825032230
         H            2.877223480324    -1.832095623218     0.000009112755     1.007825032230
         H            1.339416480324    -2.673448623218     0.000002112755     1.007825032230

  Basis Set: AUG-CC-PVTZ
    Blend: AUG-CC-PVTZ
  Basis Set: (AUG-CC-PVTZ AUX)
    Blend: AUG-CC-PVTZ-JKFIT
	 Reference Energy          =    -464.6512825402181193 [Eh]
	 Singles Energy            =      -0.0000000000000000 [Eh]
	 Same-Spin Energy          =      -0.5081439734554680 [Eh]
	 Opposite-Spin Energy      =      -1.4806196925167541 [Eh]
	 Correlation Energy        =      -1.9887636659722221 [Eh]
	 Total Energy              =    -466.6400462061903340 [Eh]

	 ================> DF-SCS-MP2 Energies <==================
	-----------------------------------------------------------
	 SCS Same-Spin Scale       =       0.3333333333333333 [-]
	 SCS Opposite-Spin Scale   =       1.2000000000000000 [-]
	 SCS Same-Spin Energy      =      -0.1693813244851560 [Eh]
	 SCS Opposite-Spin Energy  =      -1.7767436310201048 [Eh]
	 SCS Correlation Energy    =      -1.9461249555052609 [Eh]
	 SCS Total Energy          =    -466.5974074957233597 [Eh]
	-----------------------------------------------------------

  Dipole Moment: [D]
     X:    -2.4655      Y:    -0.9861      Z:    -0.0000     Total:     2.6554

*** Psi4 exiting successfully. Buy a developer a beer!
